   2   2   0   0
  0.2089217E+02  0.3112000E-09  0.3112000E-09  0.4982000E-09  0.2000000E-15
  1.000000000000000E-004
  CAR 
 NiAl                                    
     16.92831315     -5.90409666  301      4.82316449      1.00000000
     -5.904  0.0000E+00  0.0000E+00
     -5.828  0.0000E+00  0.0000E+00
     -5.752  0.0000E+00  0.0000E+00
     -5.676  0.0000E+00  0.0000E+00
     -5.600  0.0000E+00  0.0000E+00
     -5.524  0.0000E+00  0.0000E+00
     -5.447  0.0000E+00  0.0000E+00
     -5.371  0.0000E+00  0.0000E+00
     -5.295  0.0000E+00  0.0000E+00
     -5.219  0.0000E+00  0.0000E+00
     -5.143  0.1094E-15  0.8327E-17
     -5.067  0.3034E-09  0.2309E-10
     -4.991  0.9360E-05  0.7124E-06
     -4.915  0.3729E-02  0.2845E-03
     -4.839  0.3056E-01  0.2611E-02
     -4.762  0.1359E-01  0.3645E-02
     -4.686  0.1203E+00  0.1280E-01
     -4.610  0.2081E+00  0.2863E-01
     -4.534  0.9711E-01  0.3602E-01
     -4.458  0.3773E+00  0.6474E-01
     -4.382  0.6890E-01  0.6998E-01
     -4.306  0.2259E-01  0.7170E-01
     -4.230  0.2041E+00  0.8724E-01
     -4.154  0.1394E+00  0.9784E-01
     -4.078  0.4092E+00  0.1290E+00
     -4.001  0.6132E+00  0.1757E+00
     -3.925  0.3515E+00  0.2024E+00
     -3.849  0.3844E+00  0.2317E+00
     -3.773  0.6541E-01  0.2366E+00
     -3.697  0.1615E-02  0.2368E+00
     -3.621  0.1355E+00  0.2471E+00
     -3.545  0.3561E+00  0.2742E+00
     -3.469  0.1953E+00  0.2890E+00
     -3.393  0.6539E+00  0.3388E+00
     -3.316  0.5061E+00  0.3773E+00
     -3.240  0.7801E+00  0.4367E+00
     -3.164  0.4429E+00  0.4704E+00
     -3.088  0.1987E+00  0.4855E+00
     -3.012  0.1905E+00  0.5000E+00
     -2.936  0.7756E-01  0.5059E+00
     -2.860  0.3903E+00  0.5356E+00
     -2.784  0.9589E+00  0.6086E+00
     -2.708  0.6981E+00  0.6618E+00
     -2.631  0.5314E-01  0.6658E+00
     -2.555  0.3514E+00  0.6926E+00
     -2.479  0.1866E+00  0.7067E+00
     -2.403  0.3821E+00  0.7358E+00
     -2.327  0.4004E+00  0.7663E+00
     -2.251  0.6423E+00  0.8152E+00
     -2.175  0.4455E+00  0.8491E+00
     -2.099  0.3658E+00  0.8769E+00
     -2.023  0.1090E+01  0.9599E+00
     -1.946  0.9683E+00  0.1034E+01
     -1.870  0.2215E+00  0.1050E+01
     -1.794  0.2428E+00  0.1069E+01
     -1.718  0.2800E+00  0.1090E+01
     -1.642  0.4829E+00  0.1127E+01
     -1.566  0.1438E+01  0.1236E+01
     -1.490  0.7138E+00  0.1291E+01
     -1.414  0.6334E+00  0.1339E+01
     -1.338  0.1446E+00  0.1350E+01
     -1.262  0.1336E-02  0.1350E+01
     -1.185  0.4569E-04  0.1350E+01
     -1.109  0.2913E-01  0.1352E+01
     -1.033  0.4647E+00  0.1388E+01
     -0.957  0.9121E+00  0.1457E+01
     -0.881  0.9325E+00  0.1528E+01
     -0.805  0.1445E+01  0.1638E+01
     -0.729  0.9780E+00  0.1712E+01
     -0.653  0.4192E+00  0.1744E+01
     -0.577  0.4579E+00  0.1779E+01
     -0.500  0.8488E+00  0.1844E+01
     -0.424  0.1091E+01  0.1927E+01
     -0.348  0.8583E+00  0.1992E+01
     -0.272  0.6798E-01  0.1997E+01
     -0.196  0.3955E+00  0.2027E+01
     -0.120  0.6508E+00  0.2077E+01
     -0.044  0.4169E+00  0.2109E+01
      0.032  0.1090E+01  0.2192E+01
      0.108  0.4892E+00  0.2229E+01
      0.185  0.4071E+00  0.2260E+01
      0.261  0.9689E-01  0.2267E+01
      0.337  0.4291E+00  0.2300E+01
      0.413  0.1308E+01  0.2399E+01
      0.489  0.6676E+00  0.2450E+01
      0.565  0.7155E+00  0.2505E+01
      0.641  0.1257E+01  0.2600E+01
      0.717  0.9570E+00  0.2673E+01
      0.793  0.6888E+00  0.2726E+01
      0.870  0.4434E+00  0.2759E+01
      0.946  0.3993E+00  0.2790E+01
      1.022  0.8192E+00  0.2852E+01
      1.098  0.7048E+00  0.2906E+01
      1.174  0.1192E+01  0.2996E+01
      1.250  0.3555E+00  0.3023E+01
      1.326  0.2411E+00  0.3042E+01
      1.402  0.6938E+00  0.3095E+01
      1.478  0.4770E+00  0.3131E+01
      1.554  0.1672E+01  0.3258E+01
      1.631  0.1177E+01  0.3348E+01
      1.707  0.5735E+00  0.3391E+01
      1.783  0.6604E+00  0.3442E+01
      1.859  0.1092E+01  0.3525E+01
      1.935  0.1357E+01  0.3628E+01
      2.011  0.9066E+00  0.3697E+01
      2.087  0.7724E+00  0.3756E+01
      2.163  0.9839E-01  0.3763E+01
      2.239  0.1485E+00  0.3775E+01
      2.316  0.7765E+00  0.3834E+01
      2.392  0.7681E+00  0.3892E+01
      2.468  0.1125E+01  0.3978E+01
      2.544  0.9084E+00  0.4047E+01
      2.620  0.2434E+00  0.4066E+01
      2.696  0.1929E+00  0.4080E+01
      2.772  0.2788E+00  0.4101E+01
      2.848  0.1369E+01  0.4206E+01
      2.924  0.1829E+01  0.4345E+01
      3.001  0.1303E+01  0.4444E+01
      3.077  0.7713E+00  0.4503E+01
      3.153  0.1379E+01  0.4608E+01
      3.229  0.4482E+00  0.4642E+01
      3.305  0.7786E+00  0.4701E+01
      3.381  0.1029E+01  0.4779E+01
      3.457  0.9999E+00  0.4855E+01
      3.533  0.1070E+01  0.4937E+01
      3.609  0.1065E+01  0.5018E+01
      3.686  0.7001E+00  0.5071E+01
      3.762  0.1048E+01  0.5151E+01
      3.838  0.1184E+01  0.5241E+01
      3.914  0.1690E+01  0.5370E+01
      3.990  0.5289E+00  0.5410E+01
      4.066  0.1628E+00  0.5422E+01
      4.142  0.2073E+00  0.5438E+01
      4.218  0.3403E+00  0.5464E+01
      4.294  0.8547E+00  0.5529E+01
      4.370  0.1784E+01  0.5665E+01
      4.447  0.1199E+01  0.5756E+01
      4.523  0.8775E+00  0.5823E+01
      4.599  0.3366E+00  0.5848E+01
      4.675  0.4807E+00  0.5885E+01
      4.751  0.7597E+00  0.5943E+01
      4.827  0.8137E+00  0.6005E+01
      4.903  0.1556E+01  0.6123E+01
      4.979  0.9518E+00  0.6196E+01
      5.055  0.1816E+01  0.6334E+01
      5.132  0.1606E+01  0.6456E+01
      5.208  0.4134E+00  0.6488E+01
      5.284  0.1496E+01  0.6601E+01
      5.360  0.1587E+01  0.6722E+01
      5.436  0.9009E+00  0.6791E+01
      5.512  0.1142E+01  0.6878E+01
      5.588  0.1828E+01  0.7017E+01
      5.664  0.7982E+00  0.7078E+01
      5.740  0.2519E+00  0.7097E+01
      5.817  0.4709E+00  0.7133E+01
      5.893  0.9604E+00  0.7206E+01
      5.969  0.6040E+00  0.7252E+01
      6.045  0.5053E+00  0.7290E+01
      6.121  0.8931E+00  0.7358E+01
      6.197  0.1667E+01  0.7485E+01
      6.273  0.1835E+01  0.7625E+01
      6.349  0.1176E+01  0.7714E+01
      6.425  0.7954E+00  0.7775E+01
      6.502  0.1001E+01  0.7851E+01
      6.578  0.1789E+01  0.7987E+01
      6.654  0.1188E+01  0.8077E+01
      6.730  0.7223E+00  0.8132E+01
      6.806  0.6533E-01  0.8137E+01
      6.882  0.4338E+00  0.8170E+01
      6.958  0.7281E+00  0.8226E+01
      7.034  0.1367E+01  0.8330E+01
      7.110  0.1993E+01  0.8482E+01
      7.186  0.1065E+01  0.8563E+01
      7.263  0.9614E+00  0.8636E+01
      7.339  0.1254E+01  0.8731E+01
      7.415  0.1175E+01  0.8821E+01
      7.491  0.3325E+00  0.8846E+01
      7.567  0.8910E+00  0.8914E+01
      7.643  0.1185E+01  0.9004E+01
      7.719  0.2018E+01  0.9157E+01
      7.795  0.2055E+01  0.9314E+01
      7.871  0.1018E+01  0.9391E+01
      7.948  0.1109E+01  0.9476E+01
      8.024  0.3120E+00  0.9500E+01
      8.100  0.5073E+00  0.9538E+01
      8.176  0.1279E+01  0.9635E+01
      8.252  0.1329E+01  0.9737E+01
      8.328  0.1267E+01  0.9833E+01
      8.404  0.8158E+00  0.9895E+01
      8.480  0.1968E+01  0.1004E+02
      8.556  0.2346E+01  0.1022E+02
      8.633  0.7710E+00  0.1028E+02
      8.709  0.6847E-01  0.1029E+02
      8.785  0.1327E+01  0.1039E+02
      8.861  0.2074E+01  0.1055E+02
      8.937  0.5419E+00  0.1059E+02
      9.013  0.1354E+01  0.1069E+02
      9.089  0.9778E+00  0.1076E+02
      9.165  0.1955E+01  0.1091E+02
      9.241  0.1995E+01  0.1107E+02
      9.318  0.1298E+01  0.1116E+02
      9.394  0.1183E+01  0.1125E+02
      9.470  0.4619E+00  0.1129E+02
      9.546  0.4290E+00  0.1132E+02
      9.622  0.5633E+00  0.1136E+02
      9.698  0.5460E+00  0.1141E+02
      9.774  0.1261E+01  0.1150E+02
      9.850  0.1170E+01  0.1159E+02
      9.926  0.1173E+01  0.1168E+02
     10.002  0.2152E+01  0.1184E+02
     10.079  0.1802E+01  0.1198E+02
     10.155  0.5509E+00  0.1202E+02
     10.231  0.1133E+01  0.1211E+02
     10.307  0.1025E+01  0.1219E+02
     10.383  0.4425E+00  0.1222E+02
     10.459  0.1037E+01  0.1230E+02
     10.535  0.1653E+01  0.1243E+02
     10.611  0.1627E+01  0.1255E+02
     10.687  0.1628E+01  0.1267E+02
     10.764  0.1159E+01  0.1276E+02
     10.840  0.1427E+01  0.1287E+02
     10.916  0.2041E+01  0.1303E+02
     10.992  0.1451E+01  0.1314E+02
     11.068  0.8349E+00  0.1320E+02
     11.144  0.1547E+01  0.1332E+02
     11.220  0.7357E+00  0.1337E+02
     11.296  0.2677E+00  0.1339E+02
     11.372  0.8214E+00  0.1346E+02
     11.449  0.1417E+01  0.1356E+02
     11.525  0.1640E+01  0.1369E+02
     11.601  0.1716E+01  0.1382E+02
     11.677  0.1858E+01  0.1396E+02
     11.753  0.1663E+01  0.1409E+02
     11.829  0.5299E+00  0.1413E+02
     11.905  0.1126E+01  0.1421E+02
     11.981  0.4940E+00  0.1425E+02
     12.057  0.1731E+01  0.1438E+02
     12.134  0.1452E+01  0.1449E+02
     12.210  0.1682E+01  0.1462E+02
     12.286  0.8587E+00  0.1469E+02
     12.362  0.4763E+00  0.1472E+02
     12.438  0.6549E+00  0.1477E+02
     12.514  0.3560E+00  0.1480E+02
     12.590  0.9831E+00  0.1488E+02
     12.666  0.1363E+01  0.1498E+02
     12.742  0.7448E+00  0.1504E+02
     12.818  0.1302E+01  0.1513E+02
     12.895  0.7718E+00  0.1519E+02
     12.971  0.5935E+00  0.1524E+02
     13.047  0.3215E+00  0.1526E+02
     13.123  0.4946E+00  0.1530E+02
     13.199  0.5141E+00  0.1534E+02
     13.275  0.5609E+00  0.1538E+02
     13.351  0.9918E+00  0.1546E+02
     13.427  0.8699E+00  0.1552E+02
     13.503  0.1791E+00  0.1554E+02
     13.580  0.5594E+00  0.1558E+02
     13.656  0.6272E+00  0.1563E+02
     13.732  0.1770E+00  0.1564E+02
     13.808  0.1049E+00  0.1565E+02
     13.884  0.3591E-02  0.1565E+02
     13.960  0.1932E-03  0.1565E+02
     14.036  0.5750E-01  0.1565E+02
     14.112  0.3801E+00  0.1568E+02
     14.188  0.2033E+00  0.1570E+02
     14.265  0.7236E+00  0.1575E+02
     14.341  0.1388E+01  0.1586E+02
     14.417  0.5510E+00  0.1590E+02
     14.493  0.2503E-01  0.1590E+02
     14.569  0.2991E-01  0.1591E+02
     14.645  0.3858E+00  0.1593E+02
     14.721  0.2696E+00  0.1596E+02
     14.797  0.1545E-01  0.1596E+02
     14.873  0.3186E-04  0.1596E+02
     14.950  0.9328E-09  0.1596E+02
     15.026  0.3112E-15  0.1596E+02
     15.102  0.0000E+00  0.1596E+02
     15.178  0.0000E+00  0.1596E+02
     15.254  0.1721E-14  0.1596E+02
     15.330  0.3710E-08  0.1596E+02
     15.406  0.8874E-04  0.1596E+02
     15.482  0.2783E-01  0.1596E+02
     15.558  0.1871E+00  0.1597E+02
     15.634  0.8602E-01  0.1598E+02
     15.711  0.1890E+00  0.1599E+02
     15.787  0.3548E-01  0.1600E+02
     15.863  0.9575E-02  0.1600E+02
     15.939  0.3056E-01  0.1600E+02
     16.015  0.3729E-02  0.1600E+02
     16.091  0.9360E-05  0.1600E+02
     16.167  0.3034E-09  0.1600E+02
     16.243  0.1070E-15  0.1600E+02
     16.319  0.0000E+00  0.1600E+02
     16.396  0.0000E+00  0.1600E+02
     16.472  0.0000E+00  0.1600E+02
     16.548  0.0000E+00  0.1600E+02
     16.624  0.0000E+00  0.1600E+02
     16.700  0.0000E+00  0.1600E+02
     16.776  0.0000E+00  0.1600E+02
     16.852  0.0000E+00  0.1600E+02
     16.928  0.0000E+00  0.1600E+02
