    2    2    1    1
  0.2089217E+02  0.3112000E-09  0.3112000E-09  0.4982000E-09  0.2000000E-15
  1.000000000000000E-004
  CAR 
 NiAl                                    
      6     56      8
 
  0.0000000E+00  0.0000000E+00  0.0000000E+00  0.1666667E-02
    1       -4.866260   1.000000
    2        0.862053   1.000000
    3        1.134479   1.000000
    4       13.163668   0.000000
    5       13.163688   0.000000
    6       14.166723   0.000000
    7       14.166742   0.000000
    8       15.890476   0.000000
 
  0.1000000E+00  0.6938894E-17  0.0000000E+00  0.1000000E-01
    1       -4.662979   1.000000
    2        1.064035   1.000000
    3        1.325452   1.000000
    4       10.775995   0.000000
    5       11.987626   0.000000
    6       13.515323   0.000000
    7       15.526338   0.000000
    8       15.671633   0.000000
 
  0.2000000E+00  0.0000000E+00  0.0000000E+00  0.1000000E-01
    1       -4.054754   1.000000
    2        1.667377   1.000000
    3        1.897543   1.000000
    4        7.699886   0.000000
    5       10.760315   0.000000
    6       12.353315   0.000000
    7       12.928698   0.000000
    8       13.219042   0.000000
 
  0.3000000E+00 -0.2775558E-16  0.0000000E+00  0.1000000E-01
    1       -3.046451   1.000000
    2        2.661268   1.000000
    3        2.846354   1.000000
    4        4.861489   0.139187
    5        9.868818   0.000000
    6       10.280327   0.000000
    7       10.527217   0.000000
    8       11.440209   0.000000
 
  0.4000000E+00  0.0000000E+00  0.0000000E+00  0.1000000E-01
    1       -1.649168   1.000000
    2        2.332499   1.000000
    3        4.056387   1.000000
    4        4.151049   1.000000
    5        7.888658   0.000000
    6        8.129333   0.000000
    7        9.331879   0.000000
    8       10.870322   0.000000
 
  0.5000000E+00  0.0000000E+00  0.0000000E+00  0.5000000E-02
    1       -0.097739   1.000000
    2        0.412819   1.000000
    3        5.392325   0.000000
    4        5.676512   0.000000
    5        5.922289   0.000000
    6        6.518653   0.000000
    7        9.152657   0.000000
    8       10.677435   0.000000
 
  0.1000000E+00  0.1000000E+00  0.0000000E+00  0.1000000E-01
    1       -4.257174   1.000000
    2        1.466794   1.000000
    3        1.707054   1.000000
    4        9.170626   0.000000
    5        9.564444   0.000000
    6       14.239489   0.000000
    7       14.293106   0.000000
    8       14.348137   0.000000
 
  0.2000000E+00  0.1000000E+00  0.0000000E+00  0.2000000E-01
    1       -3.448870   1.000000
    2        2.266073   1.000000
    3        2.467896   1.000000
    4        6.372684   0.000000
    5        8.282075   0.000000
    6       11.713748   0.000000
    7       11.874123   0.000000
    8       13.379627   0.000000
 
  0.3000000E+00  0.1000000E+00  0.0000000E+00  0.2000000E-01
    1       -2.245098   1.000000
    2        3.402153   1.000000
    3        3.598983   1.000000
    4        3.751609   1.000000
    5        7.519566   0.000000
    6        9.202919   0.000000
    7        9.386983   0.000000
    8       12.703801   0.000000
 
  0.4000000E+00  0.1000000E+00  0.0000000E+00  0.2000000E-01
    1       -0.668422   1.000000
    2        1.370104   1.000000
    3        5.018524   0.000000
    4        5.033648   0.000000
    5        6.888650   0.000000
    6        7.223123   0.000000
    7        7.236118   0.000000
    8       12.360824   0.000000
 
  0.2000000E+00  0.2000000E+00  0.0000000E+00  0.1000000E-01
    1       -2.444545   1.000000
    2        3.249319   1.000000
    3        3.412980   1.000000
    4        5.230743   0.000000
    5        5.664909   0.000000
    6       10.464850   0.000000
    7       10.711286   0.000000
    8       10.953261   0.000000
 
  0.3000000E+00  0.2000000E+00  0.0000000E+00  0.2000000E-01
    1       -1.052622   1.000000
    2        2.894953   1.000000
    3        4.602747   1.000000
    4        4.710763   0.999262
    5        4.938485   0.000554
    6        8.458965   0.000000
    7        8.531875   0.000000
    8       10.304985   0.000000
 
  0.4000000E+00  0.2000000E+00  0.0000000E+00  0.1000000E-01
    1        0.502373   1.000000
    2        0.983249   1.000000
    3        4.678345   0.999979
    4        5.958884   0.000000
    5        6.239992   0.000000
    6        6.540294   0.000000
    7        6.985188   0.000000
    8       10.121323   0.000000
 
  0.3000000E+00  0.3000000E+00  0.0000000E+00  0.1000000E-01
    1        0.506551   1.000000
    2        2.283512   1.000000
    3        2.820706   1.000000
    4        6.112293   0.000000
    5        6.177654   0.000000
    6        7.655774   0.000000
    7        7.967166   0.000000
    8        8.238834   0.000000
 
  0.0000000E+00  0.0000000E+00  0.1666667E+00  0.3333333E-02
    1       -4.700676   1.000000
    2       -0.777211   1.000000
    3        3.071611   1.000000
    4       13.302011   0.000000
    5       13.302031   0.000000
    6       13.742955   0.000000
    7       14.306147   0.000000
    8       14.306167   0.000000
 
  0.1000000E+00  0.6938894E-17  0.1666667E+00  0.2000000E-01
    1       -4.497613   1.000000
    2       -0.578158   1.000000
    3        3.264757   1.000000
    4       10.916700   0.000000
    5       12.131260   0.000000
    6       13.370431   0.000000
    7       14.316787   0.000000
    8       14.625070   0.000000
 
  0.2000000E+00  0.0000000E+00  0.1666667E+00  0.2000000E-01
    1       -3.889864   1.000000
    2        0.017280   1.000000
    3        3.841292   1.000000
    4        7.851138   0.000000
    5       10.905357   0.000000
    6       11.501111   0.000000
    7       12.428861   0.000000
    8       14.309003   0.000000
 
  0.3000000E+00 -0.2775558E-16  0.1666667E+00  0.2000000E-01
    1       -2.882534   1.000000
    2        1.003403   1.000000
    3        4.755841   0.971558
    4        5.049122   0.000000
    5        8.763593   0.000000
    6       10.014511   0.000000
    7       11.561844   0.000000
    8       12.238016   0.000000
 
  0.4000000E+00  0.0000000E+00  0.1666667E+00  0.2000000E-01
    1       -1.486389   1.000000
    2        2.336853   1.000000
    3        2.531563   1.000000
    4        5.873092   0.000000
    5        6.571074   0.000000
    6        9.477715   0.000000
    7        9.942915   0.000000
    8       11.012576   0.000000
 
  0.5000000E+00  0.0000000E+00  0.1666667E+00  0.1000000E-01
    1        0.065141   1.000000
    2        0.571546   1.000000
    3        3.909809   1.000000
    4        4.335202   1.000000
    5        7.685478   0.000000
    6        8.132637   0.000000
    7        9.298542   0.000000
    8       10.823015   0.000000
 
  0.1000000E+00  0.1000000E+00  0.1666667E+00  0.2000000E-01
    1       -4.092208   1.000000
    2       -0.180867   1.000000
    3        3.649732   1.000000
    4        9.321051   0.000000
    5        9.704260   0.000000
    6       12.842395   0.000000
    7       13.328655   0.000000
    8       14.079618   0.000000
 
  0.2000000E+00  0.1000000E+00  0.1666667E+00  0.4000000E-01
    1       -3.284544   1.000000
    2        0.610017   1.000000
    3        4.411664   1.000000
    4        6.527699   0.000000
    5        8.429667   0.000000
    6       10.217654   0.000000
    7       12.021160   0.000000
    8       13.589408   0.000000
 
  0.3000000E+00  0.1000000E+00  0.1666667E+00  0.4000000E-01
    1       -2.081830   1.000000
    2        1.785542   1.000000
    3        3.849094   1.000000
    4        5.534780   0.000000
    5        7.569879   0.000000
    6        7.768505   0.000000
    7       10.914859   0.000000
    8       11.722435   0.000000
 
  0.4000000E+00  0.1000000E+00  0.1666667E+00  0.4000000E-01
    1       -0.506335   1.000000
    2        1.528635   1.000000
    3        3.332950   1.000000
    4        5.268103   0.000000
    5        7.096310   0.000000
    6        7.360088   0.000000
    7        9.005091   0.000000
    8       11.106486   0.000000
 
  0.2000000E+00  0.2000000E+00  0.1666667E+00  0.2000000E-01
    1       -2.281134   1.000000
    2        1.591234   1.000000
    3        5.235299   0.000000
    4        5.497046   0.000000
    5        5.817648   0.000000
    6        9.054649   0.000000
    7        9.591840   0.000000
    8       12.547012   0.000000
 
  0.3000000E+00  0.2000000E+00  0.1666667E+00  0.4000000E-01
    1       -0.890361   1.000000
    2        2.901889   1.000000
    3        3.111810   1.000000
    4        5.046673   0.000000
    5        6.436037   0.000000
    6        7.082217   0.000000
    7        8.785751   0.000000
    8       10.641625   0.000000
 
  0.4000000E+00  0.2000000E+00  0.1666667E+00  0.2000000E-01
    1        0.664391   1.000000
    2        1.141692   1.000000
    3        4.460960   1.000000
    4        4.882359   0.047038
    5        4.895852   0.019895
    6        8.088432   0.000000
    7        8.267364   0.000000
    8        9.292929   0.000000
 
  0.3000000E+00  0.3000000E+00  0.1666667E+00  0.2000000E-01
    1        0.667508   1.000000
    2        2.441404   1.000000
    3        2.976769   1.000000
    4        4.485817   1.000000
    5        6.228946   0.000000
    6        6.565325   0.000000
    7        8.382119   0.000000
    8        9.928194   0.000000
 
  0.0000000E+00  0.0000000E+00  0.3333333E+00  0.3333333E-02
    1       -4.204917   1.000000
    2       -2.237077   1.000000
    3        5.421418   0.000000
    4       10.857538   0.000000
    5       13.713937   0.000000
    6       13.713957   0.000000
    7       14.671149   0.000000
    8       14.671168   0.000000
 
  0.1000000E+00  0.6938894E-17  0.3333333E+00  0.2000000E-01
    1       -4.002455   1.000000
    2       -2.036576   1.000000
    3        5.609684   0.000000
    4       10.889326   0.000000
    5       11.519330   0.000000
    6       12.561179   0.000000
    7       13.142275   0.000000
    8       14.243226   0.000000
 
  0.2000000E+00  0.0000000E+00  0.3333333E+00  0.2000000E-01
    1       -3.396346   1.000000
    2       -1.436723   1.000000
    3        6.165043   0.000000
    4        8.295976   0.000000
    5       10.176394   0.000000
    6       11.340064   0.000000
    7       11.484240   0.000000
    8       13.062557   0.000000
 
  0.3000000E+00 -0.2775558E-16  0.3333333E+00  0.2000000E-01
    1       -2.391627   1.000000
    2       -0.442404   1.000000
    3        5.468392   0.000000
    4        6.889482   0.000000
    5        7.617431   0.000000
    6       10.451042   0.000000
    7       11.684732   0.000000
    8       12.185961   0.000000
 
  0.4000000E+00  0.0000000E+00  0.3333333E+00  0.2000000E-01
    1       -0.998975   1.000000
    2        0.934889   1.000000
    3        2.973933   1.000000
    4        4.844539   0.272738
    5        8.482489   0.000000
    6        9.914954   0.000000
    7       11.379225   0.000000
    8       11.655317   0.000000
 
  0.5000000E+00  0.0000000E+00  0.3333333E+00  0.1000000E-01
    1        0.552336   1.000000
    2        1.046450   1.000000
    3        2.487298   1.000000
    4        2.941935   1.000000
    5        9.736011   0.000000
    6        9.938426   0.000000
    7       10.254045   0.000000
    8       11.227424   0.000000
 
  0.1000000E+00  0.1000000E+00  0.3333333E+00  0.2000000E-01
    1       -3.598145   1.000000
    2       -1.636392   1.000000
    3        5.982588   0.000000
    4        9.770815   0.000000
    5       10.046195   0.000000
    6       11.514843   0.000000
    7       11.639197   0.000000
    8       12.055823   0.000000
 
  0.2000000E+00  0.1000000E+00  0.3333333E+00  0.4000000E-01
    1       -2.792609   1.000000
    2       -0.839222   1.000000
    3        6.672630   0.000000
    4        7.010989   0.000000
    5        8.799763   0.000000
    6        8.958115   0.000000
    7       10.763116   0.000000
    8       12.192419   0.000000
 
  0.3000000E+00  0.1000000E+00  0.3333333E+00  0.4000000E-01
    1       -1.592980   1.000000
    2        0.347638   1.000000
    3        4.319523   1.000000
    4        6.143218   0.000000
    5        7.895513   0.000000
    6        8.166423   0.000000
    7       10.024471   0.000000
    8       12.793348   0.000000
 
  0.4000000E+00  0.1000000E+00  0.3333333E+00  0.4000000E-01
    1       -0.021157   1.000000
    2        1.873832   1.000000
    3        2.040452   1.000000
    4        3.899911   1.000000
    5        7.747412   0.000000
    6        9.145249   0.000000
    7        9.808430   0.000000
    8       11.401449   0.000000
 
  0.2000000E+00  0.2000000E+00  0.3333333E+00  0.2000000E-01
    1       -1.791794   1.000000
    2        0.150976   1.000000
    3        5.829527   0.000000
    4        6.271094   0.000000
    5        7.394252   0.000000
    6        7.694952   0.000000
    7        8.547005   0.000000
    8       12.944350   0.000000
 
  0.3000000E+00  0.2000000E+00  0.3333333E+00  0.4000000E-01
    1       -0.404612   1.000000
    2        1.521625   1.000000
    3        3.538183   1.000000
    4        5.363020   0.000000
    5        5.557805   0.000000
    6        7.297016   0.000000
    7        9.191603   0.000000
    8       12.623141   0.000000
 
  0.4000000E+00  0.2000000E+00  0.3333333E+00  0.2000000E-01
    1        1.148877   1.000000
    2        1.615320   1.000000
    3        3.074626   1.000000
    4        3.508926   1.000000
    5        5.320977   0.000000
    6        7.134411   0.000000
    7       10.493784   0.000000
    8       11.110556   0.000000
 
  0.3000000E+00  0.3000000E+00  0.3333333E+00  0.2000000E-01
    1        1.149090   1.000000
    2        2.859898   1.000000
    3        3.134076   1.000000
    4        3.443071   1.000000
    5        4.834956   0.369373
    6        5.293576   0.000000
    7       10.551571   0.000000
    8       12.043205   0.000000
 
  0.0000000E+00  0.0000000E+00  0.5000000E+00  0.1666667E-02
    1       -3.382140   1.000000
    2       -3.382140   1.000000
    3        8.033678   0.000000
    4        8.033678   0.000000
    5       14.369750   0.000000
    6       14.369750   0.000000
    7       14.369771   0.000000
    8       14.369771   0.000000
 
  0.1000000E+00  0.6938894E-17  0.5000000E+00  0.1000000E-01
    1       -3.180504   1.000000
    2       -3.180504   1.000000
    3        8.208763   0.000000
    4        8.208763   0.000000
    5       12.138073   0.000000
    6       12.138073   0.000000
    7       13.272201   0.000000
    8       13.272201   0.000000
 
  0.2000000E+00  0.0000000E+00  0.5000000E+00  0.1000000E-01
    1       -2.577009   1.000000
    2       -2.577009   1.000000
    3        8.557997   0.000000
    4        8.557997   0.000000
    5        9.316584   0.000000
    6        9.316584   0.000000
    7       12.061978   0.000000
    8       12.061978   0.000000
 
  0.3000000E+00 -0.2775558E-16  0.5000000E+00  0.1000000E-01
    1       -1.576633   1.000000
    2       -1.576633   1.000000
    3        6.234035   0.000000
    4        6.234035   0.000000
    5        9.715715   0.000000
    6        9.715716   0.000000
    7       11.176794   0.000000
    8       11.176794   0.000000
 
  0.4000000E+00  0.0000000E+00  0.5000000E+00  0.1000000E-01
    1       -0.189960   1.000000
    2       -0.189960   1.000000
    3        3.759365   1.000000
    4        3.759365   1.000000
    5       10.642465   0.000000
    6       10.642465   0.000000
    7       10.831064   0.000000
    8       10.831064   0.000000
 
  0.5000000E+00  0.0000000E+00  0.5000000E+00  0.5000000E-02
    1        1.355527   1.000000
    2        1.355527   1.000000
    3        1.846575   1.000000
    4        1.846575   1.000000
    5       10.463870   0.000000
    6       10.463870   0.000000
    7       11.575567   0.000000
    8       11.575567   0.000000
 
  0.1000000E+00  0.1000000E+00  0.5000000E+00  0.1000000E-01
    1       -2.777910   1.000000
    2       -2.777910   1.000000
    3        8.534089   0.000000
    4        8.534089   0.000000
    5       10.510453   0.000000
    6       10.510453   0.000000
    7       11.074946   0.000000
    8       11.074946   0.000000
 
  0.2000000E+00  0.1000000E+00  0.5000000E+00  0.2000000E-01
    1       -1.975878   1.000000
    2       -1.975878   1.000000
    3        7.699259   0.000000
    4        7.699259   0.000000
    5        9.149212   0.000000
    6        9.149212   0.000000
    7        9.985907   0.000000
    8        9.985907   0.000000
 
  0.3000000E+00  0.1000000E+00  0.5000000E+00  0.2000000E-01
    1       -0.781467   1.000000
    2       -0.781467   1.000000
    3        5.096416   0.000000
    4        5.096416   0.000000
    5        8.825267   0.000000
    6        8.825267   0.000000
    7       10.593632   0.000000
    8       10.593632   0.000000
 
  0.4000000E+00  0.1000000E+00  0.5000000E+00  0.2000000E-01
    1        0.783504   1.000000
    2        0.783504   1.000000
    3        2.802354   1.000000
    4        2.802354   1.000000
    5        8.488740   0.000000
    6        8.488740   0.000000
    7       11.861392   0.000000
    8       11.861392   0.000000
 
  0.2000000E+00  0.2000000E+00  0.5000000E+00  0.1000000E-01
    1       -0.979442   1.000000
    2       -0.979442   1.000000
    3        6.597682   0.000000
    4        6.597682   0.000000
    5        7.023052   0.000000
    6        7.023052   0.000000
    7       10.415108   0.000000
    8       10.415108   0.000000
 
  0.3000000E+00  0.2000000E+00  0.5000000E+00  0.2000000E-01
    1        0.401498   1.000000
    2        0.401498   1.000000
    3        4.319717   1.000000
    4        4.319717   1.000000
    5        6.284285   0.000000
    6        6.284285   0.000000
    7       11.608893   0.000000
    8       11.608893   0.000000
 
  0.4000000E+00  0.2000000E+00  0.5000000E+00  0.1000000E-01
    1        1.944257   1.000000
    2        1.944257   1.000000
    3        2.420120   1.000000
    4        2.420120   1.000000
    5        6.088124   0.000000
    6        6.088124   0.000000
    7       12.635941   0.000000
    8       12.635942   0.000000
 
  0.3000000E+00  0.3000000E+00  0.5000000E+00  0.1000000E-01
    1        1.945963   1.000000
    2        1.945963   1.000000
    3        3.723181   1.000000
    4        3.723181   1.000000
    5        4.231347   1.000000
    6        4.231347   1.000000
    7       12.782173   0.000000
    8       12.782173   0.000000
