       N       E                     dE             d eps       ncg     rms          rms(c)
DAV:   1    -0.275725268885E+01   -0.27573E+01   -0.16659E+03   896   0.372E+02
DAV:   2    -0.710774506666E+01   -0.43505E+01   -0.42434E+01  1312   0.334E+01
DAV:   3    -0.714285910368E+01   -0.35114E-01   -0.34862E-01  1136   0.355E+00
DAV:   4    -0.714307065746E+01   -0.21155E-03   -0.21155E-03  1416   0.257E-01
DAV:   5    -0.714307081851E+01   -0.16105E-06   -0.16180E-06  1176   0.629E-03    0.117E+00
DAV:   6    -0.711768485783E+01    0.25386E-01   -0.58790E-03  1192   0.463E-01    0.724E-01
DAV:   7    -0.710003143649E+01    0.17653E-01   -0.17430E-02  1104   0.761E-01    0.269E-02
DAV:   8    -0.709999961023E+01    0.31826E-04   -0.44605E-05  1248   0.533E-02    0.856E-03
DAV:   9    -0.709999869297E+01    0.91726E-06   -0.81996E-07  1072   0.625E-03
   1 F= -.70999987E+01 E0= -.70992657E+01  d E =-.146595E-02
