 vasp.5.4.4.18Apr17-6-g9f103f2a35 (build Apr 28 2017 10:40:22) complex          
  
 executed on Intel-16.0.3.210-OMP date 2018.10.24  15:46:27
 running on    4 total cores
 distrk:  each k-point on    4 cores,    1 groups
 distr:  one band on NCORES_PER_BAND=   1 cores,    4 groups


--------------------------------------------------------------------------------------------------------


 INCAR:
 POTCAR:    PAW Al_GW 19Mar2012                   
 POTCAR:    PAW Al_GW 19Mar2012                   
   VRHFIN =Al: s2p1                                                             
   LEXCH  = PE                                                                  
   EATOM  =    53.5387 eV,    3.9350 Ry                                         
                                                                                
   TITEL  = PAW Al_GW 19Mar2012                                                 
   LULTRA =        F    use ultrasoft PP ?                                      
   IUNSCR =        1    unscreen: 0-lin 1-nonlin 2-no                           
   RPACOR =    1.500    partial core radius                                     
   POMASS =   26.982; ZVAL   =    3.000    mass and valenz                      
   RCORE  =    2.000    outmost cutoff radius                                   
   RWIGS  =    2.000; RWIGS  =    1.058    wigner-seitz radius (au A)           
   ENMAX  =  240.300; ENMIN  =  180.225 eV                                      
   ICORE  =        3    local potential                                         
   LCOR   =        T    correct aug charges                                     
   LPAW   =        T    paw PP                                                  
   EAUG   =  482.059                                                            
   DEXC   =    0.000                                                            
   RMAX   =    2.051    core radius for proj-oper                               
   RAUG   =    1.300    factor for augmentation sphere                          
   RDEP   =    2.096    radius for radial grids                                 
   RDEPT  =    1.856    core radius for aug-charge                              
                                                                                
   Atomic configuration                                                         
    7 entries                                                                   
     n  l   j            E        occ.                                          
     1  0  0.50     -1511.1048   2.0000                                         
     2  0  0.50      -108.1629   2.0000                                         
     2  1  1.50       -69.6402   6.0000                                         
     3  0  0.50        -7.7528   2.0000                                         
     3  1  1.50        -2.7121   1.0000                                         
     3  2  2.50        -2.7212   0.0000                                         
     4  3  2.50        -2.7212   0.0000                                         
   Description                                                                  
     l       E           TYP  RCUT    TYP  RCUT                                 
     0     -7.7528455     23  1.900                                             
     0     68.0291300     23  1.900                                             
     1     -2.7120682     23  1.900                                             
     1     68.0291300     23  1.900                                             
     2     -1.3605826     23  1.900                                             
     2     81.6349560     23  1.900                                             
     3     74.8320430     23  2.000                                             
  local pseudopotential read in
  partial core-charges read in
  partial kinetic energy density read in
  kinetic energy density of atom read in
  atomic valenz-charges read in
  non local Contribution for L=           0  read in
    real space projection operators read in
  non local Contribution for L=           0  read in
    real space projection operators read in
  non local Contribution for L=           1  read in
    real space projection operators read in
  non local Contribution for L=           1  read in
    real space projection operators read in
  non local Contribution for L=           2  read in
    real space projection operators read in
  non local Contribution for L=           2  read in
    real space projection operators read in
    PAW grid and wavefunctions read in
 
   number of l-projection  operators is LMAX  =           6
   number of lm-projection operators is LMMAX =          18
 

 ----------------------------------------------------------------------------- 
|                                                                             |
|  ADVICE TO THIS USER RUNNING 'VASP/VAMP'   (HEAR YOUR MASTER'S VOICE ...):  |
|                                                                             |
|      You have a (more or less) 'small supercell' and for smaller cells      |
|      it is recommended  to use the reciprocal-space projection scheme!      |
|      The real space optimization is not  efficient for small cells and it   |
|      is also less accurate ...                                              |
|      Therefore set LREAL=.FALSE. in the  INCAR file                         |
|                                                                             |
 ----------------------------------------------------------------------------- 

 Optimization of the real space projectors (new method)

 maximal supplied QI-value         = 18.90
 optimisation between [QCUT,QGAM] = [  8.69, 17.57] = [ 21.16, 86.49] Ry 
 Optimized for a Real-space Cutoff    1.59 Angstroem

   l    n(q)    QCUT    max X(q) W(low)/X(q) W(high)/X(q)  e(spline) 
   0      8     8.693    11.519    0.12E-03    0.31E-04    0.21E-06
   0      8     8.693     5.834    0.89E-04    0.32E-04    0.16E-06
   1      8     8.693    10.132    0.25E-03    0.39E-03    0.25E-06
   1      8     8.693     3.004    0.16E-03    0.27E-03    0.22E-06
   2      7     8.693     3.169    0.39E-03    0.93E-03    0.44E-06
   2      7     8.693     1.605    0.70E-04    0.91E-04    0.19E-06
  PAW Al_GW 19Mar2012                   :
 energy of atom  1       EATOM=  -53.5387
 kinetic energy error for atom=    0.0011 (will be added to EATOM!!)
 
 
 POSCAR: New structure                           
  positions in cartesian coordinates
  No initial velocities read in
 exchange correlation table for  LEXCH =        8
   RHO(1)=    0.500       N(1)  =     2000
   RHO(2)=  100.500       N(2)  =     4000
 


--------------------------------------------------------------------------------------------------------


 ion  position               nearest neighbor table
   1  0.333  0.667  0.000-
   2  0.667  0.333  0.500-
 
  LATTYP: Found a hexagonal cell.
 ALAT       =     3.1120000000
 C/A-ratio  =     1.6008997429
  
  Lattice vectors:
  
 A1 = (   3.1120000000,   0.0000000000,   0.0000000000)
 A2 = (  -1.5560000000,   2.6950710566,   0.0000000000)
 A3 = (   0.0000000000,   0.0000000000,   4.9820000000)


Analysis of symmetry for initial positions (statically):
=====================================================================
 Subroutine PRICEL returns:
 Original cell was already a primitive cell.
 

 Routine SETGRP: Setting up the symmetry group for a 
 hexagonal supercell.


 Subroutine GETGRP returns: Found 24 space group operations
 (whereof 12 operations were pure point group operations)
 out of a pool of 24 trial point group operations.


The static configuration has the point symmetry D_3h.
 The point group associated with its full space group is D_6h.


Analysis of symmetry for dynamics (positions and initial velocities):
=====================================================================
 Subroutine PRICEL returns:
 Original cell was already a primitive cell.
 

 Routine SETGRP: Setting up the symmetry group for a 
 hexagonal supercell.


 Subroutine GETGRP returns: Found 24 space group operations
 (whereof 12 operations were pure point group operations)
 out of a pool of 24 trial point group operations.


The dynamic configuration has the point symmetry D_3h.
 The point group associated with its full space group is D_6h.


 Subroutine INISYM returns: Found 24 space group operations
 (whereof 12 operations are pure point group operations),
 and found     1 'primitive' translations

 
 
 KPOINTS: Automatic generation                    

Automatic generation of k-mesh.
Space group operators:
 irot       det(A)        alpha          n_x          n_y          n_z        tau_x        tau_y        tau_z
    1     1.000000     0.000000     1.000000     0.000000     0.000000     0.000000     0.000000     0.000000
    2    -1.000000    60.000000     0.000000     0.000000    -1.000000     0.000000     0.000000     0.000000
    3     1.000000   120.000000     0.000000     0.000000    -1.000000     0.000000     0.000000     0.000000
    4    -1.000000   180.000000     0.000000     0.000000     1.000000     0.000000     0.000000     0.000000
    5     1.000000   120.000000     0.000000     0.000000     1.000000     0.000000     0.000000     0.000000
    6    -1.000000    60.000000     0.000000     0.000000     1.000000     0.000000     0.000000     0.000000
    7    -1.000000   180.000000     1.000000    -0.000000     0.000000     0.000000     0.000000     0.000000
    8     1.000000   180.000000     0.866025    -0.500000     0.000000     0.000000     0.000000     0.000000
    9    -1.000000   179.999999     0.500000    -0.866025     0.000000     0.000000     0.000000     0.000000
   10     1.000000   180.000000     0.000000     1.000000     0.000000     0.000000     0.000000     0.000000
   11    -1.000000   180.000000    -0.500000    -0.866025     0.000000     0.000000     0.000000     0.000000
   12     1.000000   180.000000     0.866025     0.500000     0.000000     0.000000     0.000000     0.000000
   13    -1.000000     0.000000     1.000000     0.000000     0.000000     0.000000     0.000000     0.500000
   14     1.000000    60.000000     0.000000     0.000000    -1.000000     0.000000     0.000000     0.500000
   15    -1.000000   120.000000     0.000000     0.000000    -1.000000    -0.000000     0.000000     0.500000
   16     1.000000   180.000000     0.000000     0.000000     1.000000     0.000000     0.000000     0.500000
   17    -1.000000   120.000000     0.000000     0.000000     1.000000     0.000000     0.000000     0.500000
   18     1.000000    60.000000     0.000000     0.000000     1.000000    -0.000000     0.000000     0.500000
   19     1.000000   180.000000     1.000000    -0.000000     0.000000     0.000000     0.000000     0.500000
   20    -1.000000   180.000000     0.866025    -0.500000     0.000000     0.000000     0.000000     0.500000
   21     1.000000   179.999999     0.500000    -0.866025     0.000000    -0.000000     0.000000     0.500000
   22    -1.000000   180.000000     0.000000     1.000000     0.000000     0.000000     0.000000     0.500000
   23     1.000000   180.000000    -0.500000    -0.866025     0.000000     0.000000     0.000000     0.500000
   24    -1.000000   180.000000     0.866025     0.500000     0.000000    -0.000000     0.000000     0.500000
 
 Subroutine IBZKPT returns following result:
 ===========================================
 
 Found     56 irreducible k-points:
 
 Following reciprocal coordinates:
            Coordinates               Weight
  0.000000  0.000000  0.000000      1.000000
  0.100000  0.000000  0.000000      6.000000
  0.200000  0.000000  0.000000      6.000000
  0.300000 -0.000000  0.000000      6.000000
  0.400000  0.000000  0.000000      6.000000
  0.500000  0.000000  0.000000      3.000000
  0.100000  0.100000  0.000000      6.000000
  0.200000  0.100000  0.000000     12.000000
  0.300000  0.100000  0.000000     12.000000
  0.400000  0.100000  0.000000     12.000000
  0.200000  0.200000  0.000000      6.000000
  0.300000  0.200000  0.000000     12.000000
  0.400000  0.200000  0.000000      6.000000
  0.300000  0.300000  0.000000      6.000000
  0.000000  0.000000  0.166667      2.000000
  0.100000  0.000000  0.166667     12.000000
  0.200000  0.000000  0.166667     12.000000
  0.300000 -0.000000  0.166667     12.000000
  0.400000  0.000000  0.166667     12.000000
  0.500000  0.000000  0.166667      6.000000
  0.100000  0.100000  0.166667     12.000000
  0.200000  0.100000  0.166667     24.000000
  0.300000  0.100000  0.166667     24.000000
  0.400000  0.100000  0.166667     24.000000
  0.200000  0.200000  0.166667     12.000000
  0.300000  0.200000  0.166667     24.000000
  0.400000  0.200000  0.166667     12.000000
  0.300000  0.300000  0.166667     12.000000
  0.000000  0.000000  0.333333      2.000000
  0.100000  0.000000  0.333333     12.000000
  0.200000  0.000000  0.333333     12.000000
  0.300000 -0.000000  0.333333     12.000000
  0.400000  0.000000  0.333333     12.000000
  0.500000  0.000000  0.333333      6.000000
  0.100000  0.100000  0.333333     12.000000
  0.200000  0.100000  0.333333     24.000000
  0.300000  0.100000  0.333333     24.000000
  0.400000  0.100000  0.333333     24.000000
  0.200000  0.200000  0.333333     12.000000
  0.300000  0.200000  0.333333     24.000000
  0.400000  0.200000  0.333333     12.000000
  0.300000  0.300000  0.333333     12.000000
  0.000000  0.000000  0.500000      1.000000
  0.100000  0.000000  0.500000      6.000000
  0.200000  0.000000  0.500000      6.000000
  0.300000 -0.000000  0.500000      6.000000
  0.400000  0.000000  0.500000      6.000000
  0.500000  0.000000  0.500000      3.000000
  0.100000  0.100000  0.500000      6.000000
  0.200000  0.100000  0.500000     12.000000
  0.300000  0.100000  0.500000     12.000000
  0.400000  0.100000  0.500000     12.000000
  0.200000  0.200000  0.500000      6.000000
  0.300000  0.200000  0.500000     12.000000
  0.400000  0.200000  0.500000      6.000000
  0.300000  0.300000  0.500000      6.000000
 
 Following cartesian coordinates:
            Coordinates               Weight
  0.000000  0.000000  0.000000      1.000000
  0.032134  0.018552  0.000000      6.000000
  0.064267  0.037105  0.000000      6.000000
  0.096401  0.055657  0.000000      6.000000
  0.128535  0.074210  0.000000      6.000000
  0.160668  0.092762  0.000000      3.000000
  0.032134  0.055657  0.000000      6.000000
  0.064267  0.074210  0.000000     12.000000
  0.096401  0.092762  0.000000     12.000000
  0.128535  0.111314  0.000000     12.000000
  0.064267  0.111314  0.000000      6.000000
  0.096401  0.129867  0.000000     12.000000
  0.128535  0.148419  0.000000      6.000000
  0.096401  0.166971  0.000000      6.000000
  0.000000  0.000000  0.033454      2.000000
  0.032134  0.018552  0.033454     12.000000
  0.064267  0.037105  0.033454     12.000000
  0.096401  0.055657  0.033454     12.000000
  0.128535  0.074210  0.033454     12.000000
  0.160668  0.092762  0.033454      6.000000
  0.032134  0.055657  0.033454     12.000000
  0.064267  0.074210  0.033454     24.000000
  0.096401  0.092762  0.033454     24.000000
  0.128535  0.111314  0.033454     24.000000
  0.064267  0.111314  0.033454     12.000000
  0.096401  0.129867  0.033454     24.000000
  0.128535  0.148419  0.033454     12.000000
  0.096401  0.166971  0.033454     12.000000
  0.000000  0.000000  0.066908      2.000000
  0.032134  0.018552  0.066908     12.000000
  0.064267  0.037105  0.066908     12.000000
  0.096401  0.055657  0.066908     12.000000
  0.128535  0.074210  0.066908     12.000000
  0.160668  0.092762  0.066908      6.000000
  0.032134  0.055657  0.066908     12.000000
  0.064267  0.074210  0.066908     24.000000
  0.096401  0.092762  0.066908     24.000000
  0.128535  0.111314  0.066908     24.000000
  0.064267  0.111314  0.066908     12.000000
  0.096401  0.129867  0.066908     24.000000
  0.128535  0.148419  0.066908     12.000000
  0.096401  0.166971  0.066908     12.000000
  0.000000  0.000000  0.100361      1.000000
  0.032134  0.018552  0.100361      6.000000
  0.064267  0.037105  0.100361      6.000000
  0.096401  0.055657  0.100361      6.000000
  0.128535  0.074210  0.100361      6.000000
  0.160668  0.092762  0.100361      3.000000
  0.032134  0.055657  0.100361      6.000000
  0.064267  0.074210  0.100361     12.000000
  0.096401  0.092762  0.100361     12.000000
  0.128535  0.111314  0.100361     12.000000
  0.064267  0.111314  0.100361      6.000000
  0.096401  0.129867  0.100361     12.000000
  0.128535  0.148419  0.100361      6.000000
  0.096401  0.166971  0.100361      6.000000
 


--------------------------------------------------------------------------------------------------------




 Dimension of arrays:
   k-points           NKPTS =     56   k-points in BZ     NKDIM =     56   number of bands    NBANDS=      8
   number of dos      NEDOS =    301   number of ions     NIONS =      2
   non local maximal  LDIM  =      6   non local SUM 2l+1 LMDIM =     18
   total plane-waves  NPLWV =   4704
   max r-space proj   IRMAX =   1960   max aug-charges    IRDMAX=   4580
   dimension x,y,z NGX =    14 NGY =   14 NGZ =   24
   dimension x,y,z NGXF=    28 NGYF=   28 NGZF=   48
   support grid    NGXF=    28 NGYF=   28 NGZF=   48
   ions per type =               2
   NGX,Y,Z   is equivalent  to a cutoff of   7.48,  7.48,  8.01 a.u.
   NGXF,Y,Z  is equivalent  to a cutoff of  14.96, 14.96, 16.02 a.u.

 SYSTEM =  NiAl                                    
 POSCAR =  New structure                           

 Startparameter for this run:
   NWRITE =      2    write-flag & timer
   PREC   = normal    normal or accurate (medium, high low for compatibility)
   ISTART =      0    job   : 0-new  1-cont  2-samecut
   ICHARG =      2    charge: 1-file 2-atom 10-const
   ISPIN  =      1    spin polarized calculation?
   LNONCOLLINEAR =      F non collinear calculations
   LSORBIT =      F    spin-orbit coupling
   INIWAV =      1    electr: 0-lowe 1-rand  2-diag
   LASPH  =      F    aspherical Exc in radial PAW
   METAGGA=      F    non-selfconsistent MetaGGA calc.

 Electronic Relaxation 1
   ENCUT  =  300.0 eV  22.05 Ry    4.70 a.u.   4.39  4.39  7.04*2*pi/ulx,y,z
   ENINI  =  300.0     initial cutoff
   ENAUG  =  482.1 eV  augmentation charge cutoff
   NELM   =     60;   NELMIN=  6; NELMDL= -5     # of ELM steps 
   EDIFF  = 0.5E-05   stopping-criterion for ELM
   LREAL  =      T    real-space projection
   NLSPLINE    = F    spline interpolate recip. space projectors
   LCOMPAT=      F    compatible to vasp.4.4
   GGA_COMPAT  = T    GGA compatible to vasp.4.4-vasp.4.6
   LMAXPAW     = -100 max onsite density
   LMAXMIX     =    2 max onsite mixed and CHGCAR
   VOSKOWN=      0    Vosko Wilk Nusair interpolation
   ROPT   =   -0.00050
 Ionic relaxation
   EDIFFG = 0.5E-04   stopping-criterion for IOM
   NSW    =      0    number of steps for IOM
   NBLOCK =      1;   KBLOCK =      1    inner block; outer block 
   IBRION =     -1    ionic relax: 0-MD 1-quasi-New 2-CG
   NFREE  =      1    steps in history (QN), initial steepest desc. (CG)
   ISIF   =      6    stress and relaxation
   IWAVPR =     10    prediction:  0-non 1-charg 2-wave 3-comb
   ISYM   =      2    0-nonsym 1-usesym 2-fastsym
   LCORR  =      T    Harris-Foulkes like correction to forces

   POTIM  = 0.2000    time-step for ionic-motion
   TEIN   =    0.0    initial temperature
   TEBEG  =    0.0;   TEEND  =   0.0 temperature during run
   SMASS  =  -3.00    Nose mass-parameter (am)
   estimated Nose-frequenzy (Omega)   =  0.10E-29 period in steps =****** mass=  -0.221E-27a.u.
   SCALEE = 1.0000    scale energy and forces
   NPACO  =    256;   APACO  = 16.0  distance and # of slots for P.C.
   PSTRESS=    0.0 pullay stress

  Mass of Ions in am
   POMASS =  26.98
  Ionic Valenz
   ZVAL   =   3.00
  Atomic Wigner-Seitz radii
   RWIGS  =  -1.00
  virtual crystal weights 
   VCA    =   1.00
   NELECT =       6.0000    total number of electrons
   NUPDOWN=      -1.0000    fix difference up-down

 DOS related values:
   EMIN   =  10.00;   EMAX   =-10.00  energy-range for DOS
   EFERMI =   0.00
   ISMEAR =     0;   SIGMA  =   0.05  broadening in eV -4-tet -1-fermi 0-gaus

 Electronic relaxation 2 (details)
   IALGO  =     38    algorithm
   LDIAG  =      T    sub-space diagonalisation (order eigenvalues)
   LSUBROT=      F    optimize rotation matrix (better conditioning)
   TURBO    =      0    0=normal 1=particle mesh
   IRESTART =      0    0=no restart 2=restart with 2 vectors
   NREBOOT  =      0    no. of reboots
   NMIN     =      0    reboot dimension
   EREF     =   0.00    reference energy to select bands
   IMIX   =      4    mixing-type and parameters
     AMIX     =   0.40;   BMIX     =  1.00
     AMIX_MAG =   1.60;   BMIX_MAG =  1.00
     AMIN     =   0.10
     WC   =   100.;   INIMIX=   1;  MIXPRE=   1;  MAXMIX= -45

 Intra band minimization:
   WEIMIN = 0.0000     energy-eigenvalue tresh-hold
   EBREAK =  0.16E-06  absolut break condition
   DEPER  =   0.30     relativ break condition  

   TIME   =   0.40     timestep for ELM

  volume/ion in A,a.u.               =      20.89       140.99
  Fermi-wavevector in a.u.,A,eV,Ry     =   0.857276  1.620017  9.999226  0.734922
  Thomas-Fermi vector in A             =   1.974305
 
 Write flags
   LWAVE        =      F    write WAVECAR
   LDOWNSAMPLE  =      F    k-point downsampling of WAVECAR
   LCHARG       =      F    write CHGCAR
   LVTOT        =      F    write LOCPOT, total local potential
   LVHAR        =      F    write LOCPOT, Hartree potential only
   LELF         =      F    write electronic localiz. function (ELF)
   LORBIT       =      0    0 simple, 1 ext, 2 COOP (PROOUT), +10 PAW based schemes


 Dipole corrections
   LMONO  =      F    monopole corrections only (constant potential shift)
   LDIPOL =      F    correct potential (dipole corrections)
   IDIPOL =      0    1-x, 2-y, 3-z, 4-all directions 
   EPSILON=  1.0000000 bulk dielectric constant

 Exchange correlation treatment:
   GGA     =    --    GGA type
   LEXCH   =     8    internal setting for exchange type
   VOSKOWN=      0    Vosko Wilk Nusair interpolation
   LHFCALC =     F    Hartree Fock is set to
   LHFONE  =     F    Hartree Fock one center treatment
   AEXX    =    0.0000 exact exchange contribution

 Linear response parameters
   LEPSILON=     F    determine dielectric tensor
   LRPA    =     F    only Hartree local field effects (RPA)
   LNABLA  =     F    use nabla operator in PAW spheres
   LVEL    =     F    velocity operator in full k-point grid
   LINTERFAST=   F  fast interpolation
   KINTER  =     0    interpolate to denser k-point grid
   CSHIFT  =0.1000    complex shift for real part using Kramers Kronig
   OMEGAMAX=  -1.0    maximum frequency
   DEG_THRESHOLD= 0.2000000E-02 threshold for treating states as degnerate
   RTIME   =   -0.100 relaxation time in fs
  (WPLASMAI=    0.000 imaginary part of plasma frequency in eV, 0.658/RTIME)
   DFIELD  = 0.0000000 0.0000000 0.0000000 field for delta impulse in time
 
 Orbital magnetization related:
   ORBITALMAG=     F  switch on orbital magnetization
   LCHIMAG   =     F  perturbation theory with respect to B field
   DQ        =  0.001000  dq finite difference perturbation B field
   LLRAUG    =     F  two centre corrections for induced B field



--------------------------------------------------------------------------------------------------------


 Static calculation
 charge density and potential will be updated during run
 non-spin polarized calculation
 Variant of blocked Davidson
 Davidson routine will perform the subspace rotation
 perform sub-space diagonalisation
    after iterative eigenvector-optimisation
 modified Broyden-mixing scheme, WC =      100.0
 initial mixing is a Kerker type mixing with AMIX =  0.4000 and BMIX =      1.0000
 Hartree-type preconditioning will be used
 using additional bands            5
 real space projection scheme for non local part
 use partial core corrections
 calculate Harris-corrections to forces 
   (improved forces if not selfconsistent)
 use gradient corrections 
 use of overlap-Matrix (Vanderbilt PP)
 Gauss-broadening in eV      SIGMA  =   0.05


--------------------------------------------------------------------------------------------------------


  energy-cutoff  :      300.00
  volume of cell :       41.78
      direct lattice vectors                 reciprocal lattice vectors
     3.112000000  0.000000000  0.000000000     0.321336761  0.185523865  0.000000000
    -1.556000000  2.695071057  0.000000000     0.000000000  0.371047731  0.000000000
     0.000000000  0.000000000  4.982000000     0.000000000  0.000000000  0.200722601

  length of vectors
     3.112000000  3.112000000  4.982000000     0.371047731  0.371047731  0.200722601


 
 k-points in units of 2pi/SCALE and weight: Automatic generation                    
   0.00000000  0.00000000  0.00000000       0.002
   0.03213368  0.01855239  0.00000000       0.010
   0.06426735  0.03710477  0.00000000       0.010
   0.09640103  0.05565716  0.00000000       0.010
   0.12853470  0.07420955  0.00000000       0.010
   0.16066838  0.09276193  0.00000000       0.005
   0.03213368  0.05565716  0.00000000       0.010
   0.06426735  0.07420955  0.00000000       0.020
   0.09640103  0.09276193  0.00000000       0.020
   0.12853470  0.11131432  0.00000000       0.020
   0.06426735  0.11131432  0.00000000       0.010
   0.09640103  0.12986671  0.00000000       0.020
   0.12853470  0.14841909  0.00000000       0.010
   0.09640103  0.16697148  0.00000000       0.010
   0.00000000  0.00000000  0.03345377       0.003
   0.03213368  0.01855239  0.03345377       0.020
   0.06426735  0.03710477  0.03345377       0.020
   0.09640103  0.05565716  0.03345377       0.020
   0.12853470  0.07420955  0.03345377       0.020
   0.16066838  0.09276193  0.03345377       0.010
   0.03213368  0.05565716  0.03345377       0.020
   0.06426735  0.07420955  0.03345377       0.040
   0.09640103  0.09276193  0.03345377       0.040
   0.12853470  0.11131432  0.03345377       0.040
   0.06426735  0.11131432  0.03345377       0.020
   0.09640103  0.12986671  0.03345377       0.040
   0.12853470  0.14841909  0.03345377       0.020
   0.09640103  0.16697148  0.03345377       0.020
   0.00000000  0.00000000  0.06690753       0.003
   0.03213368  0.01855239  0.06690753       0.020
   0.06426735  0.03710477  0.06690753       0.020
   0.09640103  0.05565716  0.06690753       0.020
   0.12853470  0.07420955  0.06690753       0.020
   0.16066838  0.09276193  0.06690753       0.010
   0.03213368  0.05565716  0.06690753       0.020
   0.06426735  0.07420955  0.06690753       0.040
   0.09640103  0.09276193  0.06690753       0.040
   0.12853470  0.11131432  0.06690753       0.040
   0.06426735  0.11131432  0.06690753       0.020
   0.09640103  0.12986671  0.06690753       0.040
   0.12853470  0.14841909  0.06690753       0.020
   0.09640103  0.16697148  0.06690753       0.020
   0.00000000  0.00000000  0.10036130       0.002
   0.03213368  0.01855239  0.10036130       0.010
   0.06426735  0.03710477  0.10036130       0.010
   0.09640103  0.05565716  0.10036130       0.010
   0.12853470  0.07420955  0.10036130       0.010
   0.16066838  0.09276193  0.10036130       0.005
   0.03213368  0.05565716  0.10036130       0.010
   0.06426735  0.07420955  0.10036130       0.020
   0.09640103  0.09276193  0.10036130       0.020
   0.12853470  0.11131432  0.10036130       0.020
   0.06426735  0.11131432  0.10036130       0.010
   0.09640103  0.12986671  0.10036130       0.020
   0.12853470  0.14841909  0.10036130       0.010
   0.09640103  0.16697148  0.10036130       0.010
 
 k-points in reciprocal lattice and weights: Automatic generation                    
   0.00000000  0.00000000  0.00000000       0.002
   0.10000000  0.00000000  0.00000000       0.010
   0.20000000  0.00000000  0.00000000       0.010
   0.30000000 -0.00000000  0.00000000       0.010
   0.40000000  0.00000000  0.00000000       0.010
   0.50000000  0.00000000  0.00000000       0.005
   0.10000000  0.10000000  0.00000000       0.010
   0.20000000  0.10000000  0.00000000       0.020
   0.30000000  0.10000000  0.00000000       0.020
   0.40000000  0.10000000  0.00000000       0.020
   0.20000000  0.20000000  0.00000000       0.010
   0.30000000  0.20000000  0.00000000       0.020
   0.40000000  0.20000000  0.00000000       0.010
   0.30000000  0.30000000  0.00000000       0.010
   0.00000000  0.00000000  0.16666667       0.003
   0.10000000  0.00000000  0.16666667       0.020
   0.20000000  0.00000000  0.16666667       0.020
   0.30000000 -0.00000000  0.16666667       0.020
   0.40000000  0.00000000  0.16666667       0.020
   0.50000000  0.00000000  0.16666667       0.010
   0.10000000  0.10000000  0.16666667       0.020
   0.20000000  0.10000000  0.16666667       0.040
   0.30000000  0.10000000  0.16666667       0.040
   0.40000000  0.10000000  0.16666667       0.040
   0.20000000  0.20000000  0.16666667       0.020
   0.30000000  0.20000000  0.16666667       0.040
   0.40000000  0.20000000  0.16666667       0.020
   0.30000000  0.30000000  0.16666667       0.020
   0.00000000  0.00000000  0.33333333       0.003
   0.10000000  0.00000000  0.33333333       0.020
   0.20000000  0.00000000  0.33333333       0.020
   0.30000000 -0.00000000  0.33333333       0.020
   0.40000000  0.00000000  0.33333333       0.020
   0.50000000  0.00000000  0.33333333       0.010
   0.10000000  0.10000000  0.33333333       0.020
   0.20000000  0.10000000  0.33333333       0.040
   0.30000000  0.10000000  0.33333333       0.040
   0.40000000  0.10000000  0.33333333       0.040
   0.20000000  0.20000000  0.33333333       0.020
   0.30000000  0.20000000  0.33333333       0.040
   0.40000000  0.20000000  0.33333333       0.020
   0.30000000  0.30000000  0.33333333       0.020
   0.00000000  0.00000000  0.50000000       0.002
   0.10000000  0.00000000  0.50000000       0.010
   0.20000000  0.00000000  0.50000000       0.010
   0.30000000 -0.00000000  0.50000000       0.010
   0.40000000  0.00000000  0.50000000       0.010
   0.50000000  0.00000000  0.50000000       0.005
   0.10000000  0.10000000  0.50000000       0.010
   0.20000000  0.10000000  0.50000000       0.020
   0.30000000  0.10000000  0.50000000       0.020
   0.40000000  0.10000000  0.50000000       0.020
   0.20000000  0.20000000  0.50000000       0.010
   0.30000000  0.20000000  0.50000000       0.020
   0.40000000  0.20000000  0.50000000       0.010
   0.30000000  0.30000000  0.50000000       0.010
 
 position of ions in fractional coordinates (direct lattice) 
   0.33333333  0.66666667  0.00000000
   0.66666667  0.33333333  0.50000000
 
 position of ions in cartesian coordinates  (Angst):
   0.00000000  1.79671404  0.00000000
   1.55600000  0.89835702  2.49100000
 


--------------------------------------------------------------------------------------------------------


 k-point  1 :   0.0000 0.0000 0.0000  plane waves:     513
 k-point  2 :   0.1000 0.0000 0.0000  plane waves:     507
 k-point  3 :   0.2000 0.0000 0.0000  plane waves:     498
 k-point  4 :   0.3000-0.0000 0.0000  plane waves:     484
 k-point  5 :   0.4000 0.0000 0.0000  plane waves:     484
 k-point  6 :   0.5000 0.0000 0.0000  plane waves:     484
 k-point  7 :   0.1000 0.1000 0.0000  plane waves:     495
 k-point  8 :   0.2000 0.1000 0.0000  plane waves:     496
 k-point  9 :   0.3000 0.1000 0.0000  plane waves:     495
 k-point 10 :   0.4000 0.1000 0.0000  plane waves:     482
 k-point 11 :   0.2000 0.2000 0.0000  plane waves:     488
 k-point 12 :   0.3000 0.2000 0.0000  plane waves:     488
 k-point 13 :   0.4000 0.2000 0.0000  plane waves:     484
 k-point 14 :   0.3000 0.3000 0.0000  plane waves:     486
 k-point 15 :   0.0000 0.0000 0.1667  plane waves:     512
 k-point 16 :   0.1000 0.0000 0.1667  plane waves:     506
 k-point 17 :   0.2000 0.0000 0.1667  plane waves:     496
 k-point 18 :   0.3000-0.0000 0.1667  plane waves:     489
 k-point 19 :   0.4000 0.0000 0.1667  plane waves:     484
 k-point 20 :   0.5000 0.0000 0.1667  plane waves:     486
 k-point 21 :   0.1000 0.1000 0.1667  plane waves:     502
 k-point 22 :   0.2000 0.1000 0.1667  plane waves:     495
 k-point 23 :   0.3000 0.1000 0.1667  plane waves:     491
 k-point 24 :   0.4000 0.1000 0.1667  plane waves:     488
 k-point 25 :   0.2000 0.2000 0.1667  plane waves:     493
 k-point 26 :   0.3000 0.2000 0.1667  plane waves:     491
 k-point 27 :   0.4000 0.2000 0.1667  plane waves:     489
 k-point 28 :   0.3000 0.3000 0.1667  plane waves:     493
 k-point 29 :   0.0000 0.0000 0.3333  plane waves:     494
 k-point 30 :   0.1000 0.0000 0.3333  plane waves:     503
 k-point 31 :   0.2000 0.0000 0.3333  plane waves:     501
 k-point 32 :   0.3000-0.0000 0.3333  plane waves:     492
 k-point 33 :   0.4000 0.0000 0.3333  plane waves:     491
 k-point 34 :   0.5000 0.0000 0.3333  plane waves:     490
 k-point 35 :   0.1000 0.1000 0.3333  plane waves:     502
 k-point 36 :   0.2000 0.1000 0.3333  plane waves:     494
 k-point 37 :   0.3000 0.1000 0.3333  plane waves:     491
 k-point 38 :   0.4000 0.1000 0.3333  plane waves:     487
 k-point 39 :   0.2000 0.2000 0.3333  plane waves:     489
 k-point 40 :   0.3000 0.2000 0.3333  plane waves:     494
 k-point 41 :   0.4000 0.2000 0.3333  plane waves:     495
 k-point 42 :   0.3000 0.3000 0.3333  plane waves:     493
 k-point 43 :   0.0000 0.0000 0.5000  plane waves:     494
 k-point 44 :   0.1000 0.0000 0.5000  plane waves:     504
 k-point 45 :   0.2000 0.0000 0.5000  plane waves:     500
 k-point 46 :   0.3000-0.0000 0.5000  plane waves:     496
 k-point 47 :   0.4000 0.0000 0.5000  plane waves:     492
 k-point 48 :   0.5000 0.0000 0.5000  plane waves:     500
 k-point 49 :   0.1000 0.1000 0.5000  plane waves:     498
 k-point 50 :   0.2000 0.1000 0.5000  plane waves:     490
 k-point 51 :   0.3000 0.1000 0.5000  plane waves:     492
 k-point 52 :   0.4000 0.1000 0.5000  plane waves:     492
 k-point 53 :   0.2000 0.2000 0.5000  plane waves:     496
 k-point 54 :   0.3000 0.2000 0.5000  plane waves:     492
 k-point 55 :   0.4000 0.2000 0.5000  plane waves:     484
 k-point 56 :   0.3000 0.3000 0.5000  plane waves:     488

 maximum and minimum number of plane-waves per node :       513      482

 maximum number of plane-waves:       513
 maximum index in each direction: 
   IXMAX=    4   IYMAX=    4   IZMAX=    7
   IXMIN=   -4   IYMIN=   -4   IZMIN=   -7


 serial   3D FFT for wavefunctions
 parallel 3D FFT for charge:
    minimum data exchange during FFTs selected (reduces bandwidth)


 total amount of memory used by VASP MPI-rank0    32679. kBytes
=======================================================================

   base      :      30000. kBytes
   nonlr-proj:        658. kBytes
   fftplans  :        346. kBytes
   grid      :        655. kBytes
   one-center:         31. kBytes
   wavefun   :        989. kBytes
 
     INWAV:  cpu time    0.0000: real time    0.0000
 Broyden mixing: mesh for mixing (old mesh)
   NGX =  9   NGY =  9   NGZ = 15
  (NGX  = 28   NGY  = 28   NGZ  = 48)
  gives a total of   1215 points

 initial charge density was supplied:
 charge density of overlapping atoms calculated
 number of electron       6.0000000 magnetization 
 keeping initial charge density in first step


--------------------------------------------------------------------------------------------------------


 Maximum index for non-local projection operator         1872
 Maximum index for augmentation-charges         1052 (set IRDMAX)


--------------------------------------------------------------------------------------------------------


 First call to EWALD:  gamma=   0.511
 Maximum number of real-space cells 3x 3x 2
 Maximum number of reciprocal cells 3x 3x 4

    FEWALD:  cpu time    0.0016: real time    0.0016


--------------------------------------- Iteration      1(   1)  ---------------------------------------


    POTLOK:  cpu time    0.0082: real time    0.0091
    SETDIJ:  cpu time    0.0030: real time    0.0030
     EDDAV:  cpu time    0.1883: real time    0.2038
       DOS:  cpu time    0.0006: real time    0.0006
    --------------------------------------------
      LOOP:  cpu time    0.2001: real time    0.2165

 eigenvalue-minimisations  :   896
 total energy-change (2. order) :-0.2757253E+01  (-0.1665881E+03)
 number of electron       6.0000000 magnetization 
 augmentation part        6.0000000 magnetization 

 Free energy of the ion-electron system (eV)
  ---------------------------------------------------
  alpha Z        PSCENC =         5.71528798
  Ewald energy   TEWEN  =      -135.89363615
  -Hartree energ DENC   =        -0.51957906
  -exchange      EXHF   =         0.00000000
  -V(xc)+E(xc)   XCENC  =       -53.28596619
  PAW double counting   =       132.40031435      -68.49124152
  entropy T*S    EENTRO =        -0.00138160
  eigenvalues    EBANDS =        10.24370148
  atomic energy  EATOM  =       107.07524800
  Solvation  Ediel_sol  =         0.00000000
  ---------------------------------------------------
  free energy    TOTEN  =        -2.75725269 eV

  energy without entropy =       -2.75587109  energy(sigma->0) =       -2.75656189


--------------------------------------------------------------------------------------------------------




--------------------------------------- Iteration      1(   2)  ---------------------------------------


     EDDAV:  cpu time    0.2685: real time    0.2756
       DOS:  cpu time    0.0006: real time    0.0006
    --------------------------------------------
      LOOP:  cpu time    0.2691: real time    0.2762

 eigenvalue-minimisations  :  1312
 total energy-change (2. order) :-0.4350492E+01  (-0.4243393E+01)
 number of electron       6.0000000 magnetization 
 augmentation part        6.0000000 magnetization 

 Free energy of the ion-electron system (eV)
  ---------------------------------------------------
  alpha Z        PSCENC =         5.71528798
  Ewald energy   TEWEN  =      -135.89363615
  -Hartree energ DENC   =        -0.51957906
  -exchange      EXHF   =         0.00000000
  -V(xc)+E(xc)   XCENC  =       -53.28596619
  PAW double counting   =       132.40031435      -68.49124152
  entropy T*S    EENTRO =        -0.00119270
  eigenvalues    EBANDS =         5.89302020
  atomic energy  EATOM  =       107.07524800
  Solvation  Ediel_sol  =         0.00000000
  ---------------------------------------------------
  free energy    TOTEN  =        -7.10774507 eV

  energy without entropy =       -7.10655236  energy(sigma->0) =       -7.10714871


--------------------------------------------------------------------------------------------------------




--------------------------------------- Iteration      1(   3)  ---------------------------------------


     EDDAV:  cpu time    0.2324: real time    0.2457
       DOS:  cpu time    0.0006: real time    0.0006
    --------------------------------------------
      LOOP:  cpu time    0.2330: real time    0.2463

 eigenvalue-minimisations  :  1136
 total energy-change (2. order) :-0.3511404E-01  (-0.3486181E-01)
 number of electron       6.0000000 magnetization 
 augmentation part        6.0000000 magnetization 

 Free energy of the ion-electron system (eV)
  ---------------------------------------------------
  alpha Z        PSCENC =         5.71528798
  Ewald energy   TEWEN  =      -135.89363615
  -Hartree energ DENC   =        -0.51957906
  -exchange      EXHF   =         0.00000000
  -V(xc)+E(xc)   XCENC  =       -53.28596619
  PAW double counting   =       132.40031435      -68.49124152
  entropy T*S    EENTRO =        -0.00140137
  eigenvalues    EBANDS =         5.85811483
  atomic energy  EATOM  =       107.07524800
  Solvation  Ediel_sol  =         0.00000000
  ---------------------------------------------------
  free energy    TOTEN  =        -7.14285910 eV

  energy without entropy =       -7.14145774  energy(sigma->0) =       -7.14215842


--------------------------------------------------------------------------------------------------------




--------------------------------------- Iteration      1(   4)  ---------------------------------------


     EDDAV:  cpu time    0.2851: real time    0.2854
       DOS:  cpu time    0.0006: real time    0.0006
    --------------------------------------------
      LOOP:  cpu time    0.2857: real time    0.2860

 eigenvalue-minimisations  :  1416
 total energy-change (2. order) :-0.2115538E-03  (-0.2115524E-03)
 number of electron       6.0000000 magnetization 
 augmentation part        6.0000000 magnetization 

 Free energy of the ion-electron system (eV)
  ---------------------------------------------------
  alpha Z        PSCENC =         5.71528798
  Ewald energy   TEWEN  =      -135.89363615
  -Hartree energ DENC   =        -0.51957906
  -exchange      EXHF   =         0.00000000
  -V(xc)+E(xc)   XCENC  =       -53.28596619
  PAW double counting   =       132.40031435      -68.49124152
  entropy T*S    EENTRO =        -0.00140194
  eigenvalues    EBANDS =         5.85790385
  atomic energy  EATOM  =       107.07524800
  Solvation  Ediel_sol  =         0.00000000
  ---------------------------------------------------
  free energy    TOTEN  =        -7.14307066 eV

  energy without entropy =       -7.14166871  energy(sigma->0) =       -7.14236969


--------------------------------------------------------------------------------------------------------




--------------------------------------- Iteration      1(   5)  ---------------------------------------


     EDDAV:  cpu time    0.2460: real time    0.2463
       DOS:  cpu time    0.0006: real time    0.0006
    CHARGE:  cpu time    0.0066: real time    0.0066
    MIXING:  cpu time    0.0004: real time    0.0004
    --------------------------------------------
      LOOP:  cpu time    0.2536: real time    0.2539

 eigenvalue-minimisations  :  1176
 total energy-change (2. order) :-0.1610483E-06  (-0.1617966E-06)
 number of electron       5.9999999 magnetization 
 augmentation part       -0.0896796 magnetization 

 Broyden mixing:
  rms(total) = 0.11739E+00    rms(broyden)= 0.11739E+00
  rms(prec ) = 0.25288E+00
  weight for this iteration     100.00

 Free energy of the ion-electron system (eV)
  ---------------------------------------------------
  alpha Z        PSCENC =         5.71528798
  Ewald energy   TEWEN  =      -135.89363615
  -Hartree energ DENC   =        -0.51957906
  -exchange      EXHF   =         0.00000000
  -V(xc)+E(xc)   XCENC  =       -53.28596619
  PAW double counting   =       132.40031435      -68.49124152
  entropy T*S    EENTRO =        -0.00140194
  eigenvalues    EBANDS =         5.85790369
  atomic energy  EATOM  =       107.07524800
  Solvation  Ediel_sol  =         0.00000000
  ---------------------------------------------------
  free energy    TOTEN  =        -7.14307082 eV

  energy without entropy =       -7.14166888  energy(sigma->0) =       -7.14236985


--------------------------------------------------------------------------------------------------------




--------------------------------------- Iteration      1(   6)  ---------------------------------------


    POTLOK:  cpu time    0.0067: real time    0.0070
    SETDIJ:  cpu time    0.0030: real time    0.0030
     EDDAV:  cpu time    0.2376: real time    0.2377
       DOS:  cpu time    0.0006: real time    0.0006
    CHARGE:  cpu time    0.0069: real time    0.0069
    MIXING:  cpu time    0.0015: real time    0.0596
    --------------------------------------------
      LOOP:  cpu time    0.2564: real time    0.3149

 eigenvalue-minimisations  :  1192
 total energy-change (2. order) : 0.2538596E-01  (-0.5878970E-03)
 number of electron       5.9999999 magnetization 
 augmentation part       -0.0908249 magnetization 

 Broyden mixing:
  rms(total) = 0.72401E-01    rms(broyden)= 0.72401E-01
  rms(prec ) = 0.15678E+00
  weight for this iteration     100.00

 eigenvalues of (default mixing * dielectric matrix)
  average eigenvalue GAMMA=   2.6015
  2.6015

 Free energy of the ion-electron system (eV)
  ---------------------------------------------------
  alpha Z        PSCENC =         5.71528798
  Ewald energy   TEWEN  =      -135.89363615
  -Hartree energ DENC   =        -0.38995411
  -exchange      EXHF   =         0.00000000
  -V(xc)+E(xc)   XCENC  =       -53.25360895
  PAW double counting   =       137.36893828      -73.44574238
  entropy T*S    EENTRO =        -0.00141659
  eigenvalues    EBANDS =         5.70719905
  atomic energy  EATOM  =       107.07524800
  Solvation  Ediel_sol  =         0.00000000
  ---------------------------------------------------
  free energy    TOTEN  =        -7.11768486 eV

  energy without entropy =       -7.11626827  energy(sigma->0) =       -7.11697656


--------------------------------------------------------------------------------------------------------




--------------------------------------- Iteration      1(   7)  ---------------------------------------


    POTLOK:  cpu time    0.0069: real time    0.0071
    SETDIJ:  cpu time    0.0030: real time    0.0030
     EDDAV:  cpu time    0.2262: real time    0.2263
       DOS:  cpu time    0.0006: real time    0.0006
    CHARGE:  cpu time    0.0064: real time    0.0064
    MIXING:  cpu time    0.0009: real time    0.0276
    --------------------------------------------
      LOOP:  cpu time    0.2438: real time    0.2709

 eigenvalue-minimisations  :  1104
 total energy-change (2. order) : 0.1765342E-01  (-0.1743006E-02)
 number of electron       5.9999999 magnetization 
 augmentation part       -0.0928301 magnetization 

 Broyden mixing:
  rms(total) = 0.26922E-02    rms(broyden)= 0.26914E-02
  rms(prec ) = 0.36979E-02
  weight for this iteration     100.00

 eigenvalues of (default mixing * dielectric matrix)
  average eigenvalue GAMMA=   2.4950
  2.4950  2.4950

 Free energy of the ion-electron system (eV)
  ---------------------------------------------------
  alpha Z        PSCENC =         5.71528798
  Ewald energy   TEWEN  =      -135.89363615
  -Hartree energ DENC   =        -0.25960118
  -exchange      EXHF   =         0.00000000
  -V(xc)+E(xc)   XCENC  =       -53.17732077
  PAW double counting   =       146.11822121      -82.17794256
  entropy T*S    EENTRO =        -0.00146553
  eigenvalues    EBANDS =         5.50117755
  atomic energy  EATOM  =       107.07524800
  Solvation  Ediel_sol  =         0.00000000
  ---------------------------------------------------
  free energy    TOTEN  =        -7.10003144 eV

  energy without entropy =       -7.09856590  energy(sigma->0) =       -7.09929867


--------------------------------------------------------------------------------------------------------




--------------------------------------- Iteration      1(   8)  ---------------------------------------


    POTLOK:  cpu time    0.0069: real time    0.0071
    SETDIJ:  cpu time    0.0030: real time    0.0030
     EDDAV:  cpu time    0.2549: real time    0.2550
       DOS:  cpu time    0.0006: real time    0.0006
    CHARGE:  cpu time    0.0070: real time    0.0070
    MIXING:  cpu time    0.0006: real time    0.0037
    --------------------------------------------
      LOOP:  cpu time    0.2730: real time    0.2764

 eigenvalue-minimisations  :  1248
 total energy-change (2. order) : 0.3182626E-04  (-0.4460543E-05)
 number of electron       5.9999999 magnetization 
 augmentation part       -0.0927959 magnetization 

 Broyden mixing:
  rms(total) = 0.85642E-03    rms(broyden)= 0.85634E-03
  rms(prec ) = 0.15621E-02
  weight for this iteration     100.00

 eigenvalues of (default mixing * dielectric matrix)
  average eigenvalue GAMMA=   2.0661
  0.9946  2.7173  2.4864

 Free energy of the ion-electron system (eV)
  ---------------------------------------------------
  alpha Z        PSCENC =         5.71528798
  Ewald energy   TEWEN  =      -135.89363615
  -Hartree energ DENC   =        -0.26234072
  -exchange      EXHF   =         0.00000000
  -V(xc)+E(xc)   XCENC  =       -53.17583304
  PAW double counting   =       146.31089502      -82.37723247
  entropy T*S    EENTRO =        -0.00146527
  eigenvalues    EBANDS =         5.50907703
  atomic energy  EATOM  =       107.07524800
  Solvation  Ediel_sol  =         0.00000000
  ---------------------------------------------------
  free energy    TOTEN  =        -7.09999961 eV

  energy without entropy =       -7.09853434  energy(sigma->0) =       -7.09926698


--------------------------------------------------------------------------------------------------------




--------------------------------------- Iteration      1(   9)  ---------------------------------------


    POTLOK:  cpu time    0.0073: real time    0.0074
    SETDIJ:  cpu time    0.0031: real time    0.0031
     EDDAV:  cpu time    0.2392: real time    0.2392
       DOS:  cpu time    0.0007: real time    0.0007
    --------------------------------------------
      LOOP:  cpu time    0.2503: real time    0.2504

 eigenvalue-minimisations  :  1072
 total energy-change (2. order) : 0.9172571E-06  (-0.8199571E-07)
 number of electron       5.9999999 magnetization 
 augmentation part       -0.0927959 magnetization 

 Free energy of the ion-electron system (eV)
  ---------------------------------------------------
  alpha Z        PSCENC =         5.71528798
  Ewald energy   TEWEN  =      -135.89363615
  -Hartree energ DENC   =        -0.26260512
  -exchange      EXHF   =         0.00000000
  -V(xc)+E(xc)   XCENC  =       -53.17392916
  PAW double counting   =       146.48625504      -82.55544325
  entropy T*S    EENTRO =        -0.00146595
  eigenvalues    EBANDS =         5.51028991
  atomic energy  EATOM  =       107.07524800
  Solvation  Ediel_sol  =         0.00000000
  ---------------------------------------------------
  free energy    TOTEN  =        -7.09999869 eV

  energy without entropy =       -7.09853274  energy(sigma->0) =       -7.09926572


--------------------------------------------------------------------------------------------------------




 average (electrostatic) potential at core
  the test charge radii are     1.0406
  (the norm of the test charge is              1.0000)
       1 -53.4923       2 -53.4923
 
 
 
 E-fermi :   4.8232     XC(G=0):  -9.3711     alpha+bet :-10.7605


 k-point     1 :       0.0000    0.0000    0.0000
  band No.  band energies     occupation 
      1      -4.8663      2.00000
      2       0.8621      2.00000
      3       1.1345      2.00000
      4      13.1637      0.00000
      5      13.1637      0.00000
      6      14.1667      0.00000
      7      14.1667      0.00000
      8      15.8905      0.00000

 k-point     2 :       0.1000    0.0000    0.0000
  band No.  band energies     occupation 
      1      -4.6630      2.00000
      2       1.0640      2.00000
      3       1.3255      2.00000
      4      10.7760      0.00000
      5      11.9876      0.00000
      6      13.5153      0.00000
      7      15.5263      0.00000
      8      15.6716      0.00000

 k-point     3 :       0.2000    0.0000    0.0000
  band No.  band energies     occupation 
      1      -4.0548      2.00000
      2       1.6674      2.00000
      3       1.8975      2.00000
      4       7.6999      0.00000
      5      10.7603      0.00000
      6      12.3533      0.00000
      7      12.9287      0.00000
      8      13.2190      0.00000

 k-point     4 :       0.3000   -0.0000    0.0000
  band No.  band energies     occupation 
      1      -3.0465      2.00000
      2       2.6613      2.00000
      3       2.8464      2.00000
      4       4.8615      0.27837
      5       9.8688      0.00000
      6      10.2803      0.00000
      7      10.5272      0.00000
      8      11.4402      0.00000

 k-point     5 :       0.4000    0.0000    0.0000
  band No.  band energies     occupation 
      1      -1.6492      2.00000
      2       2.3325      2.00000
      3       4.0564      2.00000
      4       4.1510      2.00000
      5       7.8887      0.00000
      6       8.1293      0.00000
      7       9.3319      0.00000
      8      10.8703      0.00000

 k-point     6 :       0.5000    0.0000    0.0000
  band No.  band energies     occupation 
      1      -0.0977      2.00000
      2       0.4128      2.00000
      3       5.3923      0.00000
      4       5.6765      0.00000
      5       5.9223      0.00000
      6       6.5187      0.00000
      7       9.1527      0.00000
      8      10.6774      0.00000

 k-point     7 :       0.1000    0.1000    0.0000
  band No.  band energies     occupation 
      1      -4.2572      2.00000
      2       1.4668      2.00000
      3       1.7071      2.00000
      4       9.1706      0.00000
      5       9.5644      0.00000
      6      14.2395      0.00000
      7      14.2931      0.00000
      8      14.3481      0.00000

 k-point     8 :       0.2000    0.1000    0.0000
  band No.  band energies     occupation 
      1      -3.4489      2.00000
      2       2.2661      2.00000
      3       2.4679      2.00000
      4       6.3727      0.00000
      5       8.2821      0.00000
      6      11.7137      0.00000
      7      11.8741      0.00000
      8      13.3796      0.00000

 k-point     9 :       0.3000    0.1000    0.0000
  band No.  band energies     occupation 
      1      -2.2451      2.00000
      2       3.4022      2.00000
      3       3.5990      2.00000
      4       3.7516      2.00000
      5       7.5196      0.00000
      6       9.2029      0.00000
      7       9.3870      0.00000
      8      12.7038      0.00000

 k-point    10 :       0.4000    0.1000    0.0000
  band No.  band energies     occupation 
      1      -0.6684      2.00000
      2       1.3701      2.00000
      3       5.0185      0.00000
      4       5.0336      0.00000
      5       6.8886      0.00000
      6       7.2231      0.00000
      7       7.2361      0.00000
      8      12.3608      0.00000

 k-point    11 :       0.2000    0.2000    0.0000
  band No.  band energies     occupation 
      1      -2.4445      2.00000
      2       3.2493      2.00000
      3       3.4130      2.00000
      4       5.2307      0.00000
      5       5.6649      0.00000
      6      10.4648      0.00000
      7      10.7113      0.00000
      8      10.9533      0.00000

 k-point    12 :       0.3000    0.2000    0.0000
  band No.  band energies     occupation 
      1      -1.0526      2.00000
      2       2.8950      2.00000
      3       4.6027      2.00000
      4       4.7108      1.99852
      5       4.9385      0.00111
      6       8.4590      0.00000
      7       8.5319      0.00000
      8      10.3050      0.00000

 k-point    13 :       0.4000    0.2000    0.0000
  band No.  band energies     occupation 
      1       0.5024      2.00000
      2       0.9832      2.00000
      3       4.6783      1.99996
      4       5.9589      0.00000
      5       6.2400      0.00000
      6       6.5403      0.00000
      7       6.9852      0.00000
      8      10.1213      0.00000

 k-point    14 :       0.3000    0.3000    0.0000
  band No.  band energies     occupation 
      1       0.5066      2.00000
      2       2.2835      2.00000
      3       2.8207      2.00000
      4       6.1123      0.00000
      5       6.1777      0.00000
      6       7.6558      0.00000
      7       7.9672      0.00000
      8       8.2388      0.00000

 k-point    15 :       0.0000    0.0000    0.1667
  band No.  band energies     occupation 
      1      -4.7007      2.00000
      2      -0.7772      2.00000
      3       3.0716      2.00000
      4      13.3020      0.00000
      5      13.3020      0.00000
      6      13.7430      0.00000
      7      14.3061      0.00000
      8      14.3062      0.00000

 k-point    16 :       0.1000    0.0000    0.1667
  band No.  band energies     occupation 
      1      -4.4976      2.00000
      2      -0.5782      2.00000
      3       3.2648      2.00000
      4      10.9167      0.00000
      5      12.1313      0.00000
      6      13.3704      0.00000
      7      14.3168      0.00000
      8      14.6251      0.00000

 k-point    17 :       0.2000    0.0000    0.1667
  band No.  band energies     occupation 
      1      -3.8899      2.00000
      2       0.0173      2.00000
      3       3.8413      2.00000
      4       7.8511      0.00000
      5      10.9054      0.00000
      6      11.5011      0.00000
      7      12.4289      0.00000
      8      14.3090      0.00000

 k-point    18 :       0.3000   -0.0000    0.1667
  band No.  band energies     occupation 
      1      -2.8825      2.00000
      2       1.0034      2.00000
      3       4.7558      1.94312
      4       5.0491      0.00000
      5       8.7636      0.00000
      6      10.0145      0.00000
      7      11.5618      0.00000
      8      12.2380      0.00000

 k-point    19 :       0.4000    0.0000    0.1667
  band No.  band energies     occupation 
      1      -1.4864      2.00000
      2       2.3369      2.00000
      3       2.5316      2.00000
      4       5.8731      0.00000
      5       6.5711      0.00000
      6       9.4777      0.00000
      7       9.9429      0.00000
      8      11.0126      0.00000

 k-point    20 :       0.5000    0.0000    0.1667
  band No.  band energies     occupation 
      1       0.0651      2.00000
      2       0.5715      2.00000
      3       3.9098      2.00000
      4       4.3352      2.00000
      5       7.6855      0.00000
      6       8.1326      0.00000
      7       9.2985      0.00000
      8      10.8230      0.00000

 k-point    21 :       0.1000    0.1000    0.1667
  band No.  band energies     occupation 
      1      -4.0922      2.00000
      2      -0.1809      2.00000
      3       3.6497      2.00000
      4       9.3211      0.00000
      5       9.7043      0.00000
      6      12.8424      0.00000
      7      13.3287      0.00000
      8      14.0796      0.00000

 k-point    22 :       0.2000    0.1000    0.1667
  band No.  band energies     occupation 
      1      -3.2845      2.00000
      2       0.6100      2.00000
      3       4.4117      2.00000
      4       6.5277      0.00000
      5       8.4297      0.00000
      6      10.2177      0.00000
      7      12.0212      0.00000
      8      13.5894      0.00000

 k-point    23 :       0.3000    0.1000    0.1667
  band No.  band energies     occupation 
      1      -2.0818      2.00000
      2       1.7855      2.00000
      3       3.8491      2.00000
      4       5.5348      0.00000
      5       7.5699      0.00000
      6       7.7685      0.00000
      7      10.9149      0.00000
      8      11.7224      0.00000

 k-point    24 :       0.4000    0.1000    0.1667
  band No.  band energies     occupation 
      1      -0.5063      2.00000
      2       1.5286      2.00000
      3       3.3330      2.00000
      4       5.2681      0.00000
      5       7.0963      0.00000
      6       7.3601      0.00000
      7       9.0051      0.00000
      8      11.1065      0.00000

 k-point    25 :       0.2000    0.2000    0.1667
  band No.  band energies     occupation 
      1      -2.2811      2.00000
      2       1.5912      2.00000
      3       5.2353      0.00000
      4       5.4970      0.00000
      5       5.8176      0.00000
      6       9.0546      0.00000
      7       9.5918      0.00000
      8      12.5470      0.00000

 k-point    26 :       0.3000    0.2000    0.1667
  band No.  band energies     occupation 
      1      -0.8904      2.00000
      2       2.9019      2.00000
      3       3.1118      2.00000
      4       5.0467      0.00000
      5       6.4360      0.00000
      6       7.0822      0.00000
      7       8.7858      0.00000
      8      10.6416      0.00000

 k-point    27 :       0.4000    0.2000    0.1667
  band No.  band energies     occupation 
      1       0.6644      2.00000
      2       1.1417      2.00000
      3       4.4610      2.00000
      4       4.8824      0.09408
      5       4.8959      0.03979
      6       8.0884      0.00000
      7       8.2674      0.00000
      8       9.2929      0.00000

 k-point    28 :       0.3000    0.3000    0.1667
  band No.  band energies     occupation 
      1       0.6675      2.00000
      2       2.4414      2.00000
      3       2.9768      2.00000
      4       4.4858      2.00000
      5       6.2289      0.00000
      6       6.5653      0.00000
      7       8.3821      0.00000
      8       9.9282      0.00000

 k-point    29 :       0.0000    0.0000    0.3333
  band No.  band energies     occupation 
      1      -4.2049      2.00000
      2      -2.2371      2.00000
      3       5.4214      0.00000
      4      10.8575      0.00000
      5      13.7139      0.00000
      6      13.7140      0.00000
      7      14.6711      0.00000
      8      14.6712      0.00000

 k-point    30 :       0.1000    0.0000    0.3333
  band No.  band energies     occupation 
      1      -4.0025      2.00000
      2      -2.0366      2.00000
      3       5.6097      0.00000
      4      10.8893      0.00000
      5      11.5193      0.00000
      6      12.5612      0.00000
      7      13.1423      0.00000
      8      14.2432      0.00000

 k-point    31 :       0.2000    0.0000    0.3333
  band No.  band energies     occupation 
      1      -3.3963      2.00000
      2      -1.4367      2.00000
      3       6.1650      0.00000
      4       8.2960      0.00000
      5      10.1764      0.00000
      6      11.3401      0.00000
      7      11.4842      0.00000
      8      13.0626      0.00000

 k-point    32 :       0.3000   -0.0000    0.3333
  band No.  band energies     occupation 
      1      -2.3916      2.00000
      2      -0.4424      2.00000
      3       5.4684      0.00000
      4       6.8895      0.00000
      5       7.6174      0.00000
      6      10.4510      0.00000
      7      11.6847      0.00000
      8      12.1860      0.00000

 k-point    33 :       0.4000    0.0000    0.3333
  band No.  band energies     occupation 
      1      -0.9990      2.00000
      2       0.9349      2.00000
      3       2.9739      2.00000
      4       4.8445      0.54548
      5       8.4825      0.00000
      6       9.9150      0.00000
      7      11.3792      0.00000
      8      11.6553      0.00000

 k-point    34 :       0.5000    0.0000    0.3333
  band No.  band energies     occupation 
      1       0.5523      2.00000
      2       1.0465      2.00000
      3       2.4873      2.00000
      4       2.9419      2.00000
      5       9.7360      0.00000
      6       9.9384      0.00000
      7      10.2540      0.00000
      8      11.2274      0.00000

 k-point    35 :       0.1000    0.1000    0.3333
  band No.  band energies     occupation 
      1      -3.5981      2.00000
      2      -1.6364      2.00000
      3       5.9826      0.00000
      4       9.7708      0.00000
      5      10.0462      0.00000
      6      11.5148      0.00000
      7      11.6392      0.00000
      8      12.0558      0.00000

 k-point    36 :       0.2000    0.1000    0.3333
  band No.  band energies     occupation 
      1      -2.7926      2.00000
      2      -0.8392      2.00000
      3       6.6726      0.00000
      4       7.0110      0.00000
      5       8.7998      0.00000
      6       8.9581      0.00000
      7      10.7631      0.00000
      8      12.1924      0.00000

 k-point    37 :       0.3000    0.1000    0.3333
  band No.  band energies     occupation 
      1      -1.5930      2.00000
      2       0.3476      2.00000
      3       4.3195      2.00000
      4       6.1432      0.00000
      5       7.8955      0.00000
      6       8.1664      0.00000
      7      10.0245      0.00000
      8      12.7933      0.00000

 k-point    38 :       0.4000    0.1000    0.3333
  band No.  band energies     occupation 
      1      -0.0212      2.00000
      2       1.8738      2.00000
      3       2.0405      2.00000
      4       3.8999      2.00000
      5       7.7474      0.00000
      6       9.1452      0.00000
      7       9.8084      0.00000
      8      11.4014      0.00000

 k-point    39 :       0.2000    0.2000    0.3333
  band No.  band energies     occupation 
      1      -1.7918      2.00000
      2       0.1510      2.00000
      3       5.8295      0.00000
      4       6.2711      0.00000
      5       7.3943      0.00000
      6       7.6950      0.00000
      7       8.5470      0.00000
      8      12.9443      0.00000

 k-point    40 :       0.3000    0.2000    0.3333
  band No.  band energies     occupation 
      1      -0.4046      2.00000
      2       1.5216      2.00000
      3       3.5382      2.00000
      4       5.3630      0.00000
      5       5.5578      0.00000
      6       7.2970      0.00000
      7       9.1916      0.00000
      8      12.6231      0.00000

 k-point    41 :       0.4000    0.2000    0.3333
  band No.  band energies     occupation 
      1       1.1489      2.00000
      2       1.6153      2.00000
      3       3.0746      2.00000
      4       3.5089      2.00000
      5       5.3210      0.00000
      6       7.1344      0.00000
      7      10.4938      0.00000
      8      11.1106      0.00000

 k-point    42 :       0.3000    0.3000    0.3333
  band No.  band energies     occupation 
      1       1.1491      2.00000
      2       2.8599      2.00000
      3       3.1341      2.00000
      4       3.4431      2.00000
      5       4.8350      0.73875
      6       5.2936      0.00000
      7      10.5516      0.00000
      8      12.0432      0.00000

 k-point    43 :       0.0000    0.0000    0.5000
  band No.  band energies     occupation 
      1      -3.3821      2.00000
      2      -3.3821      2.00000
      3       8.0337      0.00000
      4       8.0337      0.00000
      5      14.3697      0.00000
      6      14.3697      0.00000
      7      14.3698      0.00000
      8      14.3698      0.00000

 k-point    44 :       0.1000    0.0000    0.5000
  band No.  band energies     occupation 
      1      -3.1805      2.00000
      2      -3.1805      2.00000
      3       8.2088      0.00000
      4       8.2088      0.00000
      5      12.1381      0.00000
      6      12.1381      0.00000
      7      13.2722      0.00000
      8      13.2722      0.00000

 k-point    45 :       0.2000    0.0000    0.5000
  band No.  band energies     occupation 
      1      -2.5770      2.00000
      2      -2.5770      2.00000
      3       8.5580      0.00000
      4       8.5580      0.00000
      5       9.3166      0.00000
      6       9.3166      0.00000
      7      12.0620      0.00000
      8      12.0620      0.00000

 k-point    46 :       0.3000   -0.0000    0.5000
  band No.  band energies     occupation 
      1      -1.5766      2.00000
      2      -1.5766      2.00000
      3       6.2340      0.00000
      4       6.2340      0.00000
      5       9.7157      0.00000
      6       9.7157      0.00000
      7      11.1768      0.00000
      8      11.1768      0.00000

 k-point    47 :       0.4000    0.0000    0.5000
  band No.  band energies     occupation 
      1      -0.1900      2.00000
      2      -0.1900      2.00000
      3       3.7594      2.00000
      4       3.7594      2.00000
      5      10.6425      0.00000
      6      10.6425      0.00000
      7      10.8311      0.00000
      8      10.8311      0.00000

 k-point    48 :       0.5000    0.0000    0.5000
  band No.  band energies     occupation 
      1       1.3555      2.00000
      2       1.3555      2.00000
      3       1.8466      2.00000
      4       1.8466      2.00000
      5      10.4639      0.00000
      6      10.4639      0.00000
      7      11.5756      0.00000
      8      11.5756      0.00000

 k-point    49 :       0.1000    0.1000    0.5000
  band No.  band energies     occupation 
      1      -2.7779      2.00000
      2      -2.7779      2.00000
      3       8.5341      0.00000
      4       8.5341      0.00000
      5      10.5105      0.00000
      6      10.5105      0.00000
      7      11.0749      0.00000
      8      11.0749      0.00000

 k-point    50 :       0.2000    0.1000    0.5000
  band No.  band energies     occupation 
      1      -1.9759      2.00000
      2      -1.9759      2.00000
      3       7.6993      0.00000
      4       7.6993      0.00000
      5       9.1492      0.00000
      6       9.1492      0.00000
      7       9.9859      0.00000
      8       9.9859      0.00000

 k-point    51 :       0.3000    0.1000    0.5000
  band No.  band energies     occupation 
      1      -0.7815      2.00000
      2      -0.7815      2.00000
      3       5.0964      0.00000
      4       5.0964      0.00000
      5       8.8253      0.00000
      6       8.8253      0.00000
      7      10.5936      0.00000
      8      10.5936      0.00000

 k-point    52 :       0.4000    0.1000    0.5000
  band No.  band energies     occupation 
      1       0.7835      2.00000
      2       0.7835      2.00000
      3       2.8024      2.00000
      4       2.8024      2.00000
      5       8.4887      0.00000
      6       8.4887      0.00000
      7      11.8614      0.00000
      8      11.8614      0.00000

 k-point    53 :       0.2000    0.2000    0.5000
  band No.  band energies     occupation 
      1      -0.9794      2.00000
      2      -0.9794      2.00000
      3       6.5977      0.00000
      4       6.5977      0.00000
      5       7.0231      0.00000
      6       7.0231      0.00000
      7      10.4151      0.00000
      8      10.4151      0.00000

 k-point    54 :       0.3000    0.2000    0.5000
  band No.  band energies     occupation 
      1       0.4015      2.00000
      2       0.4015      2.00000
      3       4.3197      2.00000
      4       4.3197      2.00000
      5       6.2843      0.00000
      6       6.2843      0.00000
      7      11.6089      0.00000
      8      11.6089      0.00000

 k-point    55 :       0.4000    0.2000    0.5000
  band No.  band energies     occupation 
      1       1.9443      2.00000
      2       1.9443      2.00000
      3       2.4201      2.00000
      4       2.4201      2.00000
      5       6.0881      0.00000
      6       6.0881      0.00000
      7      12.6359      0.00000
      8      12.6359      0.00000

 k-point    56 :       0.3000    0.3000    0.5000
  band No.  band energies     occupation 
      1       1.9460      2.00000
      2       1.9460      2.00000
      3       3.7232      2.00000
      4       3.7232      2.00000
      5       4.2313      2.00000
      6       4.2313      2.00000
      7      12.7822      0.00000
      8      12.7822      0.00000


--------------------------------------------------------------------------------------------------------


 soft charge-density along one line, spin component           1
         0         1         2         3         4         5         6         7         8         9
 total charge-density along one line
 
 pseudopotential strength for first ion, spin component:           1
  7.230 -16.913  -0.000   0.000   0.000   0.000  -0.000  -0.000
-16.913  49.264   0.000  -0.000  -0.000  -0.000   0.000   0.000
 -0.000   0.000   1.741  -0.000  -0.000  -6.739   0.000   0.000
  0.000  -0.000  -0.000   1.741  -0.000   0.000  -6.738   0.000
  0.000  -0.000  -0.000  -0.000   1.741   0.000   0.000  -6.739
  0.000  -0.000  -6.739   0.000   0.000  28.314  -0.000  -0.000
 -0.000   0.000   0.000  -6.738   0.000  -0.000  28.312  -0.000
 -0.000   0.000   0.000   0.000  -6.739  -0.000  -0.000  28.314
 -0.000   0.000   0.000  -0.000   0.000  -0.000   0.000  -0.000
 -0.000   0.000   0.000  -0.000  -0.000  -0.000   0.000   0.000
 -0.000   0.000   0.000   0.000  -0.000  -0.000  -0.000   0.000
 -0.000   0.000  -0.000   0.000  -0.000   0.000  -0.000   0.000
  0.000  -0.000   0.000  -0.000   0.000  -0.000   0.000  -0.000
  0.000  -0.000  -0.000   0.000  -0.000   0.000  -0.000   0.001
  0.000  -0.000  -0.000   0.000   0.000   0.000  -0.000  -0.000
  0.001  -0.002  -0.000  -0.000   0.000   0.000   0.000  -0.000
  0.000  -0.000   0.000  -0.000   0.000  -0.000   0.000  -0.000
 -0.000   0.000  -0.000   0.000  -0.000   0.001  -0.000   0.000
 total augmentation occupancy for first ion, spin component:           1
  1.499   0.006   0.000   0.000  -0.000   0.000   0.000  -0.000  -0.000  -0.000  -0.001   0.000   0.000  -0.000  -0.000   0.000
  0.006   0.000   0.000   0.000   0.000   0.000   0.000   0.000  -0.000   0.000   0.000   0.000  -0.000   0.000  -0.000   0.000
  0.000   0.000   0.605  -0.000   0.000   0.007   0.000   0.000   0.000  -0.000   0.000   0.000  -0.007   0.000  -0.000   0.000
  0.000   0.000  -0.000   0.659   0.000  -0.000   0.007  -0.000  -0.000   0.000   0.000   0.000  -0.000   0.000  -0.000   0.000
  0.000  -0.000   0.000   0.000   0.605   0.000   0.000   0.007  -0.007   0.000   0.000  -0.000  -0.000  -0.000  -0.000   0.000
  0.000  -0.000   0.007   0.000   0.000   0.000   0.000   0.000   0.000   0.000   0.000  -0.000  -0.000   0.000   0.000   0.000
  0.000   0.000  -0.000   0.007  -0.000  -0.000   0.000   0.000  -0.000   0.000   0.000   0.000  -0.000   0.000   0.000   0.000
 -0.000   0.000   0.000   0.000   0.007   0.000   0.000   0.000  -0.000   0.000   0.000  -0.000  -0.000  -0.000   0.000   0.000
 -0.000  -0.000   0.000   0.000  -0.007   0.000  -0.000  -0.000   0.011   0.000  -0.000   0.000   0.000   0.000   0.000  -0.000
 -0.000  -0.000   0.000   0.000   0.000   0.000  -0.000   0.000   0.000   0.011  -0.000   0.000   0.000   0.000   0.000   0.000
 -0.001   0.000   0.000   0.000   0.000   0.000   0.000   0.000  -0.000   0.000   0.013  -0.000   0.000  -0.000   0.000   0.000
  0.000   0.000  -0.000   0.000  -0.000   0.000   0.000  -0.000  -0.000   0.000  -0.000   0.011   0.000  -0.000   0.000   0.000
  0.000  -0.000  -0.007   0.000  -0.000  -0.000  -0.000  -0.000  -0.000  -0.000   0.000   0.000   0.011  -0.000   0.000   0.000
 -0.000   0.000   0.000   0.000  -0.000   0.000   0.000  -0.000   0.000   0.000  -0.000  -0.000   0.000   0.000   0.000  -0.000
  0.000  -0.000  -0.000   0.000  -0.000  -0.000   0.000   0.000   0.000   0.000   0.000   0.000   0.000  -0.000   0.000  -0.000
  0.000   0.000  -0.000   0.000   0.000   0.000   0.000   0.000  -0.000  -0.000   0.000  -0.000   0.000  -0.000  -0.000   0.000
 -0.000  -0.000   0.000   0.000  -0.000   0.000   0.000   0.000   0.000   0.000   0.000   0.000   0.000   0.000   0.000   0.000
  0.000  -0.000  -0.000   0.000  -0.000  -0.000  -0.000  -0.000   0.000  -0.000   0.000   0.000   0.000  -0.000   0.000   0.000


------------------------ aborting loop because EDIFF is reached ----------------------------------------


    CHARGE:  cpu time    0.0070: real time    0.0070
    FORLOC:  cpu time    0.0003: real time    0.0003
    FORNL :  cpu time    0.0944: real time    0.0945
    STRESS:  cpu time    0.2696: real time    0.2698
    FORCOR:  cpu time    0.0060: real time    0.0060
    FORHAR:  cpu time    0.0012: real time    0.0012
    MIXING:  cpu time    0.0004: real time    0.0004
    OFIELD:  cpu time    0.0000: real time    0.0000

  FORCE on cell =-STRESS in cart. coord.  units (eV):
  Direction    XX          YY          ZZ          XY          YZ          ZX
  --------------------------------------------------------------------------------------
  Alpha Z     5.71529     5.71529     5.71529
  Ewald     -45.69394   -45.69394   -44.50586    -0.00000    -0.00000    -0.00000
  Hartree     0.05842     0.05842     0.14580     0.00000    -0.00000    -0.00000
  E(xc)     -16.02203   -16.02211   -16.04695    -0.00006     0.00000     0.00000
  Local      -2.64595    -2.64596    -4.15174    -0.00001    -0.00000    -0.00000
  n-local    30.86725    31.45413    31.41558    -0.60120     0.12526     0.22811
  augment    -1.22290    -1.22289    -1.24588     0.00001    -0.00000    -0.00000
  Kinetic    32.22848    18.94191    26.82208    15.78024    -3.07640    -3.20321
  Fock        0.00000     0.00000     0.00000     0.00000     0.00000     0.00000
  -------------------------------------------------------------------------------------
  Total      -3.06526    -3.06526    -1.85169    -0.00000     0.00000     0.00000
  in kB    -117.53406  -117.53406   -71.00102    -0.00000     0.00000     0.00000
  external pressure =     -102.02 kB  Pullay stress =        0.00 kB


 VOLUME and BASIS-vectors are now :
 -----------------------------------------------------------------------------
  energy-cutoff  :      300.00
  volume of cell :       41.78
      direct lattice vectors                 reciprocal lattice vectors
     3.112000000  0.000000000  0.000000000     0.321336761  0.185523865  0.000000000
    -1.556000000  2.695071057  0.000000000     0.000000000  0.371047731  0.000000000
     0.000000000  0.000000000  4.982000000     0.000000000  0.000000000  0.200722601

  length of vectors
     3.112000000  3.112000000  4.982000000     0.371047731  0.371047731  0.200722601


 FORCES acting on ions
    electron-ion (+dipol)            ewald-force                    non-local-force                 convergence-correction
 -----------------------------------------------------------------------------------------------
   0.973E-05 -.562E-05 0.586E-14   -.158E-12 0.910E-13 -.170E-14   0.121E-16 0.000E+00 0.000E+00   -.933E-09 0.539E-09 -.311E-14
   -.973E-05 0.562E-05 0.111E-13   0.158E-12 -.912E-13 0.170E-14   -.867E-17 0.000E+00 0.000E+00   0.933E-09 -.539E-09 0.312E-14
 -----------------------------------------------------------------------------------------------
   -.135E-12 0.729E-13 0.169E-13   0.176E-15 -.225E-15 0.000E+00   0.347E-17 0.000E+00 0.000E+00   -.101E-15 -.336E-16 0.983E-17
 
 
 POSITION                                       TOTAL-FORCE (eV/Angst)
 -----------------------------------------------------------------------------------
      0.00000      1.79671      0.00000         0.000000      0.000000      0.000000
      1.55600      0.89836      2.49100         0.000000      0.000000      0.000000
 -----------------------------------------------------------------------------------
    total drift:                               -0.000000      0.000000      0.000000


--------------------------------------------------------------------------------------------------------



  FREE ENERGIE OF THE ION-ELECTRON SYSTEM (eV)
  ---------------------------------------------------
  free  energy   TOTEN  =        -7.09999869 eV

  energy  without entropy=       -7.09853274  energy(sigma->0) =       -7.09926572
 


--------------------------------------------------------------------------------------------------------


    POTLOK:  cpu time    0.0101: real time    0.0101


--------------------------------------------------------------------------------------------------------


     LOOP+:  cpu time    2.6718: real time    2.8005
    4ORBIT:  cpu time    0.0000: real time    0.0000

 total amount of memory used by VASP MPI-rank0    32679. kBytes
=======================================================================

   base      :      30000. kBytes
   nonlr-proj:        658. kBytes
   fftplans  :        346. kBytes
   grid      :        655. kBytes
   one-center:         31. kBytes
   wavefun   :        989. kBytes
 
  
  
 General timing and accounting informations for this job:
 ========================================================
  
                  Total CPU time used (sec):        3.371
                            User time (sec):        2.506
                          System time (sec):        0.865
                         Elapsed time (sec):        3.518
  
                   Maximum memory used (kb):       34876.
                   Average memory used (kb):           0.
  
                          Minor page faults:        90904
                          Major page faults:            0
                 Voluntary context switches:          638
