NiAl                                    
           1
     3.112000    0.000000    0.000000
    -1.556000    2.695071    0.000000
     0.000000    0.000000    4.982000
   Al
   2
NiAl                                    
           1
     3.112000    0.000000    0.000000
    -1.556000    2.695071    0.000000
     0.000000    0.000000    4.982000
   Al
   2
Direct configuration=     1
   0.33333333  0.66666667  0.00000000
   0.66666667  0.33333333  0.50000000
