   4   4   0   0
  0.1044608E+02  0.3112000E-09  0.3112000E-09  0.4982000E-09  0.2000000E-15
  1.000000000000000E-004
  CAR 
 NiAl                                    
     18.79122693    -11.30387538  301      5.85660275      1.00000000
    -11.304  0.0000E+00  0.0000E+00
    -11.204  0.0000E+00  0.0000E+00
    -11.103  0.0000E+00  0.0000E+00
    -11.003  0.0000E+00  0.0000E+00
    -10.903  0.0000E+00  0.0000E+00
    -10.802  0.0000E+00  0.0000E+00
    -10.702  0.0000E+00  0.0000E+00
    -10.602  0.0000E+00  0.0000E+00
    -10.501  0.0000E+00  0.0000E+00
    -10.401  0.0000E+00  0.0000E+00
    -10.301  0.0000E+00  0.0000E+00
    -10.200  0.3076E-16  0.3085E-17
    -10.100  0.1426E-08  0.1431E-09
    -10.000  0.2948E-04  0.2957E-05
     -9.899  0.7133E-03  0.7451E-04
     -9.799  0.3821E-02  0.4578E-03
     -9.699  0.6780E-02  0.1138E-02
     -9.598  0.6210E-02  0.1761E-02
     -9.498  0.5148E-02  0.2277E-02
     -9.398  0.1438E-01  0.3719E-02
     -9.298  0.1703E-01  0.5428E-02
     -9.197  0.4999E-02  0.5930E-02
     -9.097  0.7827E-02  0.6715E-02
     -8.997  0.1821E-01  0.8542E-02
     -8.896  0.2660E-01  0.1121E-01
     -8.796  0.1222E-01  0.1244E-01
     -8.696  0.1344E-01  0.1378E-01
     -8.595  0.2747E-01  0.1654E-01
     -8.495  0.1353E-01  0.1790E-01
     -8.395  0.2568E-01  0.2047E-01
     -8.294  0.3089E-01  0.2357E-01
     -8.194  0.2845E-01  0.2643E-01
     -8.094  0.3605E-01  0.3004E-01
     -7.993  0.3394E-01  0.3345E-01
     -7.893  0.1586E-01  0.3504E-01
     -7.793  0.6609E-01  0.4167E-01
     -7.692  0.6462E-01  0.4815E-01
     -7.592  0.6221E-01  0.5439E-01
     -7.492  0.3805E-01  0.5821E-01
     -7.392  0.8598E-01  0.6683E-01
     -7.291  0.6448E-01  0.7330E-01
     -7.191  0.6903E-01  0.8023E-01
     -7.091  0.9670E-01  0.8993E-01
     -6.990  0.8774E-01  0.9873E-01
     -6.890  0.1260E-01  0.9999E-01
     -6.790  0.5188E-04  0.1000E+00
     -6.689  0.3073E-09  0.1000E+00
     -6.589  0.0000E+00  0.1000E+00
     -6.489  0.0000E+00  0.1000E+00
     -6.388  0.0000E+00  0.1000E+00
     -6.288  0.0000E+00  0.1000E+00
     -6.188  0.0000E+00  0.1000E+00
     -6.087  0.0000E+00  0.1000E+00
     -5.987  0.0000E+00  0.1000E+00
     -5.887  0.0000E+00  0.1000E+00
     -5.786  0.0000E+00  0.1000E+00
     -5.686  0.0000E+00  0.1000E+00
     -5.586  0.0000E+00  0.1000E+00
     -5.485  0.0000E+00  0.1000E+00
     -5.385  0.0000E+00  0.1000E+00
     -5.285  0.0000E+00  0.1000E+00
     -5.185  0.0000E+00  0.1000E+00
     -5.084  0.0000E+00  0.1000E+00
     -4.984  0.0000E+00  0.1000E+00
     -4.884  0.0000E+00  0.1000E+00
     -4.783  0.0000E+00  0.1000E+00
     -4.683  0.0000E+00  0.1000E+00
     -4.583  0.0000E+00  0.1000E+00
     -4.482  0.0000E+00  0.1000E+00
     -4.382  0.0000E+00  0.1000E+00
     -4.282  0.0000E+00  0.1000E+00
     -4.181  0.0000E+00  0.1000E+00
     -4.081  0.0000E+00  0.1000E+00
     -3.981  0.0000E+00  0.1000E+00
     -3.880  0.0000E+00  0.1000E+00
     -3.780  0.0000E+00  0.1000E+00
     -3.680  0.0000E+00  0.1000E+00
     -3.579  0.0000E+00  0.1000E+00
     -3.479  0.0000E+00  0.1000E+00
     -3.379  0.0000E+00  0.1000E+00
     -3.279  0.0000E+00  0.1000E+00
     -3.178  0.0000E+00  0.1000E+00
     -3.078  0.0000E+00  0.1000E+00
     -2.978  0.0000E+00  0.1000E+00
     -2.877  0.0000E+00  0.1000E+00
     -2.777  0.0000E+00  0.1000E+00
     -2.677  0.0000E+00  0.1000E+00
     -2.576  0.0000E+00  0.1000E+00
     -2.476  0.0000E+00  0.1000E+00
     -2.376  0.0000E+00  0.1000E+00
     -2.275  0.0000E+00  0.1000E+00
     -2.175  0.0000E+00  0.1000E+00
     -2.075  0.0000E+00  0.1000E+00
     -1.974  0.0000E+00  0.1000E+00
     -1.874  0.0000E+00  0.1000E+00
     -1.774  0.0000E+00  0.1000E+00
     -1.673  0.0000E+00  0.1000E+00
     -1.573  0.0000E+00  0.1000E+00
     -1.473  0.0000E+00  0.1000E+00
     -1.372  0.0000E+00  0.1000E+00
     -1.272  0.0000E+00  0.1000E+00
     -1.172  0.0000E+00  0.1000E+00
     -1.072  0.0000E+00  0.1000E+00
     -0.971  0.0000E+00  0.1000E+00
     -0.871  0.4417E-14  0.1000E+00
     -0.771  0.3110E-07  0.1000E+00
     -0.670  0.1086E-03  0.1000E+00
     -0.570  0.7115E-03  0.1001E+00
     -0.470  0.3028E-02  0.1004E+00
     -0.369  0.1983E-02  0.1006E+00
     -0.269  0.3244E-02  0.1009E+00
     -0.169  0.7365E-02  0.1016E+00
     -0.068  0.3088E-01  0.1047E+00
      0.032  0.2566E-01  0.1073E+00
      0.132  0.4342E-01  0.1117E+00
      0.233  0.3835E-01  0.1155E+00
      0.333  0.3845E-01  0.1194E+00
      0.433  0.3446E-01  0.1228E+00
      0.534  0.6480E-01  0.1293E+00
      0.634  0.7341E-01  0.1367E+00
      0.734  0.8709E-01  0.1454E+00
      0.834  0.5727E-01  0.1512E+00
      0.935  0.3091E-01  0.1543E+00
      1.035  0.5212E-01  0.1595E+00
      1.135  0.4104E-01  0.1636E+00
      1.236  0.4602E-01  0.1682E+00
      1.336  0.3572E-01  0.1718E+00
      1.436  0.9661E-02  0.1728E+00
      1.537  0.5805E-01  0.1786E+00
      1.637  0.4045E-01  0.1827E+00
      1.737  0.1879E-01  0.1846E+00
      1.838  0.2447E-01  0.1870E+00
      1.938  0.1885E-01  0.1889E+00
      2.038  0.3618E-01  0.1925E+00
      2.139  0.4863E-01  0.1974E+00
      2.239  0.3878E-01  0.2013E+00
      2.339  0.3631E-01  0.2050E+00
      2.440  0.4290E-01  0.2093E+00
      2.540  0.5725E-01  0.2150E+00
      2.640  0.1579E-01  0.2166E+00
      2.741  0.1967E-01  0.2186E+00
      2.841  0.5895E-01  0.2245E+00
      2.941  0.2485E-01  0.2270E+00
      3.041  0.5648E-01  0.2326E+00
      3.142  0.3314E-01  0.2360E+00
      3.242  0.5355E-01  0.2413E+00
      3.342  0.4803E-01  0.2461E+00
      3.443  0.4356E-01  0.2505E+00
      3.543  0.5008E-01  0.2555E+00
      3.643  0.7624E-01  0.2632E+00
      3.744  0.4329E-01  0.2675E+00
      3.844  0.6181E-01  0.2737E+00
      3.944  0.7342E-01  0.2811E+00
      4.045  0.8130E-01  0.2892E+00
      4.145  0.9491E-01  0.2988E+00
      4.245  0.6319E-01  0.3051E+00
      4.346  0.7149E-01  0.3123E+00
      4.446  0.4304E-01  0.3166E+00
      4.546  0.9505E-01  0.3261E+00
      4.647  0.1458E+00  0.3408E+00
      4.747  0.9197E-01  0.3500E+00
      4.847  0.9553E-01  0.3596E+00
      4.947  0.1280E+00  0.3724E+00
      5.048  0.6831E-01  0.3793E+00
      5.148  0.6476E-01  0.3858E+00
      5.248  0.4386E-01  0.3902E+00
      5.349  0.4606E-01  0.3948E+00
      5.449  0.2969E-01  0.3978E+00
      5.549  0.1898E-01  0.3997E+00
      5.650  0.3342E-02  0.4000E+00
      5.750  0.1594E-04  0.4000E+00
      5.850  0.2389E-09  0.4000E+00
      5.951  0.1845E-17  0.4000E+00
      6.051  0.0000E+00  0.4000E+00
      6.151  0.0000E+00  0.4000E+00
      6.252  0.0000E+00  0.4000E+00
      6.352  0.0000E+00  0.4000E+00
      6.452  0.0000E+00  0.4000E+00
      6.553  0.0000E+00  0.4000E+00
      6.653  0.0000E+00  0.4000E+00
      6.753  0.0000E+00  0.4000E+00
      6.854  0.0000E+00  0.4000E+00
      6.954  0.0000E+00  0.4000E+00
      7.054  0.0000E+00  0.4000E+00
      7.154  0.0000E+00  0.4000E+00
      7.255  0.0000E+00  0.4000E+00
      7.355  0.0000E+00  0.4000E+00
      7.455  0.0000E+00  0.4000E+00
      7.556  0.0000E+00  0.4000E+00
      7.656  0.0000E+00  0.4000E+00
      7.756  0.0000E+00  0.4000E+00
      7.857  0.0000E+00  0.4000E+00
      7.957  0.0000E+00  0.4000E+00
      8.057  0.0000E+00  0.4000E+00
      8.158  0.0000E+00  0.4000E+00
      8.258  0.0000E+00  0.4000E+00
      8.358  0.0000E+00  0.4000E+00
      8.459  0.0000E+00  0.4000E+00
      8.559  0.0000E+00  0.4000E+00
      8.659  0.0000E+00  0.4000E+00
      8.760  0.0000E+00  0.4000E+00
      8.860  0.0000E+00  0.4000E+00
      8.960  0.0000E+00  0.4000E+00
      9.060  0.0000E+00  0.4000E+00
      9.161  0.0000E+00  0.4000E+00
      9.261  0.0000E+00  0.4000E+00
      9.361  0.0000E+00  0.4000E+00
      9.462  0.0000E+00  0.4000E+00
      9.562  0.0000E+00  0.4000E+00
      9.662  0.0000E+00  0.4000E+00
      9.763  0.0000E+00  0.4000E+00
      9.863  0.0000E+00  0.4000E+00
      9.963  0.0000E+00  0.4000E+00
     10.064  0.0000E+00  0.4000E+00
     10.164  0.1704E-12  0.4000E+00
     10.264  0.2672E-06  0.4000E+00
     10.365  0.2345E-03  0.4000E+00
     10.465  0.5861E-03  0.4001E+00
     10.565  0.9839E-05  0.4001E+00
     10.666  0.3638E-05  0.4001E+00
     10.766  0.2509E-02  0.4003E+00
     10.866  0.7983E-02  0.4011E+00
     10.967  0.4002E-02  0.4015E+00
     11.067  0.1246E-01  0.4028E+00
     11.167  0.2325E-01  0.4051E+00
     11.267  0.2783E-01  0.4079E+00
     11.368  0.3419E-01  0.4113E+00
     11.468  0.2673E-01  0.4140E+00
     11.568  0.1923E-01  0.4160E+00
     11.669  0.3935E-01  0.4199E+00
     11.769  0.4022E-01  0.4239E+00
     11.869  0.1621E-01  0.4256E+00
     11.970  0.5129E-01  0.4307E+00
     12.070  0.6294E-01  0.4370E+00
     12.170  0.3646E-01  0.4407E+00
     12.271  0.2663E-01  0.4433E+00
     12.371  0.4641E-01  0.4480E+00
     12.471  0.7781E-01  0.4558E+00
     12.572  0.4573E-01  0.4604E+00
     12.672  0.4648E-01  0.4651E+00
     12.772  0.3555E-01  0.4686E+00
     12.873  0.1750E-01  0.4704E+00
     12.973  0.4254E-01  0.4746E+00
     13.073  0.2634E-01  0.4773E+00
     13.173  0.3245E-01  0.4805E+00
     13.274  0.1433E-01  0.4820E+00
     13.374  0.5131E-03  0.4820E+00
     13.474  0.2188E-01  0.4842E+00
     13.575  0.5361E-01  0.4896E+00
     13.675  0.4461E-01  0.4941E+00
     13.775  0.4626E-02  0.4945E+00
     13.876  0.8301E-02  0.4954E+00
     13.976  0.1453E-02  0.4955E+00
     14.076  0.1161E-01  0.4967E+00
     14.177  0.1274E-01  0.4980E+00
     14.277  0.2259E-01  0.5002E+00
     14.377  0.2522E-01  0.5028E+00
     14.478  0.1478E-01  0.5042E+00
     14.578  0.2245E-01  0.5065E+00
     14.678  0.4881E-01  0.5114E+00
     14.779  0.3319E-01  0.5147E+00
     14.879  0.3624E-01  0.5184E+00
     14.979  0.2837E-01  0.5212E+00
     15.079  0.7230E-01  0.5285E+00
     15.180  0.8216E-01  0.5367E+00
     15.280  0.6381E-01  0.5431E+00
     15.380  0.1299E-01  0.5444E+00
     15.481  0.8327E-02  0.5452E+00
     15.581  0.4566E-01  0.5498E+00
     15.681  0.6069E-01  0.5559E+00
     15.782  0.5330E-01  0.5613E+00
     15.882  0.5627E-01  0.5669E+00
     15.982  0.8856E-01  0.5758E+00
     16.083  0.6565E-01  0.5824E+00
     16.183  0.4098E-01  0.5865E+00
     16.283  0.8102E-02  0.5873E+00
     16.384  0.3373E-01  0.5907E+00
     16.484  0.4660E-01  0.5954E+00
     16.584  0.2496E-01  0.5979E+00
     16.685  0.1398E-01  0.5993E+00
     16.785  0.2505E-02  0.5995E+00
     16.885  0.6784E-03  0.5996E+00
     16.986  0.2710E-04  0.5996E+00
     17.086  0.1186E-08  0.5996E+00
     17.186  0.1316E-08  0.5996E+00
     17.286  0.4608E-04  0.5996E+00
     17.387  0.2316E-02  0.5998E+00
     17.487  0.1759E-02  0.6000E+00
     17.587  0.3244E-04  0.6000E+00
     17.688  0.1433E-08  0.6000E+00
     17.788  0.3080E-16  0.6000E+00
     17.888  0.0000E+00  0.6000E+00
     17.989  0.0000E+00  0.6000E+00
     18.089  0.0000E+00  0.6000E+00
     18.189  0.0000E+00  0.6000E+00
     18.290  0.0000E+00  0.6000E+00
     18.390  0.0000E+00  0.6000E+00
     18.490  0.0000E+00  0.6000E+00
     18.591  0.0000E+00  0.6000E+00
     18.691  0.0000E+00  0.6000E+00
     18.791  0.0000E+00  0.6000E+00
