    4    4   40    1
  0.1044608E+02  0.3112000E-09  0.3112000E-09  0.4982000E-09  0.2000000E-15
  1.000000000000000E-004
  CAR 
 NiAl                                    
     16     56     12
 
  0.0000000E+00  0.0000000E+00  0.0000000E+00  0.1666667E-02
    1       -9.935916   1.000000
    2       -7.655349   1.000000
    3       -0.630574   1.000000
    4        4.910365   1.000000
    5        4.911083   1.000000
    6        5.521854   1.000000
    7        5.522689   1.000000
    8        5.573174   1.000000
    9       10.384937   0.000000
   10       12.959592   0.000000
   11       16.820024   0.000000
   12       17.423268   0.000000
 
  0.1000000E+00  0.3653319E-17  0.0000000E+00  0.1000000E-01
    1       -9.798679   1.000000
    2       -7.576584   1.000000
    3       -0.479092   1.000000
    4        4.302181   1.000000
    5        4.738552   1.000000
    6        4.958168   1.000000
    7        5.503750   1.000000
    8        5.535028   1.000000
    9       10.961860   0.000000
   10       13.486132   0.000000
   11       16.176128   0.000000
   12       16.557044   0.000000
 
  0.2000000E+00 -0.1595253E-16  0.0000000E+00  0.1000000E-01
    1       -9.404969   1.000000
    2       -7.368058   1.000000
    3       -0.008587   1.000000
    4        2.894911   1.000000
    5        3.821703   1.000000
    6        4.385480   1.000000
    7        5.348207   1.000000
    8        5.397285   1.000000
    9       11.989944   0.000000
   10       14.068326   0.000000
   11       14.614668   0.000000
   12       16.048563   0.000000
 
  0.3000000E+00 -0.1846095E-16  0.0000000E+00  0.1000000E-01
    1       -8.813125   1.000000
    2       -7.128077   1.000000
    3        0.726583   1.000000
    4        1.462022   1.000000
    5        2.631170   1.000000
    6        3.999746   1.000000
    7        4.952380   1.000000
    8        5.245425   1.000000
    9       12.363885   0.000000
   10       12.935984   0.000000
   11       14.109879   0.000000
   12       16.680450   0.000000
 
  0.4000000E+00 -0.3190507E-16  0.0000000E+00  0.1000000E-01
    1       -8.162168   1.000000
    2       -7.017664   1.000000
    3        0.401220   1.000000
    4        1.608297   1.000000
    5        1.738303   1.000000
    6        3.730314   1.000000
    7        4.279764   1.000000
    8        5.093027   1.000000
    9       11.897214   0.000000
   10       11.976723   0.000000
   11       14.364863   0.000000
   12       16.530453   0.000000
 
  0.5000000E+00 -0.5103601E-17  0.0000000E+00  0.5000000E-02
    1       -7.798285   1.000000
    2       -7.066194   1.000000
    3        0.020238   1.000000
    4        1.372222   1.000000
    5        2.187072   1.000000
    6        3.622616   1.000000
    7        3.783323   1.000000
    8        5.058196   1.000000
    9       11.546206   0.000000
   10       11.770738   0.000000
   11       14.442669   0.000000
   12       16.518427   0.000000
 
  0.1000000E+00  0.1000000E+00  0.0000000E+00  0.1000000E-01
    1       -9.532823   1.000000
    2       -7.431983   1.000000
    3       -0.160407   1.000000
    4        3.523851   1.000000
    5        3.770242   1.000000
    6        4.723765   1.000000
    7        5.330823   1.000000
    8        5.428292   1.000000
    9       11.775879   0.000000
   10       14.238825   0.000000
   11       15.224549   0.000000
   12       15.549834   0.000000
 
  0.2000000E+00  0.1000000E+00  0.0000000E+00  0.2000000E-01
    1       -9.038102   1.000000
    2       -7.204960   1.000000
    3        0.440358   1.000000
    4        2.193965   1.000000
    5        2.811194   1.000000
    6        4.137899   1.000000
    7        5.054959   1.000000
    8        5.131621   1.000000
    9       12.643726   0.000000
   10       13.645093   0.000000
   11       14.339435   0.000000
   12       15.830962   0.000000
 
  0.3000000E+00  0.1000000E+00  0.0000000E+00  0.2000000E-01
    1       -8.404748   1.000000
    2       -7.025028   1.000000
    3        0.944609   1.000000
    4        1.262791   1.000000
    5        2.026806   1.000000
    6        3.547947   1.000000
    7        4.593831   1.000000
    8        4.822219   1.000000
    9       12.251452   0.000000
   10       12.709826   0.000000
   11       14.422282   0.000000
   12       16.433401   0.000000
 
  0.4000000E+00  0.1000000E+00  0.0000000E+00  0.2000000E-01
    1       -7.839665   1.000000
    2       -7.030366   1.000000
    3        0.215427   1.000000
    4        1.537734   1.000000
    5        2.109179   1.000000
    6        3.244385   1.000000
    7        3.927439   1.000000
    8        4.682756   1.000000
    9       11.527410   0.000000
   10       12.404389   0.000000
   11       14.694376   0.000000
   12       16.434448   0.000000
 
  0.2000000E+00  0.2000000E+00  0.0000000E+00  0.1000000E-01
    1       -8.493455   1.000000
    2       -7.030796   1.000000
    3        1.146222   1.000000
    4        1.572424   1.000000
    5        1.799294   1.000000
    6        3.560198   1.000000
    7        4.445852   1.000000
    8        4.720658   1.000000
    9       12.448090   0.000000
   10       13.430267   0.000000
   11       14.688226   0.000000
   12       15.839600   0.000000
 
  0.3000000E+00  0.2000000E+00  0.0000000E+00  0.2000000E-01
    1       -7.899211   1.000000
    2       -6.981031   1.000000
    3        0.719235   1.000000
    4        1.601795   1.000000
    5        1.992615   1.000000
    6        2.793115   1.000000
    7        3.987767   1.000000
    8        4.146734   1.000000
    9       11.436706   0.000000
   10       13.626268   0.000000
   11       15.077915   0.000000
   12       16.144887   0.000000
 
  0.4000000E+00  0.2000000E+00  0.0000000E+00  0.1000000E-01
    1       -7.553589   1.000000
    2       -7.061944   1.000000
    3        0.383734   1.000000
    4        1.694495   1.000000
    5        2.332227   1.000000
    6        2.582926   1.000000
    7        3.640890   1.000000
    8        3.868025   1.000000
    9       11.050274   0.000000
   10       13.583892   0.000000
   11       15.323613   0.000000
   12       16.205412   0.000000
 
  0.3000000E+00  0.3000000E+00  0.0000000E+00  0.1000000E-01
    1       -7.434247   1.000000
    2       -7.082688   1.000000
    3        0.636142   1.000000
    4        1.645026   1.000000
    5        2.103953   1.000000
    6        2.770308   1.000000
    7        3.282566   1.000000
    8        3.579476   1.000000
    9       10.803056   0.000000
   10       14.303247   0.000000
   11       15.634329   0.000000
   12       15.988643   0.000000
 
  0.0000000E+00  0.0000000E+00  0.1666667E+00  0.3333333E-02
    1       -9.823662   1.000000
    2       -7.880715   1.000000
    3       -0.243020   1.000000
    4        4.933800   1.000000
    5        4.934599   1.000000
    6        4.992078   1.000000
    7        5.487566   1.000000
    8        5.488377   1.000000
    9       10.871661   0.000000
   10       13.020745   0.000000
   11       16.625952   0.000000
   12       17.383415   0.000000
 
  0.1000000E+00  0.3653319E-17  0.1666667E+00  0.2000000E-01
    1       -9.688847   1.000000
    2       -7.792182   1.000000
    3       -0.105418   1.000000
    4        4.337519   1.000000
    5        4.609812   1.000000
    6        4.786683   1.000000
    7        5.349416   1.000000
    8        5.452946   1.000000
    9       11.327519   0.000000
   10       13.535694   0.000000
   11       15.936488   0.000000
   12       16.563541   0.000000
 
  0.2000000E+00 -0.1595253E-16  0.1666667E+00  0.2000000E-01
    1       -9.300424   1.000000
    2       -7.556580   1.000000
    3        0.276971   1.000000
    4        2.992269   1.000000
    5        3.595805   1.000000
    6        4.421768   1.000000
    7        5.227618   1.000000
    8        5.325330   1.000000
    9       12.053001   0.000000
   10       14.045280   0.000000
   11       14.657994   0.000000
   12       16.051361   0.000000
 
  0.3000000E+00 -0.1846095E-16  0.1666667E+00  0.2000000E-01
    1       -8.721026   1.000000
    2       -7.269162   1.000000
    3        0.653068   1.000000
    4        1.788741   1.000000
    5        2.483527   1.000000
    6        4.064600   1.000000
    7        4.946904   1.000000
    8        5.141750   1.000000
    9       11.979135   0.000000
   10       12.941637   0.000000
   11       14.577877   0.000000
   12       16.589069   0.000000
 
  0.4000000E+00 -0.3190507E-16  0.1666667E+00  0.2000000E-01
    1       -8.090053   1.000000
    2       -7.096503   1.000000
    3        0.195142   1.000000
    4        1.294925   1.000000
    5        2.243886   1.000000
    6        3.805628   1.000000
    7        4.483888   1.000000
    8        4.985977   1.000000
    9       11.390747   0.000000
   10       12.102094   0.000000
   11       14.963128   0.000000
   12       16.115610   0.000000
 
  0.5000000E+00 -0.5103601E-17  0.1666667E+00  0.1000000E-01
    1       -7.744259   1.000000
    2       -7.105796   1.000000
    3       -0.132951   1.000000
    4        0.988850   1.000000
    5        2.589082   1.000000
    6        3.703324   1.000000
    7        4.137390   1.000000
    8        4.922060   1.000000
    9       11.121214   0.000000
   10       11.823780   0.000000
   11       15.130890   0.000000
   12       15.939821   0.000000
 
  0.1000000E+00  0.1000000E+00  0.1666667E+00  0.2000000E-01
    1       -9.426972   1.000000
    2       -7.629607   1.000000
    3        0.160049   1.000000
    4        3.620401   1.000000
    5        3.627403   1.000000
    6        4.580972   1.000000
    7        5.242243   1.000000
    8        5.304485   1.000000
    9       11.951195   0.000000
   10       14.237588   0.000000
   11       15.020656   0.000000
   12       15.655733   0.000000
 
  0.2000000E+00  0.1000000E+00  0.1666667E+00  0.4000000E-01
    1       -8.940473   1.000000
    2       -7.365239   1.000000
    3        0.586106   1.000000
    4        2.306498   1.000000
    5        2.788929   1.000000
    6        4.056917   1.000000
    7        4.926026   1.000000
    8        5.162991   1.000000
    9       12.458215   0.000000
   10       13.565557   0.000000
   11       14.590563   0.000000
   12       15.891827   0.000000
 
  0.3000000E+00  0.1000000E+00  0.1666667E+00  0.4000000E-01
    1       -8.323382   1.000000
    2       -7.129622   1.000000
    3        0.603265   1.000000
    4        1.488074   1.000000
    5        2.234454   1.000000
    6        3.557899   1.000000
    7        4.593635   1.000000
    8        4.861181   1.000000
    9       11.924761   0.000000
   10       12.791006   0.000000
   11       14.680385   0.000000
   12       16.366464   0.000000
 
  0.4000000E+00  0.1000000E+00  0.1666667E+00  0.4000000E-01
    1       -7.782311   1.000000
    2       -7.077642   1.000000
    3        0.063994   1.000000
    4        1.137685   1.000000
    5        2.479819   1.000000
    6        3.383099   1.000000
    7        4.185723   1.000000
    8        4.597920   1.000000
    9       11.315876   0.000000
   10       12.430375   0.000000
   11       15.067383   0.000000
   12       15.981520   0.000000
 
  0.2000000E+00  0.2000000E+00  0.1666667E+00  0.2000000E-01
    1       -8.409350   1.000000
    2       -7.145660   1.000000
    3        0.885216   1.000000
    4        1.512467   1.000000
    5        2.372896   1.000000
    6        3.346072   1.000000
    7        4.297231   1.000000
    8        4.907848   1.000000
    9       12.515187   0.000000
   10       13.108660   0.000000
   11       14.789594   0.000000
   12       15.912317   0.000000
 
  0.3000000E+00  0.2000000E+00  0.1666667E+00  0.4000000E-01
    1       -7.837296   1.000000
    2       -7.039262   1.000000
    3        0.600336   1.000000
    4        1.177045   1.000000
    5        2.425074   1.000000
    6        2.861050   1.000000
    7        3.792504   1.000000
    8        4.492474   1.000000
    9       11.623495   0.000000
   10       13.466979   0.000000
   11       14.834427   0.000000
   12       15.986404   0.000000
 
  0.4000000E+00  0.2000000E+00  0.1666667E+00  0.2000000E-01
    1       -7.512603   1.000000
    2       -7.083800   1.000000
    3        0.303397   1.000000
    4        1.302080   1.000000
    5        2.037290   1.000000
    6        3.265402   1.000000
    7        3.538383   1.000000
    8        4.158625   1.000000
    9       11.269180   0.000000
   10       13.532025   0.000000
   11       15.036266   0.000000
   12       15.755004   0.000000
 
  0.3000000E+00  0.3000000E+00  0.1666667E+00  0.2000000E-01
    1       -7.401210   1.000000
    2       -7.094945   1.000000
    3        0.701093   1.000000
    4        1.206899   1.000000
    5        1.749012   1.000000
    6        2.998921   1.000000
    7        3.408381   1.000000
    8        4.031922   1.000000
    9       11.200290   0.000000
   10       14.183567   0.000000
   11       15.071468   0.000000
   12       15.530596   0.000000
 
  0.0000000E+00  0.0000000E+00  0.3333333E+00  0.3333333E-02
    1       -9.498953   1.000000
    2       -8.408595   1.000000
    3        0.782680   1.000000
    4        3.667717   1.000000
    5        5.069614   1.000000
    6        5.070303   1.000000
    7        5.391351   1.000000
    8        5.392079   1.000000
    9       11.846843   0.000000
   10       13.057112   0.000000
   11       16.344494   0.000000
   12       17.355978   0.000000
 
  0.1000000E+00  0.3653319E-17  0.3333333E+00  0.2000000E-01
    1       -9.370001   1.000000
    2       -8.303444   1.000000
    3        0.860674   1.000000
    4        3.479327   1.000000
    5        4.570052   1.000000
    6        4.919858   1.000000
    7        5.085467   1.000000
    8        5.307388   1.000000
    9       12.134082   0.000000
   10       13.490073   0.000000
   11       15.621961   0.000000
   12       16.395262   0.000000
 
  0.2000000E+00 -0.1595253E-16  0.3333333E+00  0.2000000E-01
    1       -9.000280   1.000000
    2       -8.014112   1.000000
    3        0.990644   1.000000
    4        2.719778   1.000000
    5        3.580246   1.000000
    6        4.594714   1.000000
    7        4.766378   1.000000
    8        5.117154   1.000000
    9       12.330647   0.000000
   10       13.590918   0.000000
   11       15.046328   0.000000
   12       15.980783   0.000000
 
  0.3000000E+00 -0.1846095E-16  0.3333333E+00  0.2000000E-01
    1       -8.457124   1.000000
    2       -7.627589   1.000000
    3        0.741443   1.000000
    4        1.605393   1.000000
    5        3.016646   1.000000
    6        4.266422   1.000000
    7        4.698880   1.000000
    8        4.876405   1.000000
    9       11.742932   0.000000
   10       12.684141   0.000000
   11       15.165429   0.000000
   12       16.352252   0.000000
 
  0.4000000E+00 -0.3190507E-16  0.3333333E+00  0.2000000E-01
    1       -7.888776   1.000000
    2       -7.313062   1.000000
    3        0.052735   1.000000
    4        0.703339   1.000000
    5        3.204765   1.000000
    6        4.005564   1.000000
    7        4.608385   1.000000
    8        4.682684   1.000000
    9       11.052055   0.000000
   10       11.984491   0.000000
   11       15.204693   0.000000
   12       16.103354   0.000000
 
  0.5000000E+00 -0.5103601E-17  0.3333333E+00  0.1000000E-01
    1       -7.597534   1.000000
    2       -7.224482   1.000000
    3       -0.275757   1.000000
    4        0.336121   1.000000
    5        3.431713   1.000000
    6        3.908904   1.000000
    7        4.513142   1.000000
    8        4.616647   1.000000
    9       10.778799   0.000000
   10       11.734325   0.000000
   11       15.202108   0.000000
   12       15.943662   0.000000
 
  0.1000000E+00  0.1000000E+00  0.3333333E+00  0.2000000E-01
    1       -9.120348   1.000000
    2       -8.105766   1.000000
    3        0.973066   1.000000
    4        2.999039   1.000000
    5        3.923783   1.000000
    6        4.501254   1.000000
    7        4.988345   1.000000
    8        5.062491   1.000000
    9       12.436404   0.000000
   10       13.833878   0.000000
   11       15.060220   0.000000
   12       15.779531   0.000000
 
  0.2000000E+00  0.1000000E+00  0.3333333E+00  0.4000000E-01
    1       -8.661008   1.000000
    2       -7.764883   1.000000
    3        0.968214   1.000000
    4        2.048531   1.000000
    5        3.234652   1.000000
    6        4.069942   1.000000
    7        4.639939   1.000000
    8        4.947360   1.000000
    9       12.361499   0.000000
   10       13.186810   0.000000
   11       15.156877   0.000000
   12       15.958891   0.000000
 
  0.3000000E+00  0.1000000E+00  0.3333333E+00  0.4000000E-01
    1       -8.093987   1.000000
    2       -7.406101   1.000000
    3        0.470327   1.000000
    4        1.098881   1.000000
    5        3.046016   1.000000
    6        3.773220   1.000000
    7        4.284060   1.000000
    8        4.890119   1.000000
    9       11.691075   0.000000
   10       12.566698   0.000000
   11       15.104708   0.000000
   12       16.403487   0.000000
 
  0.4000000E+00  0.1000000E+00  0.3333333E+00  0.4000000E-01
    1       -7.625620   1.000000
    2       -7.214425   1.000000
    3       -0.075342   1.000000
    4        0.516350   1.000000
    5        3.040203   1.000000
    6        3.870304   1.000000
    7        4.055898   1.000000
    8        4.765207   1.000000
    9       11.167919   0.000000
   10       12.237891   0.000000
   11       15.222979   0.000000
   12       16.086522   0.000000
 
  0.2000000E+00  0.2000000E+00  0.3333333E+00  0.2000000E-01
    1       -8.170549   1.000000
    2       -7.444080   1.000000
    3        0.784760   1.000000
    4        1.282425   1.000000
    5        3.218507   1.000000
    6        3.268469   1.000000
    7        4.035769   1.000000
    8        4.945181   1.000000
    9       12.575402   0.000000
   10       12.644234   0.000000
   11       15.165315   0.000000
   12       15.973703   0.000000
 
  0.3000000E+00  0.2000000E+00  0.3333333E+00  0.4000000E-01
    1       -7.667097   1.000000
    2       -7.202796   1.000000
    3        0.427742   1.000000
    4        0.787103   1.000000
    5        2.439817   1.000000
    6        3.205298   1.000000
    7        3.905583   1.000000
    8        4.844558   1.000000
    9       11.974679   0.000000
   10       12.954967   0.000000
   11       14.881767   0.000000
   12       15.636913   0.000000
 
  0.4000000E+00  0.2000000E+00  0.3333333E+00  0.2000000E-01
    1       -7.404374   1.000000
    2       -7.153384   1.000000
    3        0.194738   1.000000
    4        0.691872   1.000000
    5        2.116603   1.000000
    6        3.048280   1.000000
    7        4.132973   1.000000
    8        4.696483   1.000000
    9       11.721817   0.000000
   10       13.124806   0.000000
   11       14.889379   0.000000
   12       15.174543   0.000000
 
  0.3000000E+00  0.3000000E+00  0.3333333E+00  0.2000000E-01
    1       -7.316114   1.000000
    2       -7.136628   1.000000
    3        0.724909   1.000000
    4        0.752785   1.000000
    5        1.515517   1.000000
    6        2.461592   1.000000
    7        4.270987   1.000000
    8        4.659186   1.000000
    9       12.126662   0.000000
   10       13.633502   0.000000
   11       14.524063   0.000000
   12       14.678815   0.000000
 
  0.0000000E+00  0.0000000E+00  0.5000000E+00  0.1666667E-02
    1       -9.000618   1.000000
    2       -9.000618   1.000000
    3        2.166743   1.000000
    4        2.166743   1.000000
    5        5.226722   1.000000
    6        5.226722   1.000000
    7        5.227431   1.000000
    8        5.227431   1.000000
    9       12.690745   0.000000
   10       12.690745   0.000000
   11       16.533705   0.000000
   12       16.533705   0.000000
 
  0.1000000E+00  0.3653319E-17  0.5000000E+00  0.1000000E-01
    1       -8.881233   1.000000
    2       -8.881232   1.000000
    3        2.143582   1.000000
    4        2.143592   1.000000
    5        4.806456   1.000000
    6        4.806466   1.000000
    7        5.112868   1.000000
    8        5.112872   1.000000
    9       12.967708   0.000000
   10       12.967715   0.000000
   11       15.863891   0.000000
   12       15.863907   0.000000
 
  0.2000000E+00 -0.1595253E-16  0.5000000E+00  0.1000000E-01
    1       -8.543826   1.000000
    2       -8.543824   1.000000
    3        1.883806   1.000000
    4        1.883825   1.000000
    5        4.149639   1.000000
    6        4.149658   1.000000
    7        4.837448   1.000000
    8        4.837451   1.000000
    9       12.896040   0.000000
   10       12.896053   0.000000
   11       15.607908   0.000000
   12       15.607927   0.000000
 
  0.3000000E+00 -0.1846095E-16  0.5000000E+00  0.1000000E-01
    1       -8.065310   1.000000
    2       -8.065309   1.000000
    3        1.096425   1.000000
    4        1.096445   1.000000
    5        3.974659   1.000000
    6        3.974676   1.000000
    7        4.545765   1.000000
    8        4.545768   1.000000
    9       12.094864   0.000000
   10       12.094872   0.000000
   11       15.819423   0.000000
   12       15.819432   0.000000
 
  0.4000000E+00 -0.3190507E-16  0.5000000E+00  0.1000000E-01
    1       -7.604979   1.000000
    2       -7.604976   1.000000
    3        0.234336   1.000000
    4        0.234352   1.000000
    5        4.116153   1.000000
    6        4.116167   1.000000
    7        4.332648   1.000000
    8        4.332651   1.000000
    9       11.417374   0.000000
   10       11.417379   0.000000
   11       15.570623   0.000000
   12       15.570632   0.000000
 
  0.5000000E+00 -0.5103601E-17  0.5000000E+00  0.5000000E-02
    1       -7.404688   1.000000
    2       -7.404685   1.000000
    3       -0.132336   1.000000
    4       -0.132320   1.000000
    5        4.209009   1.000000
    6        4.209022   1.000000
    7        4.234835   1.000000
    8        4.234838   1.000000
    9       11.165265   0.000000
   10       11.165268   0.000000
   11       15.392498   0.000000
   12       15.392508   0.000000
 
  0.1000000E+00  0.1000000E+00  0.5000000E+00  0.1000000E-01
    1       -8.652321   1.000000
    2       -8.652320   1.000000
    3        2.013437   1.000000
    4        2.013456   1.000000
    5        4.323687   1.000000
    6        4.323703   1.000000
    7        4.873144   1.000000
    8        4.873145   1.000000
    9       13.111633   0.000000
   10       13.111651   0.000000
   11       15.494629   0.000000
   12       15.494640   0.000000
 
  0.2000000E+00  0.1000000E+00  0.5000000E+00  0.2000000E-01
    1       -8.241394   1.000000
    2       -8.241392   1.000000
    3        1.494393   1.000000
    4        1.494416   1.000000
    5        3.935509   1.000000
    6        3.935524   1.000000
    7        4.542622   1.000000
    8        4.542629   1.000000
    9       12.670835   0.000000
   10       12.670852   0.000000
   11       15.734604   0.000000
   12       15.734610   0.000000
 
  0.3000000E+00  0.1000000E+00  0.5000000E+00  0.2000000E-01
    1       -7.762022   1.000000
    2       -7.762020   1.000000
    3        0.669560   1.000000
    4        0.669580   1.000000
    5        3.702281   1.000000
    6        3.702288   1.000000
    7        4.454048   1.000000
    8        4.454061   1.000000
    9       12.004567   0.000000
   10       12.004578   0.000000
   11       15.775916   0.000000
   12       15.775935   0.000000
 
  0.4000000E+00  0.1000000E+00  0.5000000E+00  0.2000000E-01
    1       -7.415468   1.000000
    2       -7.415465   1.000000
    3        0.065993   1.000000
    4        0.066009   1.000000
    5        3.532197   1.000000
    6        3.532204   1.000000
    7        4.550416   1.000000
    8        4.550429   1.000000
    9       11.591041   0.000000
   10       11.591046   0.000000
   11       15.550151   0.000000
   12       15.550172   0.000000
 
  0.2000000E+00  0.2000000E+00  0.5000000E+00  0.1000000E-01
    1       -7.822514   1.000000
    2       -7.822512   1.000000
    3        0.958231   1.000000
    4        0.958253   1.000000
    5        3.382411   1.000000
    6        3.382414   1.000000
    7        4.455932   1.000000
    8        4.455946   1.000000
    9       12.520588   0.000000
   10       12.520606   0.000000
   11       15.676619   0.000000
   12       15.676651   0.000000
 
  0.3000000E+00  0.2000000E+00  0.5000000E+00  0.2000000E-01
    1       -7.433378   1.000000
    2       -7.433375   1.000000
    3        0.488963   1.000000
    4        0.488982   1.000000
    5        2.757022   1.000000
    6        2.757025   1.000000
    7        4.638936   1.000000
    8        4.638950   1.000000
    9       12.389698   0.000000
   10       12.389712   0.000000
   11       15.258466   0.000000
   12       15.258500   0.000000
 
  0.4000000E+00  0.2000000E+00  0.5000000E+00  0.1000000E-01
    1       -7.268636   1.000000
    2       -7.268633   1.000000
    3        0.296085   1.000000
    4        0.296102   1.000000
    5        2.518152   1.000000
    6        2.518159   1.000000
    7        4.743718   1.000000
    8        4.743730   1.000000
    9       12.340818   0.000000
   10       12.340824   0.000000
   11       15.034074   0.000000
   12       15.034092   0.000000
 
  0.3000000E+00  0.3000000E+00  0.5000000E+00  0.1000000E-01
    1       -7.215183   1.000000
    2       -7.215180   1.000000
    3        0.620487   1.000000
    4        0.620507   1.000000
    5        1.871623   1.000000
    6        1.871626   1.000000
    7        4.805527   1.000000
    8        4.805540   1.000000
    9       12.988375   0.000000
   10       12.988391   0.000000
   11       14.296901   0.000000
   12       14.296926   0.000000
