          12
 Energy:  -29.794769899999999     
 X   0.00000000       0.00000000       0.00000000    
 X   3.11199999       0.00000000       0.00000000    
 X  -1.55599999       2.69507098       0.00000000    
 X   0.00000000       0.00000000       4.98199987    
 X   1.55599999       2.69507098       0.00000000    
 X   3.11199999       0.00000000       4.98199987    
 X  -1.55599999       2.69507098       4.98199987    
 X   1.55599999       2.69507098       4.98199987    
 Al   0.00000000       1.79671001       0.00000000    
 Al   1.55599999      0.898360014       2.49099994    
 N    0.00000000       1.79671001       3.11374998    
 N    1.55599999      0.898360014      0.622749984    
          12
 Energy:  -29.937308699999999     
 X   0.00000000       0.00000000       0.00000000    
 X   3.03912425      -0.00000000       0.00000000    
 X  -1.51956213       2.63195896       0.00000000    
 X   0.00000000      -0.00000000       4.89777374    
 X   1.51956213       2.63195896       0.00000000    
 X   3.03912425      -0.00000000       4.89777374    
 X  -1.51956213       2.63195896       4.89777374    
 X   1.51956213       2.63195896       4.89777374    
 Al   0.00000000       1.75463998       0.00000000    
 Al   1.51955998      0.877319992       2.44888997    
 N    0.00000000       1.75463998       3.06111002    
 N    1.51955998      0.877319992      0.612219989    
          12
 Energy:  -29.937421499999999     
 X   0.00000000       0.00000000       0.00000000    
 X   3.04115915      -0.00000000       0.00000000    
 X  -1.52057958       2.63372111       0.00000000    
 X   0.00000000      -0.00000000       4.90012598    
 X   1.52057958       2.63372111       0.00000000    
 X   3.04115915      -0.00000000       4.90012598    
 X  -1.52057958       2.63372111       4.90012598    
 X   1.52057958       2.63372111       4.90012598    
 Al   0.00000000       1.75581002       0.00000000    
 Al   1.52058005      0.877910018       2.45005989    
 N    0.00000000       1.75581002       3.06258011    
 N    1.52058005      0.877910018      0.612519979    
          12
 Energy:  -29.938069500000001     
 X   0.00000000       0.00000000       0.00000000    
 X   3.03876162      -0.00000000      -0.00000000    
 X  -1.51938081       2.63164473       0.00000000    
 X  -0.00000000       0.00000000       4.90942144    
 X   1.51938081       2.63164473       0.00000000    
 X   3.03876162       0.00000000       4.90942144    
 X  -1.51938081       2.63164473       4.90942144    
 X   1.51938081       2.63164473       4.90942144    
 Al   0.00000000       1.75443006       0.00000000    
 Al   1.51937997      0.877210021       2.45471001    
 N    0.00000000       1.75443006       3.06838989    
 N    1.51937997      0.877210021      0.613680005    
          12
 Energy:  -29.938122600000000     
 X   0.00000000       0.00000000       0.00000000    
 X   3.03778172      -0.00000000      -0.00000000    
 X  -1.51889086       2.63079619       0.00000000    
 X  -0.00000000       0.00000000       4.91322088    
 X   1.51889086       2.63079619       0.00000000    
 X   3.03778172       0.00000000       4.91322088    
 X  -1.51889086       2.63079619       4.91322088    
 X   1.51889086       2.63079619       4.91322088    
 Al   0.00000000       1.75386000       0.00000000    
 Al   1.51889002      0.876929998       2.45660996    
 N    0.00000000       1.75386000       3.07076001    
 N    1.51889002      0.876929998      0.614149988    
