       N       E                     dE             d eps       ncg     rms          rms(c)
DAV:   1     0.231587869582E+02    0.23159E+02   -0.63362E+03  1392   0.767E+02
DAV:   2    -0.330138718580E+02   -0.56173E+02   -0.53028E+02  1932   0.153E+02
DAV:   3    -0.340467539281E+02   -0.10329E+01   -0.10329E+01  1620   0.286E+01
DAV:   4    -0.340505372657E+02   -0.37833E-02   -0.37833E-02  2412   0.168E+00
DAV:   5    -0.340505381279E+02   -0.86213E-06   -0.86213E-06  1668   0.246E-02    0.112E+01
DAV:   6    -0.298574460443E+02    0.41931E+01   -0.22596E+01  1392   0.276E+01    0.457E+00
DAV:   7    -0.298090851230E+02    0.48361E-01   -0.17217E-01  2064   0.342E+00    0.308E+00
DAV:   8    -0.297947895770E+02    0.14296E-01   -0.33971E-02  1632   0.236E+00    0.589E-01
DAV:   9    -0.297943759021E+02    0.41367E-03   -0.67155E-04  2280   0.202E-01    0.300E-01
DAV:  10    -0.297947708671E+02   -0.39496E-03   -0.73654E-04  1728   0.216E-01    0.266E-02
DAV:  11    -0.297947699468E+02    0.92028E-06   -0.16995E-05  1968   0.304E-02
   1 F= -.29794770E+02 E0= -.29794770E+02  d E =-.297948E+02
       N       E                     dE             d eps       ncg     rms          rms(c)
DAV:   1    -0.300960955151E+02   -0.30132E+00   -0.44140E+00  1932   0.180E+01    0.267E+00
DAV:   2    -0.299415038088E+02    0.15459E+00   -0.78766E-01  1440   0.541E+00    0.506E-01
DAV:   3    -0.299385560947E+02    0.29477E-02   -0.15002E-02  1968   0.103E+00    0.256E-01
DAV:   4    -0.299375561094E+02    0.99999E-03   -0.44695E-04  1644   0.172E-01    0.141E-01
DAV:   5    -0.299373072729E+02    0.24884E-03   -0.21680E-04  2052   0.124E-01    0.355E-02
DAV:   6    -0.299373087875E+02   -0.15147E-05   -0.65787E-06  1260   0.220E-02
   2 F= -.29937309E+02 E0= -.29937309E+02  d E =-.142539E+00
       N       E                     dE             d eps       ncg     rms          rms(c)
DAV:   1    -0.299375497528E+02   -0.24248E-03   -0.33454E-03  1908   0.496E-01    0.750E-02
DAV:   2    -0.299374260224E+02    0.12373E-03   -0.62169E-04  1476   0.153E-01    0.145E-02
DAV:   3    -0.299374232573E+02    0.27650E-05   -0.11452E-05  1692   0.281E-02    0.755E-03
DAV:   4    -0.299374221196E+02    0.11378E-05   -0.32336E-07   720   0.495E-03    0.490E-03
DAV:   5    -0.299374215535E+02    0.56612E-06   -0.20292E-07   684   0.395E-03    0.347E-03
DAV:   6    -0.299374215025E+02    0.50963E-07   -0.28754E-08   708   0.143E-03
   3 F= -.29937422E+02 E0= -.29937422E+02  d E =-.142652E+00
       N       E                     dE             d eps       ncg     rms          rms(c)
DAV:   1    -0.299383472712E+02   -0.92572E-03   -0.19818E-02  1368   0.121E+00    0.929E-02
DAV:   2    -0.299381660780E+02    0.18119E-03   -0.35595E-04  2484   0.173E-01    0.533E-02
DAV:   3    -0.299380694769E+02    0.96601E-04   -0.19992E-04  2148   0.116E-01    0.581E-03
DAV:   4    -0.299380696627E+02   -0.18576E-06   -0.80860E-06   960   0.277E-02    0.447E-03
DAV:   5    -0.299380695353E+02    0.12739E-06   -0.10746E-06   708   0.914E-03    0.340E-03
DAV:   6    -0.299380695263E+02    0.89932E-08   -0.15505E-07   708   0.354E-03
   4 F= -.29938070E+02 E0= -.29938070E+02  d E =-.648024E-03
       N       E                     dE             d eps       ncg     rms          rms(c)
DAV:   1    -0.299381691986E+02   -0.99663E-04   -0.33021E-03  1344   0.496E-01    0.380E-02
DAV:   2    -0.299381388979E+02    0.30301E-04   -0.59540E-05  2544   0.710E-02    0.220E-02
DAV:   3    -0.299381226299E+02    0.16268E-04   -0.33402E-05  1980   0.474E-02    0.384E-03
DAV:   4    -0.299381226770E+02   -0.47152E-07   -0.13967E-06   720   0.116E-02    0.352E-03
DAV:   5    -0.299381226632E+02    0.13849E-07   -0.21518E-07   708   0.422E-03    0.333E-03
DAV:   6    -0.299381226546E+02    0.85595E-08   -0.29121E-08   708   0.159E-03
   5 F= -.29938123E+02 E0= -.29938123E+02  d E =-.701152E-03
