 vasp.5.4.4.18Apr17-6-g9f103f2a35 (build May 02 2017 15:33:50) complex          
  
 executed on Intel-16.0.3.210-OMP date 2018.10.23  23:23:23
 running on    6 total cores
 distrk:  each k-point on    6 cores,    1 groups
 distr:  one band on NCORES_PER_BAND=   1 cores,    6 groups


--------------------------------------------------------------------------------------------------------


 INCAR:
 POTCAR:    PAW Al_GW 19Mar2012                   
 POTCAR:    PAW_PBE N 08Apr2002                   

 ----------------------------------------------------------------------------- 
|                                                                             |
|           W    W    AA    RRRRR   N    N  II  N    N   GGGG   !!!           |
|           W    W   A  A   R    R  NN   N  II  NN   N  G    G  !!!           |
|           W    W  A    A  R    R  N N  N  II  N N  N  G       !!!           |
|           W WW W  AAAAAA  RRRRR   N  N N  II  N  N N  G  GGG   !            |
|           WW  WW  A    A  R   R   N   NN  II  N   NN  G    G                |
|           W    W  A    A  R    R  N    N  II  N    N   GGGG   !!!           |
|                                                                             |
|      For optimal performance we recommend to set                            |
|        NCORE= 4 - approx SQRT( number of cores)                             |
|      NCORE specifies how many cores store one orbital (NPAR=cpu/NCORE).     |
|      This setting can  greatly improve the performance of VASP for DFT.     |
|      The default,   NCORE=1            might be grossly inefficient         |
|      on modern multi-core architectures or massively parallel machines.     |
|      Do your own testing !!!!                                               |
|      Unfortunately you need to use the default for GW and RPA calculations. |
|      (for HF NCORE is supported but not extensively tested yet)             |
|                                                                             |
 ----------------------------------------------------------------------------- 

 POTCAR:    PAW Al_GW 19Mar2012                   
   VRHFIN =Al: s2p1                                                             
   LEXCH  = PE                                                                  
   EATOM  =    53.5387 eV,    3.9350 Ry                                         
                                                                                
   TITEL  = PAW Al_GW 19Mar2012                                                 
   LULTRA =        F    use ultrasoft PP ?                                      
   IUNSCR =        1    unscreen: 0-lin 1-nonlin 2-no                           
   RPACOR =    1.500    partial core radius                                     
   POMASS =   26.982; ZVAL   =    3.000    mass and valenz                      
   RCORE  =    2.000    outmost cutoff radius                                   
   RWIGS  =    2.000; RWIGS  =    1.058    wigner-seitz radius (au A)           
   ENMAX  =  240.300; ENMIN  =  180.225 eV                                      
   ICORE  =        3    local potential                                         
   LCOR   =        T    correct aug charges                                     
   LPAW   =        T    paw PP                                                  
   EAUG   =  482.059                                                            
   DEXC   =    0.000                                                            
   RMAX   =    2.051    core radius for proj-oper                               
   RAUG   =    1.300    factor for augmentation sphere                          
   RDEP   =    2.096    radius for radial grids                                 
   RDEPT  =    1.856    core radius for aug-charge                              
                                                                                
   Atomic configuration                                                         
    7 entries                                                                   
     n  l   j            E        occ.                                          
     1  0  0.50     -1511.1048   2.0000                                         
     2  0  0.50      -108.1629   2.0000                                         
     2  1  1.50       -69.6402   6.0000                                         
     3  0  0.50        -7.7528   2.0000                                         
     3  1  1.50        -2.7121   1.0000                                         
     3  2  2.50        -2.7212   0.0000                                         
     4  3  2.50        -2.7212   0.0000                                         
   Description                                                                  
     l       E           TYP  RCUT    TYP  RCUT                                 
     0     -7.7528455     23  1.900                                             
     0     68.0291300     23  1.900                                             
     1     -2.7120682     23  1.900                                             
     1     68.0291300     23  1.900                                             
     2     -1.3605826     23  1.900                                             
     2     81.6349560     23  1.900                                             
     3     74.8320430     23  2.000                                             
  local pseudopotential read in
  partial core-charges read in
  partial kinetic energy density read in
  kinetic energy density of atom read in
  atomic valenz-charges read in
  non local Contribution for L=           0  read in
    real space projection operators read in
  non local Contribution for L=           0  read in
    real space projection operators read in
  non local Contribution for L=           1  read in
    real space projection operators read in
  non local Contribution for L=           1  read in
    real space projection operators read in
  non local Contribution for L=           2  read in
    real space projection operators read in
  non local Contribution for L=           2  read in
    real space projection operators read in
    PAW grid and wavefunctions read in
 
   number of l-projection  operators is LMAX  =           6
   number of lm-projection operators is LMMAX =          18
 
 POTCAR:    PAW_PBE N 08Apr2002                   
   VRHFIN =N: s2p3                                                              
   LEXCH  = PE                                                                  
   EATOM  =   264.5486 eV,   19.4438 Ry                                         
                                                                                
   TITEL  = PAW_PBE N 08Apr2002                                                 
   LULTRA =        F    use ultrasoft PP ?                                      
   IUNSCR =        1    unscreen: 0-lin 1-nonlin 2-no                           
   RPACOR =    1.200    partial core radius                                     
   POMASS =   14.001; ZVAL   =    5.000    mass and valenz                      
   RCORE  =    1.500    outmost cutoff radius                                   
   RWIGS  =    1.400; RWIGS  =    0.741    wigner-seitz radius (au A)           
   ENMAX  =  400.000; ENMIN  =  300.000 eV                                      
   ICORE  =        2    local potential                                         
   LCOR   =        T    correct aug charges                                     
   LPAW   =        T    paw PP                                                  
   EAUG   =  627.112                                                            
   DEXC   =    0.000                                                            
   RMAX   =    1.529    core radius for proj-oper                               
   RAUG   =    1.300    factor for augmentation sphere                          
   RDEP   =    1.514    radius for radial grids                                 
   RDEPT  =    1.338    core radius for aug-charge                              
                                                                                
   Atomic configuration                                                         
    4 entries                                                                   
     n  l   j            E        occ.                                          
     1  0  0.50      -384.7179   2.0000                                         
     2  0  0.50       -18.5828   2.0000                                         
     2  1  0.50        -7.0898   3.0000                                         
     3  2  1.50        -6.8029   0.0000                                         
   Description                                                                  
     l       E           TYP  RCUT    TYP  RCUT                                 
     0    -18.5828119     23  1.200                                             
     0    -13.5018863     23  1.200                                             
     1     -7.0897853     23  1.500                                             
     1      9.5240782     23  1.500                                             
     2     -6.8029130      7  1.500                                             
  local pseudopotential read in
  partial core-charges read in
  partial kinetic energy density read in
  atomic valenz-charges read in
  non local Contribution for L=           0  read in
    real space projection operators read in
  non local Contribution for L=           0  read in
    real space projection operators read in
  non local Contribution for L=           1  read in
    real space projection operators read in
  non local Contribution for L=           1  read in
    real space projection operators read in
    PAW grid and wavefunctions read in
 
   number of l-projection  operators is LMAX  =           4
   number of lm-projection operators is LMMAX =           8
 

 ----------------------------------------------------------------------------- 
|                                                                             |
|  ADVICE TO THIS USER RUNNING 'VASP/VAMP'   (HEAR YOUR MASTER'S VOICE ...):  |
|                                                                             |
|      You have a (more or less) 'small supercell' and for smaller cells      |
|      it is recommended  to use the reciprocal-space projection scheme!      |
|      The real space optimization is not  efficient for small cells and it   |
|      is also less accurate ...                                              |
|      Therefore set LREAL=.FALSE. in the  INCAR file                         |
|                                                                             |
 ----------------------------------------------------------------------------- 

 Optimization of the real space projectors (new method)

 maximal supplied QI-value         = 18.90
 optimisation between [QCUT,QGAM] = [  8.69, 17.57] = [ 21.16, 86.49] Ry 
 Optimized for a Real-space Cutoff    1.59 Angstroem

   l    n(q)    QCUT    max X(q) W(low)/X(q) W(high)/X(q)  e(spline) 
   0      8     8.693    11.519    0.12E-03    0.31E-04    0.21E-06
   0      8     8.693     5.834    0.89E-04    0.32E-04    0.16E-06
   1      8     8.693    10.132    0.25E-03    0.39E-03    0.25E-06
   1      8     8.693     3.004    0.16E-03    0.27E-03    0.22E-06
   2      7     8.693     3.169    0.39E-03    0.93E-03    0.44E-06
   2      7     8.693     1.605    0.70E-04    0.91E-04    0.19E-06
 Optimization of the real space projectors (new method)

 maximal supplied QI-value         = 25.13
 optimisation between [QCUT,QGAM] = [  8.80, 17.59] = [ 21.67, 86.68] Ry 
 Optimized for a Real-space Cutoff    2.14 Angstroem

   l    n(q)    QCUT    max X(q) W(low)/X(q) W(high)/X(q)  e(spline) 
   0     11     8.797    79.467    0.70E-04    0.19E-04    0.19E-05
   0     11     8.797    66.151    0.68E-04    0.18E-04    0.19E-05
   1     11     8.797     6.738    0.26E-03    0.11E-02    0.73E-05
   1     11     8.797     5.013    0.25E-03    0.11E-02    0.72E-05
  PAW Al_GW 19Mar2012                   :
 energy of atom  1       EATOM=  -53.5387
 kinetic energy error for atom=    0.0011 (will be added to EATOM!!)
  PAW_PBE N 08Apr2002                   :
 energy of atom  2       EATOM= -264.5486
 kinetic energy error for atom=    0.6882 (will be added to EATOM!!)
 
 
 POSCAR: New structure                           
  positions in cartesian coordinates
  No initial velocities read in
 exchange correlation table for  LEXCH =        8
   RHO(1)=    0.500       N(1)  =     2000
   RHO(2)=  100.500       N(2)  =     4000
 


--------------------------------------------------------------------------------------------------------


 ion  position               nearest neighbor table
   1  0.333  0.667  0.000-   3 1.87   4 1.90   4 1.90   4 1.90
   2  0.667  0.333  0.500-   4 1.87   3 1.90   3 1.90   3 1.90
   3  0.333  0.667  0.625-   1 1.87   2 1.90   2 1.90   2 1.90
   4  0.667  0.333  0.125-   2 1.87   1 1.90   1 1.90   1 1.90
 
  LATTYP: Found a hexagonal cell.
 ALAT       =     3.1120000000
 C/A-ratio  =     1.6008997429
  
  Lattice vectors:
  
 A1 = (   3.1120000000,   0.0000000000,   0.0000000000)
 A2 = (  -1.5560000000,   2.6950710566,   0.0000000000)
 A3 = (   0.0000000000,   0.0000000000,   4.9820000000)


Analysis of symmetry for initial positions (statically):
=====================================================================
 Subroutine PRICEL returns:
 Original cell was already a primitive cell.
 

 Routine SETGRP: Setting up the symmetry group for a 
 hexagonal supercell.


 Subroutine GETGRP returns: Found 12 space group operations
 (whereof  6 operations were pure point group operations)
 out of a pool of 24 trial point group operations.


The static configuration has the point symmetry C_3v.
 The point group associated with its full space group is C_6v.


Analysis of symmetry for dynamics (positions and initial velocities):
=====================================================================
 Subroutine PRICEL returns:
 Original cell was already a primitive cell.
 

 Routine SETGRP: Setting up the symmetry group for a 
 hexagonal supercell.


 Subroutine GETGRP returns: Found 12 space group operations
 (whereof  6 operations were pure point group operations)
 out of a pool of 24 trial point group operations.


The dynamic configuration has the point symmetry C_3v.
 The point group associated with its full space group is C_6v.


 Subroutine INISYM returns: Found 12 space group operations
 (whereof  6 operations are pure point group operations),
 and found     1 'primitive' translations

 
 
 KPOINTS: Automatic generation                    

Automatic generation of k-mesh.
Space group operators:
 irot       det(A)        alpha          n_x          n_y          n_z        tau_x        tau_y        tau_z
    1     1.000000     0.000000     1.000000     0.000000     0.000000     0.000000     0.000000     0.000000
    2     1.000000   120.000000     0.000000     0.000000    -1.000000     0.000000     0.000000     0.000000
    3     1.000000   120.000000     0.000000     0.000000     1.000000     0.000000     0.000000     0.000000
    4    -1.000000   180.000000     1.000000    -0.000000     0.000000     0.000000     0.000000     0.000000
    5    -1.000000   180.000000     0.500000    -0.866025     0.000000     0.000000     0.000000     0.000000
    6    -1.000000   180.000000    -0.500000    -0.866025     0.000000     0.000000     0.000000     0.000000
    7     1.000000    60.000000     0.000000     0.000000    -1.000000     0.000000     0.000000     0.500000
    8     1.000000   180.000000     0.000000     0.000000     1.000000     0.000000     0.000000     0.500000
    9     1.000000    60.000000     0.000000     0.000000     1.000000    -0.000000     0.000000     0.500000
   10    -1.000000   180.000000     0.866025    -0.500000     0.000000     0.000000     0.000000     0.500000
   11    -1.000000   180.000000     0.000000     1.000000     0.000000     0.000000     0.000000     0.500000
   12    -1.000000   180.000000     0.866025     0.500000     0.000000    -0.000000     0.000000     0.500000
 
 Subroutine IBZKPT returns following result:
 ===========================================
 
 Found     56 irreducible k-points:
 
 Following reciprocal coordinates:
            Coordinates               Weight
  0.000000  0.000000  0.000000      1.000000
  0.100000  0.000000  0.000000      6.000000
  0.200000 -0.000000  0.000000      6.000000
  0.300000 -0.000000  0.000000      6.000000
  0.400000 -0.000000  0.000000      6.000000
  0.500000 -0.000000  0.000000      3.000000
  0.100000  0.100000  0.000000      6.000000
  0.200000  0.100000  0.000000     12.000000
  0.300000  0.100000  0.000000     12.000000
  0.400000  0.100000  0.000000     12.000000
  0.200000  0.200000  0.000000      6.000000
  0.300000  0.200000  0.000000     12.000000
  0.400000  0.200000  0.000000      6.000000
  0.300000  0.300000  0.000000      6.000000
  0.000000  0.000000  0.166667      2.000000
  0.100000  0.000000  0.166667     12.000000
  0.200000 -0.000000  0.166667     12.000000
  0.300000 -0.000000  0.166667     12.000000
  0.400000 -0.000000  0.166667     12.000000
  0.500000 -0.000000  0.166667      6.000000
  0.100000  0.100000  0.166667     12.000000
  0.200000  0.100000  0.166667     24.000000
  0.300000  0.100000  0.166667     24.000000
  0.400000  0.100000  0.166667     24.000000
  0.200000  0.200000  0.166667     12.000000
  0.300000  0.200000  0.166667     24.000000
  0.400000  0.200000  0.166667     12.000000
  0.300000  0.300000  0.166667     12.000000
  0.000000  0.000000  0.333333      2.000000
  0.100000  0.000000  0.333333     12.000000
  0.200000 -0.000000  0.333333     12.000000
  0.300000 -0.000000  0.333333     12.000000
  0.400000 -0.000000  0.333333     12.000000
  0.500000 -0.000000  0.333333      6.000000
  0.100000  0.100000  0.333333     12.000000
  0.200000  0.100000  0.333333     24.000000
  0.300000  0.100000  0.333333     24.000000
  0.400000  0.100000  0.333333     24.000000
  0.200000  0.200000  0.333333     12.000000
  0.300000  0.200000  0.333333     24.000000
  0.400000  0.200000  0.333333     12.000000
  0.300000  0.300000  0.333333     12.000000
  0.000000  0.000000  0.500000      1.000000
  0.100000  0.000000  0.500000      6.000000
  0.200000 -0.000000  0.500000      6.000000
  0.300000 -0.000000  0.500000      6.000000
  0.400000 -0.000000  0.500000      6.000000
  0.500000 -0.000000  0.500000      3.000000
  0.100000  0.100000  0.500000      6.000000
  0.200000  0.100000  0.500000     12.000000
  0.300000  0.100000  0.500000     12.000000
  0.400000  0.100000  0.500000     12.000000
  0.200000  0.200000  0.500000      6.000000
  0.300000  0.200000  0.500000     12.000000
  0.400000  0.200000  0.500000      6.000000
  0.300000  0.300000  0.500000      6.000000
 
 Following cartesian coordinates:
            Coordinates               Weight
  0.000000  0.000000  0.000000      1.000000
  0.032134  0.018552  0.000000      6.000000
  0.064267  0.037105  0.000000      6.000000
  0.096401  0.055657  0.000000      6.000000
  0.128535  0.074210  0.000000      6.000000
  0.160668  0.092762  0.000000      3.000000
  0.032134  0.055657  0.000000      6.000000
  0.064267  0.074210  0.000000     12.000000
  0.096401  0.092762  0.000000     12.000000
  0.128535  0.111314  0.000000     12.000000
  0.064267  0.111314  0.000000      6.000000
  0.096401  0.129867  0.000000     12.000000
  0.128535  0.148419  0.000000      6.000000
  0.096401  0.166971  0.000000      6.000000
  0.000000  0.000000  0.033454      2.000000
  0.032134  0.018552  0.033454     12.000000
  0.064267  0.037105  0.033454     12.000000
  0.096401  0.055657  0.033454     12.000000
  0.128535  0.074210  0.033454     12.000000
  0.160668  0.092762  0.033454      6.000000
  0.032134  0.055657  0.033454     12.000000
  0.064267  0.074210  0.033454     24.000000
  0.096401  0.092762  0.033454     24.000000
  0.128535  0.111314  0.033454     24.000000
  0.064267  0.111314  0.033454     12.000000
  0.096401  0.129867  0.033454     24.000000
  0.128535  0.148419  0.033454     12.000000
  0.096401  0.166971  0.033454     12.000000
  0.000000  0.000000  0.066908      2.000000
  0.032134  0.018552  0.066908     12.000000
  0.064267  0.037105  0.066908     12.000000
  0.096401  0.055657  0.066908     12.000000
  0.128535  0.074210  0.066908     12.000000
  0.160668  0.092762  0.066908      6.000000
  0.032134  0.055657  0.066908     12.000000
  0.064267  0.074210  0.066908     24.000000
  0.096401  0.092762  0.066908     24.000000
  0.128535  0.111314  0.066908     24.000000
  0.064267  0.111314  0.066908     12.000000
  0.096401  0.129867  0.066908     24.000000
  0.128535  0.148419  0.066908     12.000000
  0.096401  0.166971  0.066908     12.000000
  0.000000  0.000000  0.100361      1.000000
  0.032134  0.018552  0.100361      6.000000
  0.064267  0.037105  0.100361      6.000000
  0.096401  0.055657  0.100361      6.000000
  0.128535  0.074210  0.100361      6.000000
  0.160668  0.092762  0.100361      3.000000
  0.032134  0.055657  0.100361      6.000000
  0.064267  0.074210  0.100361     12.000000
  0.096401  0.092762  0.100361     12.000000
  0.128535  0.111314  0.100361     12.000000
  0.064267  0.111314  0.100361      6.000000
  0.096401  0.129867  0.100361     12.000000
  0.128535  0.148419  0.100361      6.000000
  0.096401  0.166971  0.100361      6.000000
 


--------------------------------------------------------------------------------------------------------




 Dimension of arrays:
   k-points           NKPTS =     56   k-points in BZ     NKDIM =     56   number of bands    NBANDS=     12
   number of dos      NEDOS =    301   number of ions     NIONS =      4
   non local maximal  LDIM  =      6   non local SUM 2l+1 LMDIM =     18
   total plane-waves  NPLWV =   4704
   max r-space proj   IRMAX =   4686   max aug-charges    IRDMAX=   4580
   dimension x,y,z NGX =    14 NGY =   14 NGZ =   24
   dimension x,y,z NGXF=    28 NGYF=   28 NGZF=   48
   support grid    NGXF=    28 NGYF=   28 NGZF=   48
   ions per type =               2   2
   NGX,Y,Z   is equivalent  to a cutoff of   7.48,  7.48,  8.01 a.u.
   NGXF,Y,Z  is equivalent  to a cutoff of  14.96, 14.96, 16.02 a.u.

 SYSTEM =  NiAl                                    
 POSCAR =  New structure                           

 Startparameter for this run:
   NWRITE =      2    write-flag & timer
   PREC   = normal    normal or accurate (medium, high low for compatibility)
   ISTART =      0    job   : 0-new  1-cont  2-samecut
   ICHARG =      2    charge: 1-file 2-atom 10-const
   ISPIN  =      1    spin polarized calculation?
   LNONCOLLINEAR =      F non collinear calculations
   LSORBIT =      F    spin-orbit coupling
   INIWAV =      1    electr: 0-lowe 1-rand  2-diag
   LASPH  =      F    aspherical Exc in radial PAW
   METAGGA=      F    non-selfconsistent MetaGGA calc.

 Electronic Relaxation 1
   ENCUT  =  300.0 eV  22.05 Ry    4.70 a.u.   4.39  4.39  7.04*2*pi/ulx,y,z
   ENINI  =  300.0     initial cutoff
   ENAUG  =  627.1 eV  augmentation charge cutoff
   NELM   =     60;   NELMIN=  6; NELMDL= -5     # of ELM steps 
   EDIFF  = 0.5E-05   stopping-criterion for ELM
   LREAL  =      T    real-space projection
   NLSPLINE    = F    spline interpolate recip. space projectors
   LCOMPAT=      F    compatible to vasp.4.4
   GGA_COMPAT  = T    GGA compatible to vasp.4.4-vasp.4.6
   LMAXPAW     = -100 max onsite density
   LMAXMIX     =    2 max onsite mixed and CHGCAR
   VOSKOWN=      0    Vosko Wilk Nusair interpolation
   ROPT   =   -0.00050  -0.00050
 Ionic relaxation
   EDIFFG = 0.5E-04   stopping-criterion for IOM
   NSW    =     40    number of steps for IOM
   NBLOCK =      1;   KBLOCK =     40    inner block; outer block 
   IBRION =      2    ionic relax: 0-MD 1-quasi-New 2-CG
   NFREE  =      1    steps in history (QN), initial steepest desc. (CG)
   ISIF   =      6    stress and relaxation
   IWAVPR =     11    prediction:  0-non 1-charg 2-wave 3-comb
   ISYM   =      2    0-nonsym 1-usesym 2-fastsym
   LCORR  =      T    Harris-Foulkes like correction to forces

   POTIM  = 0.2000    time-step for ionic-motion
   TEIN   =    0.0    initial temperature
   TEBEG  =    0.0;   TEEND  =   0.0 temperature during run
   SMASS  =  -3.00    Nose mass-parameter (am)
   estimated Nose-frequenzy (Omega)   =  0.10E-29 period in steps =****** mass=  -0.221E-27a.u.
   SCALEE = 1.0000    scale energy and forces
   NPACO  =    256;   APACO  = 16.0  distance and # of slots for P.C.
   PSTRESS=    0.0 pullay stress

  Mass of Ions in am
   POMASS =  26.98 14.00
  Ionic Valenz
   ZVAL   =   3.00  5.00
  Atomic Wigner-Seitz radii
   RWIGS  =  -1.00 -1.00
  virtual crystal weights 
   VCA    =   1.00  1.00
   NELECT =      16.0000    total number of electrons
   NUPDOWN=      -1.0000    fix difference up-down

 DOS related values:
   EMIN   =  10.00;   EMAX   =-10.00  energy-range for DOS
   EFERMI =   0.00
   ISMEAR =     0;   SIGMA  =   0.05  broadening in eV -4-tet -1-fermi 0-gaus

 Electronic relaxation 2 (details)
   IALGO  =     38    algorithm
   LDIAG  =      T    sub-space diagonalisation (order eigenvalues)
   LSUBROT=      F    optimize rotation matrix (better conditioning)
   TURBO    =      0    0=normal 1=particle mesh
   IRESTART =      0    0=no restart 2=restart with 2 vectors
   NREBOOT  =      0    no. of reboots
   NMIN     =      0    reboot dimension
   EREF     =   0.00    reference energy to select bands
   IMIX   =      4    mixing-type and parameters
     AMIX     =   0.40;   BMIX     =  1.00
     AMIX_MAG =   1.60;   BMIX_MAG =  1.00
     AMIN     =   0.10
     WC   =   100.;   INIMIX=   1;  MIXPRE=   1;  MAXMIX= -45

 Intra band minimization:
   WEIMIN = 0.0010     energy-eigenvalue tresh-hold
   EBREAK =  0.10E-06  absolut break condition
   DEPER  =   0.30     relativ break condition  

   TIME   =   0.40     timestep for ELM

  volume/ion in A,a.u.               =      10.45        70.49
  Fermi-wavevector in a.u.,A,eV,Ry     =   1.188804  2.246514 19.228506  1.413255
  Thomas-Fermi vector in A             =   2.324926
 
 Write flags
   LWAVE        =      F    write WAVECAR
   LDOWNSAMPLE  =      F    k-point downsampling of WAVECAR
   LCHARG       =      F    write CHGCAR
   LVTOT        =      F    write LOCPOT, total local potential
   LVHAR        =      F    write LOCPOT, Hartree potential only
   LELF         =      F    write electronic localiz. function (ELF)
   LORBIT       =      0    0 simple, 1 ext, 2 COOP (PROOUT), +10 PAW based schemes


 Dipole corrections
   LMONO  =      F    monopole corrections only (constant potential shift)
   LDIPOL =      F    correct potential (dipole corrections)
   IDIPOL =      0    1-x, 2-y, 3-z, 4-all directions 
   EPSILON=  1.0000000 bulk dielectric constant

 Exchange correlation treatment:
   GGA     =    --    GGA type
   LEXCH   =     8    internal setting for exchange type
   VOSKOWN=      0    Vosko Wilk Nusair interpolation
   LHFCALC =     F    Hartree Fock is set to
   LHFONE  =     F    Hartree Fock one center treatment
   AEXX    =    0.0000 exact exchange contribution

 Linear response parameters
   LEPSILON=     F    determine dielectric tensor
   LRPA    =     F    only Hartree local field effects (RPA)
   LNABLA  =     F    use nabla operator in PAW spheres
   LVEL    =     F    velocity operator in full k-point grid
   LINTERFAST=   F  fast interpolation
   KINTER  =     0    interpolate to denser k-point grid
   CSHIFT  =0.1000    complex shift for real part using Kramers Kronig
   OMEGAMAX=  -1.0    maximum frequency
   DEG_THRESHOLD= 0.2000000E-02 threshold for treating states as degnerate
   RTIME   =   -0.100 relaxation time in fs
  (WPLASMAI=    0.000 imaginary part of plasma frequency in eV, 0.658/RTIME)
   DFIELD  = 0.0000000 0.0000000 0.0000000 field for delta impulse in time
 
 Orbital magnetization related:
   ORBITALMAG=     F  switch on orbital magnetization
   LCHIMAG   =     F  perturbation theory with respect to B field
   DQ        =  0.001000  dq finite difference perturbation B field
   LLRAUG    =     F  two centre corrections for induced B field



--------------------------------------------------------------------------------------------------------


 conjugate gradient relaxation of ions
 charge density and potential will be updated during run
 non-spin polarized calculation
 Variant of blocked Davidson
 Davidson routine will perform the subspace rotation
 perform sub-space diagonalisation
    after iterative eigenvector-optimisation
 modified Broyden-mixing scheme, WC =      100.0
 initial mixing is a Kerker type mixing with AMIX =  0.4000 and BMIX =      1.0000
 Hartree-type preconditioning will be used
 using additional bands            4
 real space projection scheme for non local part
 use partial core corrections
 calculate Harris-corrections to forces 
   (improved forces if not selfconsistent)
 use gradient corrections 
 use of overlap-Matrix (Vanderbilt PP)
 Gauss-broadening in eV      SIGMA  =   0.05


--------------------------------------------------------------------------------------------------------


  energy-cutoff  :      300.00
  volume of cell :       41.78
      direct lattice vectors                 reciprocal lattice vectors
     3.112000000  0.000000000  0.000000000     0.321336761  0.185523865  0.000000000
    -1.556000000  2.695071057  0.000000000     0.000000000  0.371047731  0.000000000
     0.000000000  0.000000000  4.982000000     0.000000000  0.000000000  0.200722601

  length of vectors
     3.112000000  3.112000000  4.982000000     0.371047731  0.371047731  0.200722601


 
 k-points in units of 2pi/SCALE and weight: Automatic generation                    
   0.00000000  0.00000000  0.00000000       0.002
   0.03213368  0.01855239  0.00000000       0.010
   0.06426735  0.03710477  0.00000000       0.010
   0.09640103  0.05565716  0.00000000       0.010
   0.12853470  0.07420955  0.00000000       0.010
   0.16066838  0.09276193  0.00000000       0.005
   0.03213368  0.05565716  0.00000000       0.010
   0.06426735  0.07420955  0.00000000       0.020
   0.09640103  0.09276193  0.00000000       0.020
   0.12853470  0.11131432  0.00000000       0.020
   0.06426735  0.11131432  0.00000000       0.010
   0.09640103  0.12986671  0.00000000       0.020
   0.12853470  0.14841909  0.00000000       0.010
   0.09640103  0.16697148  0.00000000       0.010
   0.00000000  0.00000000  0.03345377       0.003
   0.03213368  0.01855239  0.03345377       0.020
   0.06426735  0.03710477  0.03345377       0.020
   0.09640103  0.05565716  0.03345377       0.020
   0.12853470  0.07420955  0.03345377       0.020
   0.16066838  0.09276193  0.03345377       0.010
   0.03213368  0.05565716  0.03345377       0.020
   0.06426735  0.07420955  0.03345377       0.040
   0.09640103  0.09276193  0.03345377       0.040
   0.12853470  0.11131432  0.03345377       0.040
   0.06426735  0.11131432  0.03345377       0.020
   0.09640103  0.12986671  0.03345377       0.040
   0.12853470  0.14841909  0.03345377       0.020
   0.09640103  0.16697148  0.03345377       0.020
   0.00000000  0.00000000  0.06690753       0.003
   0.03213368  0.01855239  0.06690753       0.020
   0.06426735  0.03710477  0.06690753       0.020
   0.09640103  0.05565716  0.06690753       0.020
   0.12853470  0.07420955  0.06690753       0.020
   0.16066838  0.09276193  0.06690753       0.010
   0.03213368  0.05565716  0.06690753       0.020
   0.06426735  0.07420955  0.06690753       0.040
   0.09640103  0.09276193  0.06690753       0.040
   0.12853470  0.11131432  0.06690753       0.040
   0.06426735  0.11131432  0.06690753       0.020
   0.09640103  0.12986671  0.06690753       0.040
   0.12853470  0.14841909  0.06690753       0.020
   0.09640103  0.16697148  0.06690753       0.020
   0.00000000  0.00000000  0.10036130       0.002
   0.03213368  0.01855239  0.10036130       0.010
   0.06426735  0.03710477  0.10036130       0.010
   0.09640103  0.05565716  0.10036130       0.010
   0.12853470  0.07420955  0.10036130       0.010
   0.16066838  0.09276193  0.10036130       0.005
   0.03213368  0.05565716  0.10036130       0.010
   0.06426735  0.07420955  0.10036130       0.020
   0.09640103  0.09276193  0.10036130       0.020
   0.12853470  0.11131432  0.10036130       0.020
   0.06426735  0.11131432  0.10036130       0.010
   0.09640103  0.12986671  0.10036130       0.020
   0.12853470  0.14841909  0.10036130       0.010
   0.09640103  0.16697148  0.10036130       0.010
 
 k-points in reciprocal lattice and weights: Automatic generation                    
   0.00000000  0.00000000  0.00000000       0.002
   0.10000000  0.00000000  0.00000000       0.010
   0.20000000 -0.00000000  0.00000000       0.010
   0.30000000 -0.00000000  0.00000000       0.010
   0.40000000 -0.00000000  0.00000000       0.010
   0.50000000 -0.00000000  0.00000000       0.005
   0.10000000  0.10000000  0.00000000       0.010
   0.20000000  0.10000000  0.00000000       0.020
   0.30000000  0.10000000  0.00000000       0.020
   0.40000000  0.10000000  0.00000000       0.020
   0.20000000  0.20000000  0.00000000       0.010
   0.30000000  0.20000000  0.00000000       0.020
   0.40000000  0.20000000  0.00000000       0.010
   0.30000000  0.30000000  0.00000000       0.010
   0.00000000  0.00000000  0.16666667       0.003
   0.10000000  0.00000000  0.16666667       0.020
   0.20000000 -0.00000000  0.16666667       0.020
   0.30000000 -0.00000000  0.16666667       0.020
   0.40000000 -0.00000000  0.16666667       0.020
   0.50000000 -0.00000000  0.16666667       0.010
   0.10000000  0.10000000  0.16666667       0.020
   0.20000000  0.10000000  0.16666667       0.040
   0.30000000  0.10000000  0.16666667       0.040
   0.40000000  0.10000000  0.16666667       0.040
   0.20000000  0.20000000  0.16666667       0.020
   0.30000000  0.20000000  0.16666667       0.040
   0.40000000  0.20000000  0.16666667       0.020
   0.30000000  0.30000000  0.16666667       0.020
   0.00000000  0.00000000  0.33333333       0.003
   0.10000000  0.00000000  0.33333333       0.020
   0.20000000 -0.00000000  0.33333333       0.020
   0.30000000 -0.00000000  0.33333333       0.020
   0.40000000 -0.00000000  0.33333333       0.020
   0.50000000 -0.00000000  0.33333333       0.010
   0.10000000  0.10000000  0.33333333       0.020
   0.20000000  0.10000000  0.33333333       0.040
   0.30000000  0.10000000  0.33333333       0.040
   0.40000000  0.10000000  0.33333333       0.040
   0.20000000  0.20000000  0.33333333       0.020
   0.30000000  0.20000000  0.33333333       0.040
   0.40000000  0.20000000  0.33333333       0.020
   0.30000000  0.30000000  0.33333333       0.020
   0.00000000  0.00000000  0.50000000       0.002
   0.10000000  0.00000000  0.50000000       0.010
   0.20000000 -0.00000000  0.50000000       0.010
   0.30000000 -0.00000000  0.50000000       0.010
   0.40000000 -0.00000000  0.50000000       0.010
   0.50000000 -0.00000000  0.50000000       0.005
   0.10000000  0.10000000  0.50000000       0.010
   0.20000000  0.10000000  0.50000000       0.020
   0.30000000  0.10000000  0.50000000       0.020
   0.40000000  0.10000000  0.50000000       0.020
   0.20000000  0.20000000  0.50000000       0.010
   0.30000000  0.20000000  0.50000000       0.020
   0.40000000  0.20000000  0.50000000       0.010
   0.30000000  0.30000000  0.50000000       0.010
 
 position of ions in fractional coordinates (direct lattice) 
   0.33333333  0.66666667  0.00000000
   0.66666667  0.33333333  0.50000000
   0.33333333  0.66666667  0.62500000
   0.66666667  0.33333333  0.12500000
 
 position of ions in cartesian coordinates  (Angst):
   0.00000000  1.79671404  0.00000000
   1.55600000  0.89835702  2.49100000
   0.00000000  1.79671404  3.11375000
   1.55600000  0.89835702  0.62275000
 


--------------------------------------------------------------------------------------------------------


 k-point  1 :   0.0000 0.0000 0.0000  plane waves:     513
 k-point  2 :   0.1000 0.0000 0.0000  plane waves:     507
 k-point  3 :   0.2000-0.0000 0.0000  plane waves:     498
 k-point  4 :   0.3000-0.0000 0.0000  plane waves:     484
 k-point  5 :   0.4000-0.0000 0.0000  plane waves:     484
 k-point  6 :   0.5000-0.0000 0.0000  plane waves:     484
 k-point  7 :   0.1000 0.1000 0.0000  plane waves:     495
 k-point  8 :   0.2000 0.1000 0.0000  plane waves:     496
 k-point  9 :   0.3000 0.1000 0.0000  plane waves:     495
 k-point 10 :   0.4000 0.1000 0.0000  plane waves:     482
 k-point 11 :   0.2000 0.2000 0.0000  plane waves:     488
 k-point 12 :   0.3000 0.2000 0.0000  plane waves:     488
 k-point 13 :   0.4000 0.2000 0.0000  plane waves:     484
 k-point 14 :   0.3000 0.3000 0.0000  plane waves:     486
 k-point 15 :   0.0000 0.0000 0.1667  plane waves:     512
 k-point 16 :   0.1000 0.0000 0.1667  plane waves:     506
 k-point 17 :   0.2000-0.0000 0.1667  plane waves:     496
 k-point 18 :   0.3000-0.0000 0.1667  plane waves:     489
 k-point 19 :   0.4000-0.0000 0.1667  plane waves:     484
 k-point 20 :   0.5000-0.0000 0.1667  plane waves:     486
 k-point 21 :   0.1000 0.1000 0.1667  plane waves:     502
 k-point 22 :   0.2000 0.1000 0.1667  plane waves:     495
 k-point 23 :   0.3000 0.1000 0.1667  plane waves:     491
 k-point 24 :   0.4000 0.1000 0.1667  plane waves:     488
 k-point 25 :   0.2000 0.2000 0.1667  plane waves:     493
 k-point 26 :   0.3000 0.2000 0.1667  plane waves:     491
 k-point 27 :   0.4000 0.2000 0.1667  plane waves:     489
 k-point 28 :   0.3000 0.3000 0.1667  plane waves:     493
 k-point 29 :   0.0000 0.0000 0.3333  plane waves:     494
 k-point 30 :   0.1000 0.0000 0.3333  plane waves:     503
 k-point 31 :   0.2000-0.0000 0.3333  plane waves:     501
 k-point 32 :   0.3000-0.0000 0.3333  plane waves:     492
 k-point 33 :   0.4000-0.0000 0.3333  plane waves:     491
 k-point 34 :   0.5000-0.0000 0.3333  plane waves:     490
 k-point 35 :   0.1000 0.1000 0.3333  plane waves:     502
 k-point 36 :   0.2000 0.1000 0.3333  plane waves:     494
 k-point 37 :   0.3000 0.1000 0.3333  plane waves:     491
 k-point 38 :   0.4000 0.1000 0.3333  plane waves:     487
 k-point 39 :   0.2000 0.2000 0.3333  plane waves:     489
 k-point 40 :   0.3000 0.2000 0.3333  plane waves:     494
 k-point 41 :   0.4000 0.2000 0.3333  plane waves:     495
 k-point 42 :   0.3000 0.3000 0.3333  plane waves:     493
 k-point 43 :   0.0000 0.0000 0.5000  plane waves:     494
 k-point 44 :   0.1000 0.0000 0.5000  plane waves:     504
 k-point 45 :   0.2000-0.0000 0.5000  plane waves:     500
 k-point 46 :   0.3000-0.0000 0.5000  plane waves:     496
 k-point 47 :   0.4000-0.0000 0.5000  plane waves:     492
 k-point 48 :   0.5000-0.0000 0.5000  plane waves:     500
 k-point 49 :   0.1000 0.1000 0.5000  plane waves:     498
 k-point 50 :   0.2000 0.1000 0.5000  plane waves:     490
 k-point 51 :   0.3000 0.1000 0.5000  plane waves:     492
 k-point 52 :   0.4000 0.1000 0.5000  plane waves:     492
 k-point 53 :   0.2000 0.2000 0.5000  plane waves:     496
 k-point 54 :   0.3000 0.2000 0.5000  plane waves:     492
 k-point 55 :   0.4000 0.2000 0.5000  plane waves:     484
 k-point 56 :   0.3000 0.3000 0.5000  plane waves:     488

 maximum and minimum number of plane-waves per node :       513      482

 maximum number of plane-waves:       513
 maximum index in each direction: 
   IXMAX=    4   IYMAX=    4   IZMAX=    7
   IXMIN=   -4   IYMIN=   -4   IZMIN=   -7


 serial   3D FFT for wavefunctions
 parallel 3D FFT for charge:
    minimum data exchange during FFTs selected (reduces bandwidth)


 total amount of memory used by VASP MPI-rank0    33457. kBytes
=======================================================================

   base      :      30000. kBytes
   nonlr-proj:       1545. kBytes
   fftplans  :        251. kBytes
   grid      :        578. kBytes
   one-center:         62. kBytes
   wavefun   :       1021. kBytes
 
     INWAV:  cpu time    0.0000: real time    0.0000
 Broyden mixing: mesh for mixing (old mesh)
   NGX =  9   NGY =  9   NGZ = 15
  (NGX  = 28   NGY  = 28   NGZ  = 48)
  gives a total of   1215 points

 initial charge density was supplied:
 charge density of overlapping atoms calculated
 number of electron      16.0000000 magnetization 
 keeping initial charge density in first step


--------------------------------------------------------------------------------------------------------


 Maximum index for non-local projection operator         4515
 Maximum index for augmentation-charges          768 (set IRDMAX)


--------------------------------------------------------------------------------------------------------


 First call to EWALD:  gamma=   0.511
 Maximum number of real-space cells 3x 3x 2
 Maximum number of reciprocal cells 3x 3x 4

    FEWALD:  cpu time    0.0029: real time    0.0029


----------------------------------------- Iteration    1(   1)  ---------------------------------------


    POTLOK:  cpu time    0.0065: real time    0.0524
    SETDIJ:  cpu time    0.0030: real time    0.0062
     EDDAV:  cpu time    1.0806: real time    2.4112
       DOS:  cpu time    0.0009: real time    0.0069
    --------------------------------------------
      LOOP:  cpu time    1.0931: real time    2.4999

 eigenvalue-minimisations  :  1392
 total energy-change (2. order) : 0.2315879E+02  (-0.6336164E+03)
 number of electron      16.0000000 magnetization 
 augmentation part       16.0000000 magnetization 

 Free energy of the ion-electron system (eV)
  ---------------------------------------------------
  alpha Z        PSCENC =        31.74394346
  Ewald energy   TEWEN  =      -591.70923336
  -Hartree energ DENC   =      -118.96136177
  -exchange      EXHF   =         0.00000000
  -V(xc)+E(xc)   XCENC  =       -12.08606105
  PAW double counting   =       542.26577758     -480.73867292
  entropy T*S    EENTRO =        -0.00168495
  eigenvalues    EBANDS =        17.85010476
  atomic energy  EATOM  =       634.79597521
  Solvation  Ediel_sol  =         0.00000000
  ---------------------------------------------------
  free energy    TOTEN  =        23.15878696 eV

  energy without entropy =       23.16047191  energy(sigma->0) =       23.15962943


--------------------------------------------------------------------------------------------------------




----------------------------------------- Iteration    1(   2)  ---------------------------------------


     EDDAV:  cpu time    1.2825: real time    2.5499
       DOS:  cpu time    0.0007: real time    0.0007
    --------------------------------------------
      LOOP:  cpu time    1.2846: real time    2.5585

 eigenvalue-minimisations  :  1932
 total energy-change (2. order) :-0.5617266E+02  (-0.5302810E+02)
 number of electron      16.0000000 magnetization 
 augmentation part       16.0000000 magnetization 

 Free energy of the ion-electron system (eV)
  ---------------------------------------------------
  alpha Z        PSCENC =        31.74394346
  Ewald energy   TEWEN  =      -591.70923336
  -Hartree energ DENC   =      -118.96136177
  -exchange      EXHF   =         0.00000000
  -V(xc)+E(xc)   XCENC  =       -12.08606105
  PAW double counting   =       542.26577758     -480.73867292
  entropy T*S    EENTRO =        -0.00000000
  eigenvalues    EBANDS =       -38.32423900
  atomic energy  EATOM  =       634.79597521
  Solvation  Ediel_sol  =         0.00000000
  ---------------------------------------------------
  free energy    TOTEN  =       -33.01387186 eV

  energy without entropy =      -33.01387186  energy(sigma->0) =      -33.01387186


--------------------------------------------------------------------------------------------------------




----------------------------------------- Iteration    1(   3)  ---------------------------------------


     EDDAV:  cpu time    1.2072: real time    2.3982
       DOS:  cpu time    0.0003: real time    0.0003
    --------------------------------------------
      LOOP:  cpu time    1.2087: real time    2.4009

 eigenvalue-minimisations  :  1620
 total energy-change (2. order) :-0.1032882E+01  (-0.1032882E+01)
 number of electron      16.0000000 magnetization 
 augmentation part       16.0000000 magnetization 

 Free energy of the ion-electron system (eV)
  ---------------------------------------------------
  alpha Z        PSCENC =        31.74394346
  Ewald energy   TEWEN  =      -591.70923336
  -Hartree energ DENC   =      -118.96136177
  -exchange      EXHF   =         0.00000000
  -V(xc)+E(xc)   XCENC  =       -12.08606105
  PAW double counting   =       542.26577758     -480.73867292
  entropy T*S    EENTRO =        -0.00000000
  eigenvalues    EBANDS =       -39.35712107
  atomic energy  EATOM  =       634.79597521
  Solvation  Ediel_sol  =         0.00000000
  ---------------------------------------------------
  free energy    TOTEN  =       -34.04675393 eV

  energy without entropy =      -34.04675393  energy(sigma->0) =      -34.04675393


--------------------------------------------------------------------------------------------------------




----------------------------------------- Iteration    1(   4)  ---------------------------------------


     EDDAV:  cpu time    1.5145: real time    2.7927
       DOS:  cpu time    0.0006: real time    0.0006
    --------------------------------------------
      LOOP:  cpu time    1.5164: real time    2.7959

 eigenvalue-minimisations  :  2412
 total energy-change (2. order) :-0.3783338E-02  (-0.3783338E-02)
 number of electron      16.0000000 magnetization 
 augmentation part       16.0000000 magnetization 

 Free energy of the ion-electron system (eV)
  ---------------------------------------------------
  alpha Z        PSCENC =        31.74394346
  Ewald energy   TEWEN  =      -591.70923336
  -Hartree energ DENC   =      -118.96136177
  -exchange      EXHF   =         0.00000000
  -V(xc)+E(xc)   XCENC  =       -12.08606105
  PAW double counting   =       542.26577758     -480.73867292
  entropy T*S    EENTRO =        -0.00000000
  eigenvalues    EBANDS =       -39.36090441
  atomic energy  EATOM  =       634.79597521
  Solvation  Ediel_sol  =         0.00000000
  ---------------------------------------------------
  free energy    TOTEN  =       -34.05053727 eV

  energy without entropy =      -34.05053727  energy(sigma->0) =      -34.05053727


--------------------------------------------------------------------------------------------------------




----------------------------------------- Iteration    1(   5)  ---------------------------------------


     EDDAV:  cpu time    1.2160: real time    2.4674
       DOS:  cpu time    0.0006: real time    0.0006
    CHARGE:  cpu time    0.0104: real time    0.0104
    MIXING:  cpu time    0.0003: real time    0.0004
    --------------------------------------------
      LOOP:  cpu time    1.2286: real time    2.4812

 eigenvalue-minimisations  :  1668
 total energy-change (2. order) :-0.8621292E-06  (-0.8621293E-06)
 number of electron      15.9999932 magnetization 
 augmentation part        0.6161916 magnetization 

 Broyden mixing:
  rms(total) = 0.11161E+01    rms(broyden)= 0.11160E+01
  rms(prec ) = 0.24428E+01
  weight for this iteration     100.00

 Free energy of the ion-electron system (eV)
  ---------------------------------------------------
  alpha Z        PSCENC =        31.74394346
  Ewald energy   TEWEN  =      -591.70923336
  -Hartree energ DENC   =      -118.96136177
  -exchange      EXHF   =         0.00000000
  -V(xc)+E(xc)   XCENC  =       -12.08606105
  PAW double counting   =       542.26577758     -480.73867292
  entropy T*S    EENTRO =        -0.00000000
  eigenvalues    EBANDS =       -39.36090527
  atomic energy  EATOM  =       634.79597521
  Solvation  Ediel_sol  =         0.00000000
  ---------------------------------------------------
  free energy    TOTEN  =       -34.05053813 eV

  energy without entropy =      -34.05053813  energy(sigma->0) =      -34.05053813


--------------------------------------------------------------------------------------------------------




----------------------------------------- Iteration    1(   6)  ---------------------------------------


    POTLOK:  cpu time    0.0043: real time    0.0043
    SETDIJ:  cpu time    0.0027: real time    0.0027
     EDDAV:  cpu time    1.1119: real time    2.2936
       DOS:  cpu time    0.0004: real time    0.0004
    CHARGE:  cpu time    0.0102: real time    0.0102
    MIXING:  cpu time    0.0006: real time    0.0040
    --------------------------------------------
      LOOP:  cpu time    1.1314: real time    2.3178

 eigenvalue-minimisations  :  1392
 total energy-change (2. order) : 0.4193092E+01  (-0.2259618E+01)
 number of electron      15.9999951 magnetization 
 augmentation part        0.4137272 magnetization 

 Broyden mixing:
  rms(total) = 0.45705E+00    rms(broyden)= 0.45653E+00
  rms(prec ) = 0.63389E+00
  weight for this iteration     100.00

 eigenvalues of (default mixing * dielectric matrix)
  average eigenvalue GAMMA=   0.9398
  0.9398

 Free energy of the ion-electron system (eV)
  ---------------------------------------------------
  alpha Z        PSCENC =        31.74394346
  Ewald energy   TEWEN  =      -591.70923336
  -Hartree energ DENC   =      -148.93098581
  -exchange      EXHF   =         0.00000000
  -V(xc)+E(xc)   XCENC  =        -9.80861653
  PAW double counting   =       741.70101435     -680.60958571
  entropy T*S    EENTRO =        -0.00000000
  eigenvalues    EBANDS =        -7.03995766
  atomic energy  EATOM  =       634.79597521
  Solvation  Ediel_sol  =         0.00000000
  ---------------------------------------------------
  free energy    TOTEN  =       -29.85744604 eV

  energy without entropy =      -29.85744604  energy(sigma->0) =      -29.85744604


--------------------------------------------------------------------------------------------------------




----------------------------------------- Iteration    1(   7)  ---------------------------------------


    POTLOK:  cpu time    0.0044: real time    0.0044
    SETDIJ:  cpu time    0.0026: real time    0.0027
     EDDAV:  cpu time    1.3510: real time    2.6225
       DOS:  cpu time    0.0008: real time    0.0008
    CHARGE:  cpu time    0.0101: real time    0.0101
    MIXING:  cpu time    0.0004: real time    0.0004
    --------------------------------------------
      LOOP:  cpu time    1.3708: real time    2.6436

 eigenvalue-minimisations  :  2064
 total energy-change (2. order) : 0.4836092E-01  (-0.1721664E-01)
 number of electron      15.9999952 magnetization 
 augmentation part        0.4054980 magnetization 

 Broyden mixing:
  rms(total) = 0.30827E+00    rms(broyden)= 0.30823E+00
  rms(prec ) = 0.40119E+00
  weight for this iteration     100.00

 eigenvalues of (default mixing * dielectric matrix)
  average eigenvalue GAMMA=   1.9759
  1.0452  2.9065

 Free energy of the ion-electron system (eV)
  ---------------------------------------------------
  alpha Z        PSCENC =        31.74394346
  Ewald energy   TEWEN  =      -591.70923336
  -Hartree energ DENC   =      -151.70597248
  -exchange      EXHF   =         0.00000000
  -V(xc)+E(xc)   XCENC  =        -9.53459056
  PAW double counting   =       896.77665091     -835.79331698
  entropy T*S    EENTRO =        -0.00000000
  eigenvalues    EBANDS =        -4.38254131
  atomic energy  EATOM  =       634.79597521
  Solvation  Ediel_sol  =         0.00000000
  ---------------------------------------------------
  free energy    TOTEN  =       -29.80908512 eV

  energy without entropy =      -29.80908512  energy(sigma->0) =      -29.80908512


--------------------------------------------------------------------------------------------------------




----------------------------------------- Iteration    1(   8)  ---------------------------------------


    POTLOK:  cpu time    0.0044: real time    0.0044
    SETDIJ:  cpu time    0.0027: real time    0.0027
     EDDAV:  cpu time    1.2332: real time    2.4109
       DOS:  cpu time    0.0005: real time    0.0005
    CHARGE:  cpu time    0.0101: real time    0.0101
    MIXING:  cpu time    0.0004: real time    0.0004
    --------------------------------------------
      LOOP:  cpu time    1.2526: real time    2.4314

 eigenvalue-minimisations  :  1632
 total energy-change (2. order) : 0.1429555E-01  (-0.3397055E-02)
 number of electron      15.9999952 magnetization 
 augmentation part        0.4070547 magnetization 

 Broyden mixing:
  rms(total) = 0.58852E-01    rms(broyden)= 0.58850E-01
  rms(prec ) = 0.62720E-01
  weight for this iteration     100.00

 eigenvalues of (default mixing * dielectric matrix)
  average eigenvalue GAMMA=   1.4404
  2.5697  1.0408  0.7107

 Free energy of the ion-electron system (eV)
  ---------------------------------------------------
  alpha Z        PSCENC =        31.74394346
  Ewald energy   TEWEN  =      -591.70923336
  -Hartree energ DENC   =      -154.12804618
  -exchange      EXHF   =         0.00000000
  -V(xc)+E(xc)   XCENC  =        -9.21132019
  PAW double counting   =      1196.80707216    -1135.98342811
  entropy T*S    EENTRO =        -0.00000000
  eigenvalues    EBANDS =        -2.10975256
  atomic energy  EATOM  =       634.79597521
  Solvation  Ediel_sol  =         0.00000000
  ---------------------------------------------------
  free energy    TOTEN  =       -29.79478958 eV

  energy without entropy =      -29.79478958  energy(sigma->0) =      -29.79478958


--------------------------------------------------------------------------------------------------------




----------------------------------------- Iteration    1(   9)  ---------------------------------------


    POTLOK:  cpu time    0.0043: real time    0.0043
    SETDIJ:  cpu time    0.0027: real time    0.0027
     EDDAV:  cpu time    1.5131: real time    2.7535
       DOS:  cpu time    0.0004: real time    0.0004
    CHARGE:  cpu time    0.0103: real time    0.0103
    MIXING:  cpu time    0.0004: real time    0.0004
    --------------------------------------------
      LOOP:  cpu time    1.5326: real time    2.7742

 eigenvalue-minimisations  :  2280
 total energy-change (2. order) : 0.4136749E-03  (-0.6715505E-04)
 number of electron      15.9999952 magnetization 
 augmentation part        0.4061876 magnetization 

 Broyden mixing:
  rms(total) = 0.29991E-01    rms(broyden)= 0.29988E-01
  rms(prec ) = 0.31671E-01
  weight for this iteration     100.00

 eigenvalues of (default mixing * dielectric matrix)
  average eigenvalue GAMMA=   1.8453
  1.0152  1.0152  2.7108  2.6399

 Free energy of the ion-electron system (eV)
  ---------------------------------------------------
  alpha Z        PSCENC =        31.74394346
  Ewald energy   TEWEN  =      -591.70923336
  -Hartree energ DENC   =      -154.15748446
  -exchange      EXHF   =         0.00000000
  -V(xc)+E(xc)   XCENC  =        -9.21744211
  PAW double counting   =      1170.48922121    -1109.65620302
  entropy T*S    EENTRO =        -0.00000000
  eigenvalues    EBANDS =        -2.08315283
  atomic energy  EATOM  =       634.79597521
  Solvation  Ediel_sol  =         0.00000000
  ---------------------------------------------------
  free energy    TOTEN  =       -29.79437590 eV

  energy without entropy =      -29.79437590  energy(sigma->0) =      -29.79437590


--------------------------------------------------------------------------------------------------------




----------------------------------------- Iteration    1(  10)  ---------------------------------------


    POTLOK:  cpu time    0.0044: real time    0.0044
    SETDIJ:  cpu time    0.0027: real time    0.0027
     EDDAV:  cpu time    1.2620: real time    2.4628
       DOS:  cpu time    0.0004: real time    0.0004
    CHARGE:  cpu time    0.0101: real time    0.0101
    MIXING:  cpu time    0.0006: real time    0.0106
    --------------------------------------------
      LOOP:  cpu time    1.2816: real time    2.4935

 eigenvalue-minimisations  :  1728
 total energy-change (2. order) :-0.3949650E-03  (-0.7365432E-04)
 number of electron      15.9999952 magnetization 
 augmentation part        0.4055060 magnetization 

 Broyden mixing:
  rms(total) = 0.26560E-02    rms(broyden)= 0.26272E-02
  rms(prec ) = 0.34945E-02
  weight for this iteration     100.00

 eigenvalues of (default mixing * dielectric matrix)
  average eigenvalue GAMMA=   1.6454
  2.8790  2.5402  0.9990  0.9990  0.8101

 Free energy of the ion-electron system (eV)
  ---------------------------------------------------
  alpha Z        PSCENC =        31.74394346
  Ewald energy   TEWEN  =      -591.70923336
  -Hartree energ DENC   =      -154.31057663
  -exchange      EXHF   =         0.00000000
  -V(xc)+E(xc)   XCENC  =        -9.20537357
  PAW double counting   =      1142.65572599    -1081.81651022
  entropy T*S    EENTRO =        -0.00000000
  eigenvalues    EBANDS =        -1.94872175
  atomic energy  EATOM  =       634.79597521
  Solvation  Ediel_sol  =         0.00000000
  ---------------------------------------------------
  free energy    TOTEN  =       -29.79477087 eV

  energy without entropy =      -29.79477087  energy(sigma->0) =      -29.79477087


--------------------------------------------------------------------------------------------------------




----------------------------------------- Iteration    1(  11)  ---------------------------------------


    POTLOK:  cpu time    0.0044: real time    0.0044
    SETDIJ:  cpu time    0.0027: real time    0.0027
     EDDAV:  cpu time    1.2967: real time    2.5695
       DOS:  cpu time    0.0006: real time    0.0006
    --------------------------------------------
      LOOP:  cpu time    1.3058: real time    2.5821

 eigenvalue-minimisations  :  1968
 total energy-change (2. order) : 0.9202798E-06  (-0.1699544E-05)
 number of electron      15.9999952 magnetization 
 augmentation part        0.4055060 magnetization 

 Free energy of the ion-electron system (eV)
  ---------------------------------------------------
  alpha Z        PSCENC =        31.74394346
  Ewald energy   TEWEN  =      -591.70923336
  -Hartree energ DENC   =      -154.29657535
  -exchange      EXHF   =         0.00000000
  -V(xc)+E(xc)   XCENC  =        -9.20615851
  PAW double counting   =      1143.13088971    -1082.29167606
  entropy T*S    EENTRO =        -0.00000000
  eigenvalues    EBANDS =        -1.96193504
  atomic energy  EATOM  =       634.79597521
  Solvation  Ediel_sol  =         0.00000000
  ---------------------------------------------------
  free energy    TOTEN  =       -29.79476995 eV

  energy without entropy =      -29.79476995  energy(sigma->0) =      -29.79476995


--------------------------------------------------------------------------------------------------------




 average (electrostatic) potential at core
  the test charge radii are     1.0406  0.7089
  (the norm of the test charge is              1.0000)
       1 -49.9812       2 -49.9812       3 -61.2841       4 -61.2841
 
 
 
 E-fermi :   5.2518     XC(G=0): -10.9135     alpha+bet :-14.9192


 k-point     1 :       0.0000    0.0000    0.0000
  band No.  band energies     occupation 
      1     -10.1255      2.00000
      2      -8.0029      2.00000
      3      -0.8667      2.00000
      4       4.3465      2.00000
      5       4.3472      2.00000
      6       4.9717      2.00000
      7       4.9724      2.00000
      8       5.0563      2.00000
      9       9.2729      0.00000
     10      11.7601      0.00000
     11      15.8280      0.00000
     12      16.3230      0.00000

 k-point     2 :       0.1000    0.0000    0.0000
  band No.  band energies     occupation 
      1      -9.9993      2.00000
      2      -7.9336      2.00000
      3      -0.7261      2.00000
      4       3.7645      2.00000
      5       4.1853      2.00000
      6       4.4057      2.00000
      7       4.9541      2.00000
      8       5.0195      2.00000
      9       9.8743      0.00000
     10      12.2854      0.00000
     11      15.2487      0.00000
     12      15.5320      0.00000

 k-point     3 :       0.2000   -0.0000    0.0000
  band No.  band energies     occupation 
      1      -9.6383      2.00000
      2      -7.7515      2.00000
      3      -0.2829      2.00000
      4       2.4174      2.00000
      5       3.3081      2.00000
      6       3.8543      2.00000
      7       4.8284      2.00000
      8       4.8537      2.00000
      9      10.9516      0.00000
     10      12.9577      0.00000
     11      13.8328      0.00000
     12      14.9349      0.00000

 k-point     4 :       0.3000   -0.0000    0.0000
  band No.  band energies     occupation 
      1      -9.0987      2.00000
      2      -7.5469      2.00000
      3       0.4073      2.00000
      4       1.0703      2.00000
      5       2.1817      2.00000
      6       3.4843      2.00000
      7       4.4387      2.00000
      8       4.7158      2.00000
      9      11.4578      0.00000
     10      12.2203      0.00000
     11      13.0574      0.00000
     12      15.5360      0.00000

 k-point     5 :       0.4000   -0.0000    0.0000
  band No.  band energies     occupation 
      1      -8.5120      2.00000
      2      -7.4594      2.00000
      3       0.0749      2.00000
      4       1.2203      2.00000
      5       1.3694      2.00000
      6       3.2261      2.00000
      7       3.7895      2.00000
      8       4.5711      2.00000
      9      11.1405      0.00000
     10      11.2768      0.00000
     11      13.2599      0.00000
     12      15.5435      0.00000

 k-point     6 :       0.5000   -0.0000    0.0000
  band No.  band energies     occupation 
      1      -8.1895      2.00000
      2      -7.5047      2.00000
      3      -0.2804      2.00000
      4       1.0125      2.00000
      5       1.7768      2.00000
      6       3.1198      2.00000
      7       3.3239      2.00000
      8       4.5443      2.00000
      9      10.9411      0.00000
     10      10.9586      0.00000
     11      13.3355      0.00000
     12      15.5680      0.00000

 k-point     7 :       0.1000    0.1000    0.0000
  band No.  band energies     occupation 
      1      -9.7553      2.00000
      2      -7.8070      2.00000
      3      -0.4253      2.00000
      4       3.0174      2.00000
      5       3.2604      2.00000
      6       4.1679      2.00000
      7       4.7992      2.00000
      8       4.9113      2.00000
      9      10.7167      0.00000
     10      13.0550      0.00000
     11      14.3539      0.00000
     12      14.6075      0.00000

 k-point     8 :       0.2000    0.1000    0.0000
  band No.  band energies     occupation 
      1      -9.3032      2.00000
      2      -7.6116      2.00000
      3       0.1387      2.00000
      4       1.7580      2.00000
      5       2.3444      2.00000
      6       3.6076      2.00000
      7       4.5363      2.00000
      8       4.6120      2.00000
      9      11.6550      0.00000
     10      12.9234      0.00000
     11      13.3061      0.00000
     12      14.7095      0.00000

 k-point     9 :       0.3000    0.1000    0.0000
  band No.  band energies     occupation 
      1      -8.7291      2.00000
      2      -7.4628      2.00000
      3       0.5853      2.00000
      4       0.9103      2.00000
      5       1.6148      2.00000
      6       3.0450      2.00000
      7       4.0870      2.00000
      8       4.3158      2.00000
      9      11.5824      0.00000
     10      11.8795      0.00000
     11      13.3390      0.00000
     12      15.3849      0.00000

 k-point    10 :       0.4000    0.1000    0.0000
  band No.  band energies     occupation 
      1      -8.2237      2.00000
      2      -7.4750      2.00000
      3      -0.0934      2.00000
      4       1.1629      2.00000
      5       1.7103      2.00000
      6       2.7599      2.00000
      7       3.4553      2.00000
      8       4.1850      2.00000
      9      10.9335      0.00000
     10      11.5757      0.00000
     11      13.6003      0.00000
     12      15.4757      0.00000

 k-point    11 :       0.2000    0.2000    0.0000
  band No.  band energies     occupation 
      1      -8.8086      2.00000
      2      -7.4664      2.00000
      3       0.8015      2.00000
      4       1.1822      2.00000
      5       1.3898      2.00000
      6       3.0498      2.00000
      7       3.9758      2.00000
      8       4.2054      2.00000
      9      11.7981      0.00000
     10      12.5219      0.00000
     11      13.7306      0.00000
     12      14.7246      0.00000

 k-point    12 :       0.3000    0.2000    0.0000
  band No.  band energies     occupation 
      1      -8.2736      2.00000
      2      -7.4337      2.00000
      3       0.3897      2.00000
      4       1.2012      2.00000
      5       1.6045      2.00000
      6       2.3204      2.00000
      7       3.5455      2.00000
      8       3.6526      2.00000
      9      10.8542      0.00000
     10      12.7828      0.00000
     11      14.0733      0.00000
     12      15.1539      0.00000

 k-point    13 :       0.4000    0.2000    0.0000
  band No.  band energies     occupation 
      1      -7.9657      2.00000
      2      -7.5096      2.00000
      3       0.0827      2.00000
      4       1.2966      2.00000
      5       1.8971      2.00000
      6       2.1411      2.00000
      7       3.1817      2.00000
      8       3.4255      2.00000
      9      10.4938      0.00000
     10      12.7394      0.00000
     11      14.3186      0.00000
     12      15.2692      0.00000

 k-point    14 :       0.3000    0.3000    0.0000
  band No.  band energies     occupation 
      1      -7.8553      2.00000
      2      -7.5338      2.00000
      3       0.3452      2.00000
      4       1.2205      2.00000
      5       1.6475      2.00000
      6       2.3342      2.00000
      7       2.9084      2.00000
      8       3.1040      2.00000
      9      10.2640      0.00000
     10      13.4625      0.00000
     11      14.7066      0.00000
     12      15.0571      0.00000

 k-point    15 :       0.0000    0.0000    0.1667
  band No.  band energies     occupation 
      1     -10.0193      2.00000
      2      -8.2079      2.00000
      3      -0.5089      2.00000
      4       4.3679      2.00000
      5       4.3687      2.00000
      6       4.4810      2.00000
      7       4.9380      2.00000
      8       4.9387      2.00000
      9       9.7703      0.00000
     10      11.8238      0.00000
     11      15.6325      0.00000
     12      16.2856      0.00000

 k-point    16 :       0.1000    0.0000    0.1667
  band No.  band energies     occupation 
      1      -9.8955      2.00000
      2      -8.1293      2.00000
      3      -0.3808      2.00000
      4       3.8013      2.00000
      5       4.0674      2.00000
      6       4.2339      2.00000
      7       4.8352      2.00000
      8       4.9039      2.00000
      9      10.2453      0.00000
     10      12.3390      0.00000
     11      14.9988      0.00000
     12      15.5366      0.00000

 k-point    17 :       0.2000   -0.0000    0.1667
  band No.  band energies     occupation 
      1      -9.5398      2.00000
      2      -7.9222      2.00000
      3      -0.0263      2.00000
      4       2.5149      2.00000
      5       3.0895      2.00000
      6       3.8855      2.00000
      7       4.7272      2.00000
      8       4.7834      2.00000
      9      11.0434      0.00000
     10      12.9881      0.00000
     11      13.7754      0.00000
     12      14.9548      0.00000

 k-point    18 :       0.3000   -0.0000    0.1667
  band No.  band energies     occupation 
      1      -9.0126      2.00000
      2      -7.6743      2.00000
      3       0.3064      2.00000
      4       1.3887      2.00000
      5       2.0534      2.00000
      6       3.5473      2.00000
      7       4.4432      2.00000
      8       4.6124      2.00000
      9      11.1348      0.00000
     10      12.1360      0.00000
     11      13.5547      0.00000
     12      15.4810      0.00000

 k-point    19 :       0.4000   -0.0000    0.1667
  band No.  band energies     occupation 
      1      -8.4451      2.00000
      2      -7.5313      2.00000
      3      -0.1275      2.00000
      4       0.9164      2.00000
      5       1.8574      2.00000
      6       3.3003      2.00000
      7       3.9954      2.00000
      8       4.4660      2.00000
      9      10.6883      0.00000
     10      11.3038      0.00000
     11      13.9134      0.00000
     12      15.1454      0.00000

 k-point    20 :       0.5000   -0.0000    0.1667
  band No.  band energies     occupation 
      1      -8.1392      2.00000
      2      -7.5424      2.00000
      3      -0.4317      2.00000
      4       0.6412      2.00000
      5       2.1701      2.00000
      6       3.1999      2.00000
      7       3.6711      2.00000
      8       4.4049      2.00000
      9      10.4670      0.00000
     10      11.0190      0.00000
     11      14.0632      0.00000
     12      15.0131      0.00000

 k-point    21 :       0.1000    0.1000    0.1667
  band No.  band energies     occupation 
      1      -9.6555      2.00000
      2      -7.9861      2.00000
      3      -0.1334      2.00000
      4       3.1040      2.00000
      5       3.1244      2.00000
      6       4.0380      2.00000
      7       4.7078      2.00000
      8       4.7934      2.00000
      9      10.9053      0.00000
     10      13.0831      0.00000
     11      14.1111      0.00000
     12      14.6910      0.00000

 k-point    22 :       0.2000    0.1000    0.1667
  band No.  band energies     occupation 
      1      -9.2116      2.00000
      2      -7.7563      2.00000
      3       0.2545      2.00000
      4       1.8657      2.00000
      5       2.3324      2.00000
      6       3.5368      2.00000
      7       4.4153      2.00000
      8       4.6479      2.00000
      9      11.5201      0.00000
     10      12.7916      0.00000
     11      13.5549      0.00000
     12      14.7728      0.00000

 k-point    23 :       0.3000    0.1000    0.1667
  band No.  band energies     occupation 
      1      -8.6534      2.00000
      2      -7.5573      2.00000
      3       0.2523      2.00000
      4       1.0941      2.00000
      5       1.8433      2.00000
      6       3.0617      2.00000
      7       4.1008      2.00000
      8       4.3484      2.00000
      9      11.1988      0.00000
     10      11.9872      0.00000
     11      13.6549      0.00000
     12      15.3235      0.00000

 k-point    24 :       0.4000    0.1000    0.1667
  band No.  band energies     occupation 
      1      -8.1706      2.00000
      2      -7.5190      2.00000
      3      -0.2453      2.00000
      4       0.7735      2.00000
      5       2.0694      2.00000
      6       2.9001      2.00000
      7       3.7136      2.00000
      8       4.0949      2.00000
      9      10.6766      0.00000
     10      11.6141      0.00000
     11      14.0296      0.00000
     12      15.0324      0.00000

 k-point    25 :       0.2000    0.2000    0.1667
  band No.  band energies     occupation 
      1      -8.7303      2.00000
      2      -7.5700      2.00000
      3       0.5174      2.00000
      4       1.1150      2.00000
      5       1.9707      2.00000
      6       2.8540      2.00000
      7       3.8266      2.00000
      8       4.3930      2.00000
      9      11.8456      0.00000
     10      12.2276      0.00000
     11      13.8384      0.00000
     12      14.8113      0.00000

 k-point    26 :       0.3000    0.2000    0.1667
  band No.  band energies     occupation 
      1      -8.2165      2.00000
      2      -7.4866      2.00000
      3       0.2612      2.00000
      4       0.7975      2.00000
      5       1.9994      2.00000
      6       2.4199      2.00000
      7       3.3541      2.00000
      8       3.9885      2.00000
      9      11.0157      0.00000
     10      12.6398      0.00000
     11      13.8692      0.00000
     12      15.0375      0.00000

 k-point    27 :       0.4000    0.2000    0.1667
  band No.  band energies     occupation 
      1      -7.9280      2.00000
      2      -7.5303      2.00000
      3      -0.0066      2.00000
      4       0.9152      2.00000
      5       1.6241      2.00000
      6       2.8031      2.00000
      7       3.1205      2.00000
      8       3.6698      2.00000
      9      10.6868      0.00000
     10      12.7038      0.00000
     11      14.0798      0.00000
     12      14.8356      0.00000

 k-point    28 :       0.3000    0.3000    0.1667
  band No.  band energies     occupation 
      1      -7.8251      2.00000
      2      -7.5453      2.00000
      3       0.4001      2.00000
      4       0.7975      2.00000
      5       1.3162      2.00000
      6       2.6369      2.00000
      7       2.9472      2.00000
      8       3.5412      2.00000
      9      10.6404      0.00000
     10      13.3573      0.00000
     11      14.1547      0.00000
     12      14.6312      0.00000

 k-point    29 :       0.0000    0.0000    0.3333
  band No.  band energies     occupation 
      1      -9.7127      2.00000
      2      -8.6933      2.00000
      3       0.4517      2.00000
      4       3.1956      2.00000
      5       4.5119      2.00000
      6       4.5125      2.00000
      7       4.8428      2.00000
      8       4.8434      2.00000
      9      10.7392      0.00000
     10      11.8756      0.00000
     11      15.3484      0.00000
     12      16.3462      0.00000

 k-point    30 :       0.1000    0.0000    0.3333
  band No.  band energies     occupation 
      1      -9.5949      2.00000
      2      -8.5989      2.00000
      3       0.5192      2.00000
      4       2.9862      2.00000
      5       4.0387      2.00000
      6       4.3677      2.00000
      7       4.5652      2.00000
      8       4.7581      2.00000
      9      11.0520      0.00000
     10      12.3252      0.00000
     11      14.6546      0.00000
     12      15.3663      0.00000

 k-point    31 :       0.2000   -0.0000    0.3333
  band No.  band energies     occupation 
      1      -9.2579      2.00000
      2      -8.3408      2.00000
      3       0.6182      2.00000
      4       2.2289      2.00000
      5       3.1158      2.00000
      6       4.0574      2.00000
      7       4.2922      2.00000
      8       4.5773      2.00000
      9      11.3666      0.00000
     10      12.6439      0.00000
     11      13.9866      0.00000
     12      14.9029      0.00000

 k-point    32 :       0.3000   -0.0000    0.3333
  band No.  band energies     occupation 
      1      -8.7665      2.00000
      2      -8.0004      2.00000
      3       0.3606      2.00000
      4       1.1739      2.00000
      5       2.6134      2.00000
      6       3.7471      2.00000
      7       4.2262      2.00000
      8       4.3486      2.00000
      9      10.9272      0.00000
     10      11.8665      0.00000
     11      14.1468      0.00000
     12      15.2936      0.00000

 k-point    33 :       0.4000   -0.0000    0.3333
  band No.  band energies     occupation 
      1      -8.2587      2.00000
      2      -7.7293      2.00000
      3      -0.2729      2.00000
      4       0.3428      2.00000
      5       2.7849      2.00000
      6       3.4944      2.00000
      7       4.1305      2.00000
      8       4.1630      2.00000
      9      10.3293      0.00000
     10      11.2014      0.00000
     11      14.2701      0.00000
     12      15.0968      0.00000

 k-point    34 :       0.5000   -0.0000    0.3333
  band No.  band energies     occupation 
      1      -8.0027      2.00000
      2      -7.6545      2.00000
      3      -0.5731      2.00000
      4       0.0104      2.00000
      5       2.9901      2.00000
      6       3.3996      2.00000
      7       4.0406      2.00000
      8       4.1011      2.00000
      9      10.0882      0.00000
     10      10.9608      0.00000
     11      14.2980      0.00000
     12      14.9538      0.00000

 k-point    35 :       0.1000    0.1000    0.3333
  band No.  band energies     occupation 
      1      -9.3672      2.00000
      2      -8.4223      2.00000
      3       0.6107      2.00000
      4       2.4972      2.00000
      5       3.4321      2.00000
      6       3.9940      2.00000
      7       4.4741      2.00000
      8       4.5285      2.00000
      9      11.4211      0.00000
     10      12.8103      0.00000
     11      14.0117      0.00000
     12      14.7576      0.00000

 k-point    36 :       0.2000    0.1000    0.3333
  band No.  band energies     occupation 
      1      -8.9502      2.00000
      2      -8.1205      2.00000
      3       0.5783      2.00000
      4       1.5885      2.00000
      5       2.8085      2.00000
      6       3.5734      2.00000
      7       4.1359      2.00000
      8       4.4466      2.00000
      9      11.4796      0.00000
     10      12.3727      0.00000
     11      14.0869      0.00000
     12      14.8555      0.00000

 k-point    37 :       0.3000    0.1000    0.3333
  band No.  band energies     occupation 
      1      -8.4406      2.00000
      2      -7.8084      2.00000
      3       0.1097      2.00000
      4       0.7023      2.00000
      5       2.6344      2.00000
      6       3.2904      2.00000
      7       3.7957      2.00000
      8       4.3897      2.00000
      9      10.9365      0.00000
     10      11.7804      0.00000
     11      14.1294      0.00000
     12      15.3891      0.00000

 k-point    38 :       0.4000    0.1000    0.3333
  band No.  band energies     occupation 
      1      -8.0256      2.00000
      2      -7.6457      2.00000
      3      -0.3870      2.00000
      4       0.1733      2.00000
      5       2.6041      2.00000
      6       3.3964      2.00000
      7       3.5762      2.00000
      8       4.2665      2.00000
      9      10.4763      0.00000
     10      11.4588      0.00000
     11      14.3029      0.00000
     12      15.1451      0.00000

 k-point    39 :       0.2000    0.2000    0.3333
  band No.  band energies     occupation 
      1      -8.5086      2.00000
      2      -7.8407      2.00000
      3       0.3974      2.00000
      4       0.8727      2.00000
      5       2.7605      2.00000
      6       2.8602      2.00000
      7       3.5579      2.00000
      8       4.4447      2.00000
      9      11.8153      0.00000
     10      11.8568      0.00000
     11      14.2062      0.00000
     12      14.9171      0.00000

 k-point    40 :       0.3000    0.2000    0.3333
  band No.  band energies     occupation 
      1      -8.0599      2.00000
      2      -7.6353      2.00000
      3       0.0756      2.00000
      4       0.4140      2.00000
      5       2.0241      2.00000
      6       2.7969      2.00000
      7       3.4329      2.00000
      8       4.3395      2.00000
      9      11.2948      0.00000
     10      12.1708      0.00000
     11      13.9598      0.00000
     12      14.7479      0.00000

 k-point    41 :       0.4000    0.2000    0.3333
  band No.  band energies     occupation 
      1      -7.8281      2.00000
      2      -7.5956      2.00000
      3      -0.1307      2.00000
      4       0.3277      2.00000
      5       1.7204      2.00000
      6       2.6428      2.00000
      7       3.6479      2.00000
      8       4.1944      2.00000
      9      11.0641      0.00000
     10      12.3413      0.00000
     11      14.0109      0.00000
[...]
  band No.  band energies     occupation 
      1      -8.0940      2.00000
      2      -7.4061      2.00000
      3       0.4703      2.00000
      4       1.0989      2.00000
      5       3.0460      2.00000
      6       3.7732      2.00000
      7       4.2841      2.00000
      8       4.8901      2.00000
      9      11.6911      0.00000
     10      12.5667      0.00000
     11      15.1047      0.00000
     12      16.4035      0.00000

 k-point    38 :       0.4000    0.1000    0.3333
  band No.  band energies     occupation 
      1      -7.6256      2.00000
      2      -7.2144      2.00000
      3      -0.0753      2.00000
      4       0.5163      2.00000
      5       3.0402      2.00000
      6       3.8703      2.00000
      7       4.0559      2.00000
      8       4.7652      2.00000
      9      11.1679      0.00000
     10      12.2379      0.00000
     11      15.2230      0.00000
     12      16.0865      0.00000

 k-point    39 :       0.2000    0.2000    0.3333
  band No.  band energies     occupation 
      1      -8.1705      2.00000
      2      -7.4441      2.00000
      3       0.7848      2.00000
      4       1.2824      2.00000
      5       3.2185      2.00000
      6       3.2685      2.00000
      7       4.0358      2.00000
      8       4.9452      2.00000
      9      12.5754      0.00000
     10      12.6442      0.00000
     11      15.1653      0.00000
     12      15.9737      0.00000

 k-point    40 :       0.3000    0.2000    0.3333
  band No.  band energies     occupation 
      1      -7.6671      2.00000
      2      -7.2028      2.00000
      3       0.4277      2.00000
      4       0.7871      2.00000
      5       2.4398      2.00000
      6       3.2053      2.00000
      7       3.9056      2.00000
      8       4.8446      2.00000
      9      11.9747      0.00000
     10      12.9550      0.00000
     11      14.8818      0.00000
     12      15.6369      0.00000

 k-point    41 :       0.4000    0.2000    0.3333
  band No.  band energies     occupation 
      1      -7.4044      2.00000
      2      -7.1534      2.00000
      3       0.1947      2.00000
      4       0.6919      2.00000
      5       2.1166      2.00000
      6       3.0483      2.00000
      7       4.1330      2.00000
      8       4.6965      2.00000
      9      11.7218      0.00000
     10      13.1248      0.00000
     11      14.8894      0.00000
     12      15.1745      0.00000

 k-point    42 :       0.3000    0.3000    0.3333
  band No.  band energies     occupation 
      1      -7.3161      2.00000
      2      -7.1366      2.00000
      3       0.7249      2.00000
      4       0.7528      2.00000
      5       1.5155      2.00000
      6       2.4616      2.00000
      7       4.2710      2.00000
      8       4.6592      2.00000
      9      12.1267      0.00000
     10      13.6335      0.00000
     11      14.5241      0.00000
     12      14.6788      0.00000

 k-point    43 :       0.0000    0.0000    0.5000
  band No.  band energies     occupation 
      1      -9.0006      2.00000
      2      -9.0006      2.00000
      3       2.1667      2.00000
      4       2.1667      2.00000
      5       5.2267      2.00000
      6       5.2267      2.00000
      7       5.2274      2.00000
      8       5.2274      2.00000
      9      12.6907      0.00000
     10      12.6907      0.00000
     11      16.5337      0.00000
     12      16.5337      0.00000

 k-point    44 :       0.1000    0.0000    0.5000
  band No.  band energies     occupation 
      1      -8.8812      2.00000
      2      -8.8812      2.00000
      3       2.1436      2.00000
      4       2.1436      2.00000
      5       4.8065      2.00000
      6       4.8065      2.00000
      7       5.1129      2.00000
      8       5.1129      2.00000
      9      12.9677      0.00000
     10      12.9677      0.00000
     11      15.8639      0.00000
     12      15.8639      0.00000

 k-point    45 :       0.2000   -0.0000    0.5000
  band No.  band energies     occupation 
      1      -8.5438      2.00000
      2      -8.5438      2.00000
      3       1.8838      2.00000
      4       1.8838      2.00000
      5       4.1496      2.00000
      6       4.1497      2.00000
      7       4.8374      2.00000
      8       4.8375      2.00000
      9      12.8960      0.00000
     10      12.8961      0.00000
     11      15.6079      0.00000
     12      15.6079      0.00000

 k-point    46 :       0.3000   -0.0000    0.5000
  band No.  band energies     occupation 
      1      -8.0653      2.00000
      2      -8.0653      2.00000
      3       1.0964      2.00000
      4       1.0964      2.00000
      5       3.9747      2.00000
      6       3.9747      2.00000
      7       4.5458      2.00000
      8       4.5458      2.00000
      9      12.0949      0.00000
     10      12.0949      0.00000
     11      15.8194      0.00000
     12      15.8194      0.00000

 k-point    47 :       0.4000   -0.0000    0.5000
  band No.  band energies     occupation 
      1      -7.6050      2.00000
      2      -7.6050      2.00000
      3       0.2343      2.00000
      4       0.2344      2.00000
      5       4.1162      2.00000
      6       4.1162      2.00000
      7       4.3326      2.00000
      8       4.3327      2.00000
      9      11.4174      0.00000
     10      11.4174      0.00000
     11      15.5706      0.00000
     12      15.5706      0.00000

 k-point    48 :       0.5000   -0.0000    0.5000
  band No.  band energies     occupation 
      1      -7.4047      2.00000
      2      -7.4047      2.00000
      3      -0.1323      2.00000
      4      -0.1323      2.00000
      5       4.2090      2.00000
      6       4.2090      2.00000
      7       4.2348      2.00000
      8       4.2348      2.00000
      9      11.1653      0.00000
     10      11.1653      0.00000
     11      15.3925      0.00000
     12      15.3925      0.00000

 k-point    49 :       0.1000    0.1000    0.5000
  band No.  band energies     occupation 
      1      -8.6523      2.00000
      2      -8.6523      2.00000
      3       2.0134      2.00000
      4       2.0135      2.00000
      5       4.3237      2.00000
      6       4.3237      2.00000
      7       4.8731      2.00000
      8       4.8731      2.00000
      9      13.1116      0.00000
     10      13.1117      0.00000
     11      15.4946      0.00000
     12      15.4946      0.00000

 k-point    50 :       0.2000    0.1000    0.5000
  band No.  band energies     occupation 
      1      -8.2414      2.00000
      2      -8.2414      2.00000
      3       1.4944      2.00000
      4       1.4944      2.00000
      5       3.9355      2.00000
      6       3.9355      2.00000
      7       4.5426      2.00000
      8       4.5426      2.00000
      9      12.6708      0.00000
     10      12.6709      0.00000
     11      15.7346      0.00000
     12      15.7346      0.00000

 k-point    51 :       0.3000    0.1000    0.5000
  band No.  band energies     occupation 
      1      -7.7620      2.00000
      2      -7.7620      2.00000
      3       0.6696      2.00000
      4       0.6696      2.00000
      5       3.7023      2.00000
      6       3.7023      2.00000
      7       4.4540      2.00000
      8       4.4541      2.00000
      9      12.0046      0.00000
     10      12.0046      0.00000
     11      15.7759      0.00000
     12      15.7759      0.00000

 k-point    52 :       0.4000    0.1000    0.5000
  band No.  band energies     occupation 
      1      -7.4155      2.00000
      2      -7.4155      2.00000
      3       0.0660      2.00000
      4       0.0660      2.00000
      5       3.5322      2.00000
      6       3.5322      2.00000
      7       4.5504      2.00000
      8       4.5504      2.00000
      9      11.5910      0.00000
     10      11.5910      0.00000
     11      15.5502      0.00000
     12      15.5502      0.00000

 k-point    53 :       0.2000    0.2000    0.5000
  band No.  band energies     occupation 
      1      -7.8225      2.00000
      2      -7.8225      2.00000
      3       0.9582      2.00000
      4       0.9583      2.00000
      5       3.3824      2.00000
      6       3.3824      2.00000
      7       4.4559      2.00000
      8       4.4559      2.00000
      9      12.5206      0.00000
     10      12.5206      0.00000
     11      15.6766      0.00000
     12      15.6767      0.00000

 k-point    54 :       0.3000    0.2000    0.5000
  band No.  band energies     occupation 
      1      -7.4334      2.00000
      2      -7.4334      2.00000
      3       0.4890      2.00000
      4       0.4890      2.00000
      5       2.7570      2.00000
      6       2.7570      2.00000
      7       4.6389      2.00000
      8       4.6390      2.00000
      9      12.3897      0.00000
     10      12.3897      0.00000
     11      15.2585      0.00000
     12      15.2585      0.00000

 k-point    55 :       0.4000    0.2000    0.5000
  band No.  band energies     occupation 
      1      -7.2686      2.00000
      2      -7.2686      2.00000
      3       0.2961      2.00000
      4       0.2961      2.00000
      5       2.5182      2.00000
      6       2.5182      2.00000
      7       4.7437      2.00000
      8       4.7437      2.00000
      9      12.3408      0.00000
     10      12.3408      0.00000
     11      15.0341      0.00000
     12      15.0341      0.00000

 k-point    56 :       0.3000    0.3000    0.5000
  band No.  band energies     occupation 
      1      -7.2152      2.00000
      2      -7.2152      2.00000
      3       0.6205      2.00000
      4       0.6205      2.00000
      5       1.8716      2.00000
      6       1.8716      2.00000
      7       4.8055      2.00000
      8       4.8055      2.00000
      9      12.9884      0.00000
     10      12.9884      0.00000
     11      14.2969      0.00000
     12      14.2969      0.00000


--------------------------------------------------------------------------------------------------------


 soft charge-density along one line, spin component           1
         0         1         2         3         4         5         6         7         8         9
 total charge-density along one line
 
 pseudopotential strength for first ion, spin component:           1
  7.123 -16.627   0.000   0.000   0.000  -0.000  -0.001  -0.000
-16.627  48.624  -0.000  -0.000  -0.000   0.000   0.002   0.000
  0.000  -0.000   1.765  -0.000   0.000  -6.713   0.000  -0.000
  0.000  -0.000  -0.000   1.765  -0.000   0.000  -6.714   0.000
  0.000  -0.000   0.000  -0.000   1.765  -0.000   0.000  -6.713
 -0.000   0.000  -6.713   0.000  -0.000  27.884  -0.000   0.000
 -0.001   0.002   0.000  -6.714   0.000  -0.000  27.885  -0.000
 -0.000   0.000  -0.000   0.000  -6.713   0.000  -0.000  27.884
  0.000  -0.000  -0.000   0.000   0.000   0.000  -0.000  -0.001
 -0.000   0.000   0.000   0.000   0.000  -0.000  -0.000  -0.000
  0.000  -0.000  -0.000   0.000   0.000   0.000  -0.001  -0.000
 -0.000   0.000   0.000   0.000   0.000  -0.000  -0.000  -0.000
  0.000  -0.000   0.000  -0.000   0.000  -0.001   0.000  -0.000
 -0.000   0.000   0.000  -0.000   0.000  -0.000   0.000  -0.000
  0.000  -0.000  -0.001  -0.000  -0.000   0.003   0.000   0.000
 -0.000   0.000   0.000  -0.001  -0.000  -0.000   0.003   0.000
  0.000  -0.000  -0.000  -0.000  -0.001   0.000   0.000   0.003
 -0.000   0.000   0.000   0.000  -0.000  -0.000  -0.000   0.000
 total augmentation occupancy for first ion, spin component:           1
  1.262   0.029   0.000  -0.022   0.000   0.000  -0.001   0.000   0.000   0.000  -0.001   0.000   0.000   0.000   0.000  -0.000
  0.029   0.001   0.000  -0.001  -0.000  -0.000  -0.000  -0.000   0.000   0.000   0.000   0.000   0.000   0.000   0.000   0.000
 -0.000   0.000   1.203   0.000   0.000   0.028   0.000   0.000   0.000   0.132   0.000   0.000  -0.194   0.000   0.007   0.000
 -0.022  -0.001   0.000   1.221  -0.000  -0.000   0.029   0.000   0.000   0.000  -0.250  -0.000   0.000   0.000   0.000  -0.014
  0.000   0.000   0.000   0.000   1.203   0.000   0.000   0.028  -0.194   0.000   0.000   0.132  -0.000  -0.011   0.000   0.000
  0.000   0.000   0.028   0.000   0.000   0.001   0.000   0.000   0.000   0.003   0.000   0.000  -0.005   0.000   0.000   0.000
 -0.001  -0.000   0.000   0.029   0.000   0.000   0.001   0.000   0.000   0.000  -0.006   0.000   0.000   0.000   0.000  -0.000
  0.000  -0.000   0.000   0.000   0.028   0.000   0.000   0.001  -0.005   0.000   0.000   0.003  -0.000  -0.000   0.000   0.000
  0.000   0.000   0.000   0.000  -0.194   0.000   0.000  -0.005   0.081   0.000  -0.000  -0.029  -0.000   0.004   0.000  -0.000
  0.000   0.000   0.132   0.000   0.000   0.003   0.000   0.000   0.000   0.059   0.000   0.000  -0.029   0.000   0.003   0.000
 -0.001   0.000   0.000  -0.250   0.000   0.000  -0.006   0.000  -0.000   0.000   0.107   0.000  -0.000  -0.000   0.000   0.005
  0.000   0.000   0.000  -0.000   0.132   0.000  -0.000   0.003  -0.029   0.000   0.000   0.059  -0.000  -0.002   0.000   0.000
  0.000   0.000  -0.194   0.000  -0.000  -0.005   0.000  -0.000   0.000  -0.029  -0.000  -0.000   0.081  -0.000  -0.002  -0.000
  0.000   0.000   0.000   0.000  -0.011   0.000   0.000  -0.000   0.004   0.000  -0.000  -0.002   0.000   0.000   0.000  -0.000
  0.000   0.000   0.007   0.000   0.000   0.000  -0.000   0.000   0.000   0.003   0.000   0.000  -0.002   0.000   0.000   0.000
 -0.000   0.000   0.000  -0.014   0.000   0.000  -0.000   0.000  -0.000   0.000   0.005   0.000  -0.000  -0.000   0.000   0.000
 -0.000  -0.000   0.000   0.000   0.007   0.000   0.000   0.000  -0.002   0.000   0.000   0.003  -0.000  -0.000   0.000   0.000
  0.000   0.000  -0.011   0.000  -0.000  -0.000   0.000  -0.000  -0.000  -0.002  -0.000  -0.000   0.004   0.000  -0.000  -0.000


------------------------ aborting loop because EDIFF is reached ----------------------------------------


    CHARGE:  cpu time    0.0103: real time    0.0103
    FORLOC:  cpu time    0.0003: real time    0.0003
    FORNL :  cpu time    0.7029: real time    2.6203
    STRESS:  cpu time    2.5005: real time    7.9604
    FORCOR:  cpu time    0.0046: real time    0.0049
    FORHAR:  cpu time    0.0011: real time    0.0011
    MIXING:  cpu time    0.0004: real time    0.0004
    OFIELD:  cpu time    0.0000: real time    0.0000

  FORCE on cell =-STRESS in cart. coord.  units (eV):
  Direction    XX          YY          ZZ          XY          YZ          ZX
  --------------------------------------------------------------------------------------
  Alpha Z    33.78037    33.78037    33.78037
  Ewald    -205.83158  -205.83158  -192.54583    -0.00000    -0.00000    -0.00000
  Hartree    49.10611    49.10611    53.12532    -0.00000    -0.00000    -0.00000
  E(xc)     -63.57736   -63.57739   -63.53590    -0.00002     0.00004     0.00003
  Local     -57.83222   -57.83123   -74.66687     0.00085     0.00019     0.00011
  n-local     6.99695     6.81909     7.00444     0.51095    -0.06113     0.01476
  augment     1.38240     1.38249     1.35982     0.00008     0.00002     0.00001
  Kinetic   232.87803   239.24876   235.47670    -7.15956    -0.26926    -0.78355
  Fock        0.00000     0.00000     0.00000     0.00000     0.00000     0.00000
  -------------------------------------------------------------------------------------
  Total      -0.00034    -0.00034    -0.00195     0.00000     0.00000     0.00000
  in kB      -0.01386    -0.01386    -0.07972     0.00000     0.00000     0.00000
  external pressure =       -0.04 kB  Pullay stress =        0.00 kB


 VOLUME and BASIS-vectors are now :
 -----------------------------------------------------------------------------
  energy-cutoff  :      300.00
  volume of cell :       39.27
      direct lattice vectors                 reciprocal lattice vectors
     3.037781739 -0.000000000 -0.000000000     0.329187574  0.190056534 -0.000000000
    -1.518890869  2.630796157  0.000000000     0.000000000  0.380113069 -0.000000000
    -0.000000000  0.000000000  4.913220717     0.000000000 -0.000000000  0.203532481

  length of vectors
     3.037781739  3.037781739  4.913220717     0.380113069  0.380113069  0.203532481


 FORCES acting on ions
    electron-ion (+dipol)            ewald-force                    non-local-force                 convergence-correction
 -----------------------------------------------------------------------------------------------
   -.179E-04 -.459E-04 -.599E+00   -.544E-11 0.313E-11 0.321E+00   -.773E-16 0.163E-17 0.686E+00   0.342E-08 -.199E-08 0.190E-05
   -.308E-04 -.385E-04 -.599E+00   0.544E-11 -.312E-11 0.321E+00   0.539E-16 -.689E-16 0.686E+00   -.343E-08 0.197E-08 0.190E-05
   0.468E-04 -.235E-06 0.294E+00   -.572E-11 0.328E-11 -.321E+00   0.574E-17 -.307E-17 -.379E+00   0.488E-09 -.351E-09 -.101E-03
   -.236E-04 0.404E-04 0.294E+00   0.572E-11 -.329E-11 -.321E+00   0.331E-17 0.330E-17 -.379E+00   -.548E-09 0.247E-09 -.101E-03
 -----------------------------------------------------------------------------------------------
   -.255E-04 -.442E-04 -.612E+00   -.221E-14 -.181E-14 -.211E-14   -.144E-16 -.670E-16 0.613E+00   -.683E-10 -.118E-09 -.199E-03
 
 
 POSITION                                       TOTAL-FORCE (eV/Angst)
 -----------------------------------------------------------------------------------
      0.00000      1.75386      0.00000        -0.000000      0.000000      0.406583
      1.51889      0.87693      2.45661        -0.000000      0.000000      0.406583
      0.00000      1.75386      3.07076         0.000000     -0.000000     -0.406583
      1.51889      0.87693      0.61415         0.000000     -0.000000     -0.406583
 -----------------------------------------------------------------------------------
    total drift:                               -0.000026     -0.000044      0.001171


--------------------------------------------------------------------------------------------------------



  FREE ENERGIE OF THE ION-ELECTRON SYSTEM (eV)
  ---------------------------------------------------
  free  energy   TOTEN  =       -29.93812265 eV

  energy  without entropy=      -29.93812265  energy(sigma->0) =      -29.93812265
 
 d Force = 0.0000000E+00[ 0.000E+00, 0.000E+00]  d Energy = 0.5312834E-04-0.531E-04
 d Force = 0.0000000E+00[ 0.000E+00, 0.000E+00]  d Ewald  =-0.1598501E-01 0.160E-01


--------------------------------------------------------------------------------------------------------


    POTLOK:  cpu time    0.0081: real time    0.0081


--------------------------------------------------------------------------------------------------------




--------------------------------------------------------------------------------------------------------


  
 reached required accuracy - stopping structural energy minimisation
     LOOP+:  cpu time    9.9519: real time   24.5023
    4ORBIT:  cpu time    0.0000: real time    0.0000

 total amount of memory used by VASP MPI-rank0    33457. kBytes
=======================================================================

   base      :      30000. kBytes
   nonlr-proj:       1545. kBytes
   fftplans  :        251. kBytes
   grid      :        578. kBytes
   one-center:         62. kBytes
   wavefun   :       1021. kBytes
 
  
  
 General timing and accounting informations for this job:
 ========================================================
  
                  Total CPU time used (sec):       60.413
                            User time (sec):       53.795
                          System time (sec):        6.619
                         Elapsed time (sec):      148.084
  
                   Maximum memory used (kb):      287436.
                   Average memory used (kb):           0.
  
                          Minor page faults:       154107
                          Major page faults:           22
                 Voluntary context switches:        83593
