NiAl                                    
           1
     3.112000    0.000000    0.000000
    -1.556000    2.695071    0.000000
     0.000000    0.000000    4.982000
   Al   N 
   2   2
NiAl                                    
           1
     3.112000    0.000000    0.000000
    -1.556000    2.695071    0.000000
     0.000000    0.000000    4.982000
   Al   N 
   2   2
Direct configuration=     1
   0.33333333  0.66666667  0.00000000
   0.66666667  0.33333333  0.50000000
   0.33333333  0.66666667  0.62500000
   0.66666667  0.33333333  0.12500000
NiAl                                    
           1
     3.039124   -0.000000    0.000000
    -1.519562    2.631959    0.000000
     0.000000   -0.000000    4.897774
   Al   N 
   2   2
Direct configuration=     2
   0.33333333  0.66666667  0.00000000
   0.66666667  0.33333333  0.50000000
   0.33333333  0.66666667  0.62500000
   0.66666667  0.33333333  0.12500000
NiAl                                    
           1
     3.041159   -0.000000    0.000000
    -1.520580    2.633721    0.000000
     0.000000   -0.000000    4.900126
   Al   N 
   2   2
Direct configuration=     3
   0.33333333  0.66666667  0.00000000
   0.66666667  0.33333333  0.50000000
   0.33333333  0.66666667  0.62500000
   0.66666667  0.33333333  0.12500000
NiAl                                    
           1
     3.038762   -0.000000   -0.000000
    -1.519381    2.631645    0.000000
    -0.000000    0.000000    4.909422
   Al   N 
   2   2
Direct configuration=     4
   0.33333333  0.66666667  0.00000000
   0.66666667  0.33333333  0.50000000
   0.33333333  0.66666667  0.62500000
   0.66666667  0.33333333  0.12500000
NiAl                                    
           1
     3.037782   -0.000000   -0.000000
    -1.518891    2.630796    0.000000
    -0.000000    0.000000    4.913221
   Al   N 
   2   2
Direct configuration=     5
   0.33333333  0.66666667  0.00000000
   0.66666667  0.33333333  0.50000000
   0.33333333  0.66666667  0.62500000
   0.66666667  0.33333333  0.12500000
