 254 254   0   0
  0.3019211E+02  0.1718057E-08  0.1718057E-08  0.3000000E-08  0.5000000E-15
  1.000000000000000E-004
  CAR 
 NiAl                                    
      5.07026894    -15.66068102  301      1.78648080      1.00000000
    -15.661  0.0000E+00  0.0000E+00
    -15.592  0.0000E+00  0.0000E+00
    -15.522  0.0000E+00  0.0000E+00
    -15.453  0.0000E+00  0.0000E+00
    -15.384  0.0000E+00  0.0000E+00
    -15.315  0.0000E+00  0.0000E+00
    -15.246  0.0000E+00  0.0000E+00
    -15.177  0.0000E+00  0.0000E+00
    -15.108  0.0000E+00  0.0000E+00
    -15.039  0.0000E+00  0.0000E+00
    -14.970  0.1702E-10  0.1176E-11
    -14.901  0.3698E-05  0.2555E-06
    -14.831  0.1995E-01  0.1379E-02
    -14.762  0.3067E+01  0.2133E+00
    -14.693  0.1894E+02  0.1522E+01
    -14.624  0.6801E+01  0.1992E+01
    -14.555  0.1115E+00  0.2000E+01
    -14.486  0.5578E-04  0.2000E+01
    -14.417  0.7108E-09  0.2000E+01
    -14.348  0.0000E+00  0.2000E+01
    -14.279  0.0000E+00  0.2000E+01
    -14.210  0.0000E+00  0.2000E+01
    -14.140  0.0000E+00  0.2000E+01
    -14.071  0.0000E+00  0.2000E+01
    -14.002  0.0000E+00  0.2000E+01
    -13.933  0.0000E+00  0.2000E+01
    -13.864  0.0000E+00  0.2000E+01
    -13.795  0.0000E+00  0.2000E+01
    -13.726  0.0000E+00  0.2000E+01
    -13.657  0.0000E+00  0.2000E+01
    -13.588  0.0000E+00  0.2000E+01
    -13.518  0.0000E+00  0.2000E+01
    -13.449  0.0000E+00  0.2000E+01
    -13.380  0.0000E+00  0.2000E+01
    -13.311  0.0000E+00  0.2000E+01
    -13.242  0.0000E+00  0.2000E+01
    -13.173  0.0000E+00  0.2000E+01
    -13.104  0.0000E+00  0.2000E+01
    -13.035  0.0000E+00  0.2000E+01
    -12.966  0.0000E+00  0.2000E+01
    -12.897  0.0000E+00  0.2000E+01
    -12.827  0.0000E+00  0.2000E+01
    -12.758  0.0000E+00  0.2000E+01
    -12.689  0.0000E+00  0.2000E+01
    -12.620  0.0000E+00  0.2000E+01
    -12.551  0.0000E+00  0.2000E+01
    -12.482  0.0000E+00  0.2000E+01
    -12.413  0.0000E+00  0.2000E+01
    -12.344  0.0000E+00  0.2000E+01
    -12.275  0.0000E+00  0.2000E+01
    -12.206  0.0000E+00  0.2000E+01
    -12.136  0.0000E+00  0.2000E+01
    -12.067  0.0000E+00  0.2000E+01
    -11.998  0.0000E+00  0.2000E+01
    -11.929  0.0000E+00  0.2000E+01
    -11.860  0.0000E+00  0.2000E+01
    -11.791  0.0000E+00  0.2000E+01
    -11.722  0.0000E+00  0.2000E+01
    -11.653  0.0000E+00  0.2000E+01
    -11.584  0.0000E+00  0.2000E+01
    -11.514  0.0000E+00  0.2000E+01
    -11.445  0.0000E+00  0.2000E+01
    -11.376  0.0000E+00  0.2000E+01
    -11.307  0.0000E+00  0.2000E+01
    -11.238  0.0000E+00  0.2000E+01
    -11.169  0.0000E+00  0.2000E+01
    -11.100  0.0000E+00  0.2000E+01
    -11.031  0.0000E+00  0.2000E+01
    -10.962  0.0000E+00  0.2000E+01
    -10.893  0.0000E+00  0.2000E+01
    -10.823  0.0000E+00  0.2000E+01
    -10.754  0.0000E+00  0.2000E+01
    -10.685  0.0000E+00  0.2000E+01
    -10.616  0.0000E+00  0.2000E+01
    -10.547  0.0000E+00  0.2000E+01
    -10.478  0.0000E+00  0.2000E+01
    -10.409  0.0000E+00  0.2000E+01
    -10.340  0.0000E+00  0.2000E+01
    -10.271  0.0000E+00  0.2000E+01
    -10.202  0.0000E+00  0.2000E+01
    -10.132  0.0000E+00  0.2000E+01
    -10.063  0.0000E+00  0.2000E+01
     -9.994  0.0000E+00  0.2000E+01
     -9.925  0.0000E+00  0.2000E+01
     -9.856  0.3049E-12  0.2000E+01
     -9.787  0.1845E-06  0.2000E+01
     -9.718  0.2718E-02  0.2000E+01
     -9.649  0.1083E+01  0.2075E+01
     -9.580  0.1539E+02  0.3138E+01
     -9.510  0.1199E+02  0.3967E+01
     -9.441  0.4809E+00  0.4000E+01
     -9.372  0.6426E-03  0.4000E+01
     -9.303  0.9067E-04  0.4000E+01
     -9.234  0.8614E-01  0.4006E+01
     -9.165  0.2664E+01  0.4190E+01
     -9.096  0.4173E+01  0.4478E+01
     -9.027  0.6017E+01  0.4894E+01
     -8.958  0.2894E+02  0.6894E+01
     -8.889  0.8700E+01  0.7495E+01
     -8.819  0.2114E+01  0.7641E+01
     -8.750  0.4743E+01  0.7969E+01
     -8.681  0.1359E+02  0.8908E+01
     -8.612  0.5619E+02  0.1279E+02
     -8.543  0.1976E+02  0.1416E+02
     -8.474  0.2596E+02  0.1595E+02
     -8.405  0.1484E+02  0.1698E+02
     -8.336  0.7057E+01  0.1746E+02
     -8.267  0.2913E+02  0.1948E+02
     -8.198  0.9494E+01  0.2013E+02
     -8.128  0.2714E+02  0.2201E+02
     -8.059  0.2331E+02  0.2362E+02
     -7.990  0.5633E+02  0.2751E+02
     -7.921  0.6734E+02  0.3216E+02
     -7.852  0.4839E+01  0.3250E+02
     -7.783  0.2767E-01  0.3250E+02
     -7.714  0.5068E+01  0.3285E+02
     -7.645  0.8136E+02  0.3847E+02
     -7.576  0.8229E+02  0.4416E+02
     -7.507  0.1461E+02  0.4517E+02
     -7.437  0.2862E+02  0.4715E+02
     -7.368  0.7432E+01  0.4766E+02
     -7.299  0.2832E+02  0.4962E+02
     -7.230  0.2125E+02  0.5109E+02
     -7.161  0.3930E+02  0.5380E+02
     -7.092  0.4393E+02  0.5684E+02
     -7.023  0.3681E+02  0.5938E+02
     -6.954  0.1142E+03  0.6727E+02
     -6.885  0.2743E+02  0.6917E+02
     -6.815  0.4342E+02  0.7217E+02
     -6.746  0.3982E+02  0.7492E+02
     -6.677  0.4463E+02  0.7800E+02
     -6.608  0.1123E+03  0.8577E+02
     -6.539  0.2555E+02  0.8753E+02
     -6.470  0.2923E+02  0.8955E+02
     -6.401  0.6452E+01  0.9000E+02
     -6.332  0.6564E+00  0.9004E+02
     -6.263  0.5067E+01  0.9039E+02
     -6.194  0.3748E+02  0.9298E+02
     -6.124  0.1331E+03  0.1022E+03
     -6.055  0.6317E+02  0.1065E+03
     -5.986  0.1116E+03  0.1143E+03
     -5.917  0.4653E+02  0.1175E+03
     -5.848  0.2022E+02  0.1189E+03
     -5.779  0.4971E+02  0.1223E+03
     -5.710  0.5218E+02  0.1259E+03
     -5.641  0.1283E+03  0.1348E+03
     -5.572  0.5318E+02  0.1385E+03
     -5.503  0.2706E+02  0.1403E+03
     -5.433  0.1739E+02  0.1415E+03
     -5.364  0.3904E+02  0.1442E+03
     -5.295  0.8071E+02  0.1498E+03
     -5.226  0.2419E+02  0.1515E+03
     -5.157  0.8409E+02  0.1573E+03
     -5.088  0.7556E+02  0.1625E+03
     -5.019  0.8136E+02  0.1681E+03
     -4.950  0.5307E+02  0.1718E+03
     -4.881  0.6669E+01  0.1723E+03
     -4.811  0.4662E+02  0.1755E+03
     -4.742  0.6560E+02  0.1800E+03
     -4.673  0.1436E+03  0.1899E+03
     -4.604  0.5015E+02  0.1934E+03
     -4.535  0.6053E+02  0.1976E+03
     -4.466  0.5505E+02  0.2014E+03
     -4.397  0.2468E+02  0.2031E+03
     -4.328  0.7092E+02  0.2080E+03
     -4.259  0.6378E+02  0.2124E+03
     -4.190  0.1399E+03  0.2221E+03
     -4.120  0.9987E+02  0.2290E+03
     -4.051  0.8537E+02  0.2349E+03
     -3.982  0.4548E+02  0.2380E+03
     -3.913  0.3847E+02  0.2407E+03
     -3.844  0.9140E+02  0.2470E+03
     -3.775  0.5743E+02  0.2510E+03
     -3.706  0.1031E+03  0.2581E+03
     -3.637  0.5748E+02  0.2620E+03
     -3.568  0.5959E+02  0.2662E+03
     -3.499  0.6427E+02  0.2706E+03
     -3.429  0.1354E+02  0.2715E+03
     -3.360  0.1528E+02  0.2726E+03
     -3.291  0.4718E+02  0.2759E+03
     -3.222  0.9515E+02  0.2824E+03
     -3.153  0.7819E+02  0.2878E+03
     -3.084  0.1268E+03  0.2966E+03
     -3.015  0.9107E+02  0.3029E+03
     -2.946  0.8459E+02  0.3087E+03
     -2.877  0.1472E+03  0.3189E+03
     -2.807  0.1435E+03  0.3288E+03
     -2.738  0.1787E+03  0.3412E+03
     -2.669  0.3369E+02  0.3435E+03
     -2.600  0.9221E+01  0.3441E+03
     -2.531  0.2408E+02  0.3458E+03
     -2.462  0.5867E+02  0.3499E+03
     -2.393  0.8082E+02  0.3554E+03
     -2.324  0.1052E+03  0.3627E+03
     -2.255  0.1080E+03  0.3702E+03
     -2.186  0.6333E+02  0.3746E+03
     -2.116  0.1219E+03  0.3830E+03
     -2.047  0.6687E+02  0.3876E+03
     -1.978  0.4527E+02  0.3907E+03
     -1.909  0.8267E+02  0.3964E+03
     -1.840  0.1153E+03  0.4044E+03
     -1.771  0.1580E+03  0.4153E+03
     -1.702  0.6881E+02  0.4201E+03
     -1.633  0.4172E+02  0.4230E+03
     -1.564  0.6736E+02  0.4276E+03
     -1.495  0.8414E+02  0.4334E+03
     -1.425  0.5675E+02  0.4374E+03
     -1.356  0.1720E+03  0.4492E+03
     -1.287  0.1275E+03  0.4581E+03
     -1.218  0.1122E+03  0.4658E+03
     -1.149  0.1135E+03  0.4736E+03
     -1.080  0.6852E+02  0.4784E+03
     -1.011  0.8002E+02  0.4839E+03
     -0.942  0.7426E+02  0.4890E+03
     -0.873  0.1358E+03  0.4984E+03
     -0.804  0.1027E+03  0.5055E+03
     -0.734  0.8173E+02  0.5112E+03
     -0.665  0.5247E+02  0.5148E+03
     -0.596  0.3356E+02  0.5171E+03
     -0.527  0.8815E+02  0.5232E+03
     -0.458  0.1859E+03  0.5361E+03
     -0.389  0.1730E+03  0.5480E+03
     -0.320  0.7806E+02  0.5534E+03
     -0.251  0.1566E+03  0.5642E+03
     -0.182  0.7327E+02  0.5693E+03
     -0.112  0.4606E+02  0.5725E+03
     -0.043  0.3501E+02  0.5749E+03
      0.026  0.7625E+02  0.5802E+03
      0.095  0.1160E+03  0.5882E+03
      0.164  0.6906E+02  0.5929E+03
      0.233  0.1075E+03  0.6004E+03
      0.302  0.7833E+02  0.6058E+03
      0.371  0.7297E+02  0.6108E+03
      0.440  0.1275E+03  0.6196E+03
      0.509  0.1315E+03  0.6287E+03
      0.579  0.6580E+02  0.6333E+03
      0.648  0.7183E+02  0.6382E+03
      0.717  0.4284E+02  0.6412E+03
      0.786  0.5581E+02  0.6451E+03
      0.855  0.6820E+02  0.6498E+03
      0.924  0.1654E+03  0.6612E+03
      0.993  0.2597E+03  0.6791E+03
      1.062  0.1313E+03  0.6882E+03
      1.131  0.1137E+03  0.6961E+03
      1.200  0.8623E+02  0.7020E+03
      1.270  0.6549E+02  0.7066E+03
      1.339  0.7618E+02  0.7118E+03
      1.408  0.9048E+02  0.7181E+03
      1.477  0.9993E+02  0.7250E+03
      1.546  0.1480E+03  0.7352E+03
      1.615  0.1742E+03  0.7472E+03
      1.684  0.1538E+03  0.7579E+03
      1.753  0.8747E+02  0.7639E+03
      1.822  0.6331E+02  0.7683E+03
      1.892  0.7333E+02  0.7734E+03
      1.961  0.1545E+03  0.7840E+03
      2.030  0.1194E+03  0.7923E+03
      2.099  0.8388E+02  0.7981E+03
      2.168  0.9537E+02  0.8047E+03
      2.237  0.7834E+02  0.8101E+03
      2.306  0.5910E+02  0.8142E+03
      2.375  0.9492E+02  0.8207E+03
      2.444  0.1012E+03  0.8277E+03
      2.513  0.7837E+02  0.8331E+03
      2.583  0.1398E+03  0.8428E+03
      2.652  0.1296E+03  0.8518E+03
      2.721  0.7108E+02  0.8567E+03
      2.790  0.8082E+02  0.8623E+03
      2.859  0.1227E+03  0.8707E+03
      2.928  0.2976E+03  0.8913E+03
      2.997  0.2134E+03  0.9060E+03
      3.066  0.1239E+03  0.9146E+03
      3.135  0.6186E+02  0.9189E+03
      3.204  0.7640E+02  0.9242E+03
      3.274  0.1031E+03  0.9313E+03
      3.343  0.1369E+03  0.9407E+03
      3.412  0.1385E+03  0.9503E+03
      3.481  0.1258E+03  0.9590E+03
      3.550  0.9386E+02  0.9655E+03
      3.619  0.8055E+02  0.9711E+03
      3.688  0.1230E+03  0.9796E+03
      3.757  0.8579E+02  0.9855E+03
      3.826  0.6339E+02  0.9899E+03
      3.896  0.1253E+03  0.9985E+03
      3.965  0.1705E+03  0.1010E+04
      4.034  0.1558E+03  0.1021E+04
      4.103  0.1050E+03  0.1028E+04
      4.172  0.4961E+02  0.1032E+04
      4.241  0.3482E+01  0.1032E+04
      4.310  0.1413E-01  0.1032E+04
      4.379  0.2007E-05  0.1032E+04
      4.448  0.7843E-11  0.1032E+04
      4.517  0.0000E+00  0.1032E+04
      4.587  0.0000E+00  0.1032E+04
      4.656  0.0000E+00  0.1032E+04
      4.725  0.0000E+00  0.1032E+04
      4.794  0.0000E+00  0.1032E+04
      4.863  0.0000E+00  0.1032E+04
      4.932  0.0000E+00  0.1032E+04
      5.001  0.0000E+00  0.1032E+04
      5.070  0.0000E+00  0.1032E+04
