 vasp.5.4.4.18Apr17-6-g9f103f2a35 (build May 02 2017 15:33:50) complex          
  
 executed on Intel-16.0.3.210-OMP date 2018.08.08  23:06:50
 running on    6 total cores
 distrk:  each k-point on    6 cores,    1 groups
 distr:  one band on NCORES_PER_BAND=   1 cores,    6 groups


--------------------------------------------------------------------------------------------------------


 INCAR:
 POTCAR:    PAW Al_GW 19Mar2012                   
 POTCAR:    PAW_PBE N 08Apr2002                   

 ----------------------------------------------------------------------------- 
|                                                                             |
|           W    W    AA    RRRRR   N    N  II  N    N   GGGG   !!!           |
|           W    W   A  A   R    R  NN   N  II  NN   N  G    G  !!!           |
|           W    W  A    A  R    R  N N  N  II  N N  N  G       !!!           |
|           W WW W  AAAAAA  RRRRR   N  N N  II  N  N N  G  GGG   !            |
|           WW  WW  A    A  R   R   N   NN  II  N   NN  G    G                |
|           W    W  A    A  R    R  N    N  II  N    N   GGGG   !!!           |
|                                                                             |
|      For optimal performance we recommend to set                            |
|        NCORE= 4 - approx SQRT( number of cores)                             |
|      NCORE specifies how many cores store one orbital (NPAR=cpu/NCORE).     |
|      This setting can  greatly improve the performance of VASP for DFT.     |
|      The default,   NCORE=1            might be grossly inefficient         |
|      on modern multi-core architectures or massively parallel machines.     |
|      Do your own testing !!!!                                               |
|      Unfortunately you need to use the default for GW and RPA calculations. |
|      (for HF NCORE is supported but not extensively tested yet)             |
|                                                                             |
 ----------------------------------------------------------------------------- 

 POTCAR:    PAW Al_GW 19Mar2012                   
   VRHFIN =Al: s2p1                                                             
   LEXCH  = PE                                                                  
   EATOM  =    53.5387 eV,    3.9350 Ry                                         
                                                                                
   TITEL  = PAW Al_GW 19Mar2012                                                 
   LULTRA =        F    use ultrasoft PP ?                                      
   IUNSCR =        1    unscreen: 0-lin 1-nonlin 2-no                           
   RPACOR =    1.500    partial core radius                                     
   POMASS =   26.982; ZVAL   =    3.000    mass and valenz                      
   RCORE  =    2.000    outmost cutoff radius                                   
   RWIGS  =    2.000; RWIGS  =    1.058    wigner-seitz radius (au A)           
   ENMAX  =  240.300; ENMIN  =  180.225 eV                                      
   ICORE  =        3    local potential                                         
   LCOR   =        T    correct aug charges                                     
   LPAW   =        T    paw PP                                                  
   EAUG   =  482.059                                                            
   DEXC   =    0.000                                                            
   RMAX   =    2.051    core radius for proj-oper                               
   RAUG   =    1.300    factor for augmentation sphere                          
   RDEP   =    2.096    radius for radial grids                                 
   RDEPT  =    1.856    core radius for aug-charge                              
                                                                                
   Atomic configuration                                                         
    7 entries                                                                   
     n  l   j            E        occ.                                          
     1  0  0.50     -1511.1048   2.0000                                         
     2  0  0.50      -108.1629   2.0000                                         
     2  1  1.50       -69.6402   6.0000                                         
     3  0  0.50        -7.7528   2.0000                                         
     3  1  1.50        -2.7121   1.0000                                         
     3  2  2.50        -2.7212   0.0000                                         
     4  3  2.50        -2.7212   0.0000                                         
   Description                                                                  
     l       E           TYP  RCUT    TYP  RCUT                                 
     0     -7.7528455     23  1.900                                             
     0     68.0291300     23  1.900                                             
     1     -2.7120682     23  1.900                                             
     1     68.0291300     23  1.900                                             
     2     -1.3605826     23  1.900                                             
     2     81.6349560     23  1.900                                             
     3     74.8320430     23  2.000                                             
  local pseudopotential read in
  partial core-charges read in
  partial kinetic energy density read in
  kinetic energy density of atom read in
  atomic valenz-charges read in
  non local Contribution for L=           0  read in
    real space projection operators read in
  non local Contribution for L=           0  read in
    real space projection operators read in
  non local Contribution for L=           1  read in
    real space projection operators read in
  non local Contribution for L=           1  read in
    real space projection operators read in
  non local Contribution for L=           2  read in
    real space projection operators read in
  non local Contribution for L=           2  read in
    real space projection operators read in
    PAW grid and wavefunctions read in
 
   number of l-projection  operators is LMAX  =           6
   number of lm-projection operators is LMMAX =          18
 
 POTCAR:    PAW_PBE N 08Apr2002                   
   VRHFIN =N: s2p3                                                              
   LEXCH  = PE                                                                  
   EATOM  =   264.5486 eV,   19.4438 Ry                                         
                                                                                
   TITEL  = PAW_PBE N 08Apr2002                                                 
   LULTRA =        F    use ultrasoft PP ?                                      
   IUNSCR =        1    unscreen: 0-lin 1-nonlin 2-no                           
   RPACOR =    1.200    partial core radius                                     
   POMASS =   14.001; ZVAL   =    5.000    mass and valenz                      
   RCORE  =    1.500    outmost cutoff radius                                   
   RWIGS  =    1.400; RWIGS  =    0.741    wigner-seitz radius (au A)           
   ENMAX  =  400.000; ENMIN  =  300.000 eV                                      
   ICORE  =        2    local potential                                         
   LCOR   =        T    correct aug charges                                     
   LPAW   =        T    paw PP                                                  
   EAUG   =  627.112                                                            
   DEXC   =    0.000                                                            
   RMAX   =    1.529    core radius for proj-oper                               
   RAUG   =    1.300    factor for augmentation sphere                          
   RDEP   =    1.514    radius for radial grids                                 
   RDEPT  =    1.338    core radius for aug-charge                              
                                                                                
   Atomic configuration                                                         
    4 entries                                                                   
     n  l   j            E        occ.                                          
     1  0  0.50      -384.7179   2.0000                                         
     2  0  0.50       -18.5828   2.0000                                         
     2  1  0.50        -7.0898   3.0000                                         
     3  2  1.50        -6.8029   0.0000                                         
   Description                                                                  
     l       E           TYP  RCUT    TYP  RCUT                                 
     0    -18.5828119     23  1.200                                             
     0    -13.5018863     23  1.200                                             
     1     -7.0897853     23  1.500                                             
     1      9.5240782     23  1.500                                             
     2     -6.8029130      7  1.500                                             
  local pseudopotential read in
  partial core-charges read in
  partial kinetic energy density read in
  atomic valenz-charges read in
  non local Contribution for L=           0  read in
    real space projection operators read in
  non local Contribution for L=           0  read in
    real space projection operators read in
  non local Contribution for L=           1  read in
    real space projection operators read in
  non local Contribution for L=           1  read in
    real space projection operators read in
    PAW grid and wavefunctions read in
 
   number of l-projection  operators is LMAX  =           4
   number of lm-projection operators is LMMAX =           8
 
 Optimization of the real space projectors (new method)

 maximal supplied QI-value         = 18.90
 optimisation between [QCUT,QGAM] = [  8.69, 17.57] = [ 21.16, 86.49] Ry 
 Optimized for a Real-space Cutoff    1.59 Angstroem

   l    n(q)    QCUT    max X(q) W(low)/X(q) W(high)/X(q)  e(spline) 
   0      8     8.693    11.519    0.12E-03    0.31E-04    0.21E-06
   0      8     8.693     5.834    0.89E-04    0.32E-04    0.16E-06
   1      8     8.693    10.132    0.25E-03    0.39E-03    0.25E-06
   1      8     8.693     3.004    0.16E-03    0.27E-03    0.22E-06
   2      7     8.693     3.169    0.39E-03    0.93E-03    0.44E-06
   2      7     8.693     1.605    0.70E-04    0.91E-04    0.19E-06
 Optimization of the real space projectors (new method)

 maximal supplied QI-value         = 25.13
 optimisation between [QCUT,QGAM] = [  8.80, 17.59] = [ 21.67, 86.68] Ry 
 Optimized for a Real-space Cutoff    2.14 Angstroem

   l    n(q)    QCUT    max X(q) W(low)/X(q) W(high)/X(q)  e(spline) 
   0     11     8.797    79.467    0.70E-04    0.19E-04    0.19E-05
   0     11     8.797    66.151    0.68E-04    0.18E-04    0.19E-05
   1     11     8.797     6.738    0.26E-03    0.11E-02    0.73E-05
   1     11     8.797     5.013    0.25E-03    0.11E-02    0.72E-05
  PAW Al_GW 19Mar2012                   :
 energy of atom  1       EATOM=  -53.5387
 kinetic energy error for atom=    0.0011 (will be added to EATOM!!)
  PAW_PBE N 08Apr2002                   :
 energy of atom  2       EATOM= -264.5486
 kinetic energy error for atom=    0.6882 (will be added to EATOM!!)
 
 
 POSCAR: New structure                           
  positions in cartesian coordinates
  No initial velocities read in
 exchange correlation table for  LEXCH =        8
   RHO(1)=    0.500       N(1)  =     2000
   RHO(2)=  100.500       N(2)  =     4000
 


--------------------------------------------------------------------------------------------------------


 ion  position               nearest neighbor table
   1  0.444  0.444  0.079-
   2  0.444  0.778  0.079-
   3  0.444  0.111  0.079-
   4  0.778  0.444  0.079-
   5  0.778  0.778  0.079-
   6  0.778  0.111  0.079-
   7  0.111  0.444  0.079-
   8  0.111  0.778  0.079-
   9  0.111  0.111  0.079-
  10  0.556  0.556  0.157-
  11  0.556  0.889  0.157-
  12  0.556  0.222  0.157-
  13  0.889  0.556  0.157-
  14  0.889  0.889  0.157-
  15  0.889  0.222  0.157-
  16  0.222  0.556  0.157-
  17  0.222  0.889  0.157-
  18  0.222  0.222  0.157-
  19  0.667  0.667  0.234-
  20  0.667  0.000  0.234-
  21  0.667  0.333  0.234-
  22  0.000  0.667  0.234-
  23  0.000  0.000  0.234-
  24  0.000  0.333  0.234-
  25  0.333  0.667  0.234-
  26  0.333  0.000  0.234-
  27  0.333  0.333  0.234-
  28  0.778  0.778  0.312-
  29  0.778  0.111  0.312-
  30  0.778  0.444  0.312-
  31  0.111  0.778  0.312-
  32  0.111  0.111  0.312-
  33  0.111  0.444  0.312-
  34  0.444  0.778  0.312-
  35  0.444  0.111  0.312-
  36  0.444  0.444  0.312-
  37  0.889  0.889  0.390-
  38  0.889  0.222  0.390-
  39  0.889  0.556  0.390-
  40  0.222  0.889  0.390-
  41  0.222  0.222  0.390-
  42  0.222  0.556  0.390-
  43  0.556  0.889  0.390-
  44  0.556  0.222  0.390-
  45  0.556  0.556  0.390-
  46  0.000  0.000  0.466-
  47  0.000  0.333  0.466-
  48  0.000  0.667  0.466-
  49  0.333  0.000  0.466-
  50  0.333  0.333  0.466-
  51  0.333  0.667  0.466-
  52  0.667  0.000  0.466-
  53  0.667  0.333  0.466-
  54  0.667  0.667  0.466-
  55  0.111  0.111  0.545-
  56  0.111  0.444  0.545-
  57  0.111  0.778  0.545-
  58  0.444  0.111  0.545-
  59  0.444  0.444  0.545-
  60  0.444  0.778  0.545-
  61  0.778  0.111  0.545-
  62  0.778  0.444  0.545-
  63  0.778  0.778  0.545-
  64  0.278  0.278  0.079-
  65  0.278  0.611  0.079-
  66  0.278  0.944  0.079-
  67  0.611  0.278  0.079-
  68  0.611  0.611  0.079-
  69  0.611  0.944  0.079-
  70  0.944  0.278  0.079-
  71  0.944  0.611  0.079-
  72  0.944  0.944  0.079-
  73  0.389  0.389  0.157-
  74  0.389  0.722  0.157-
  75  0.389  0.056  0.157-
  76  0.722  0.389  0.157-
  77  0.722  0.722  0.157-
  78  0.722  0.056  0.157-
  79  0.056  0.389  0.157-
  80  0.056  0.722  0.157-
  81  0.056  0.056  0.157-
  82  0.500  0.500  0.234-
  83  0.500  0.833  0.234-
  84  0.500  0.167  0.234-
  85  0.833  0.500  0.234-
  86  0.833  0.833  0.234-
  87  0.833  0.167  0.234-
  88  0.167  0.500  0.234-
  89  0.167  0.833  0.234-
  90  0.167  0.167  0.234-
  91  0.611  0.611  0.312-
  92  0.611  0.944  0.312-
  93  0.611  0.278  0.312-
  94  0.944  0.611  0.312-
  95  0.944  0.944  0.312-
  96  0.944  0.278  0.312-
  97  0.278  0.611  0.312-
  98  0.278  0.944  0.312-
  99  0.278  0.278  0.312-
 100  0.722  0.722  0.390-
 101  0.722  0.056  0.390-
 102  0.722  0.389  0.390-
 103  0.056  0.722  0.390-
 104  0.056  0.056  0.390-
 105  0.056  0.389  0.390-
 106  0.389  0.722  0.390-
 107  0.389  0.056  0.390-
 108  0.389  0.389  0.390-
 109  0.833  0.833  0.466-
 110  0.833  0.167  0.466-
 111  0.833  0.500  0.466-
 112  0.167  0.833  0.466-
 113  0.167  0.167  0.466-
 114  0.167  0.500  0.466-
 115  0.500  0.833  0.466-
 116  0.500  0.167  0.466-
 117  0.500  0.500  0.466-
 118  0.944  0.944  0.545-
 119  0.944  0.278  0.545-
 120  0.944  0.611  0.545-
 121  0.278  0.944  0.545-
 122  0.278  0.278  0.545-
 123  0.278  0.611  0.545-
 124  0.611  0.944  0.545-
 125  0.611  0.278  0.545-
 126  0.611  0.611  0.545-
 127  0.278  0.444  0.079-
 128  0.278  0.778  0.079-
 129  0.278  0.111  0.079-
 130  0.611  0.444  0.079-
 131  0.611  0.778  0.079-
 132  0.611  0.111  0.079-
 133  0.944  0.444  0.079-
 134  0.944  0.778  0.079-
 135  0.944  0.111  0.079-
 136  0.389  0.556  0.157-
 137  0.389  0.889  0.157-
 138  0.389  0.222  0.157-
 139  0.722  0.556  0.157-
 140  0.722  0.889  0.157-
 141  0.722  0.222  0.157-
 142  0.056  0.556  0.157-
 143  0.056  0.889  0.157-
 144  0.056  0.222  0.157-
 145  0.500  0.667  0.234-
 146  0.500  0.000  0.234-
 147  0.500  0.333  0.234-
 148  0.833  0.667  0.234-
 149  0.833  0.000  0.234-
 150  0.833  0.333  0.234-
 151  0.167  0.667  0.234-
 152  0.167  0.000  0.234-
 153  0.167  0.333  0.234-
 154  0.611  0.778  0.312-
 155  0.611  0.111  0.312-
 156  0.611  0.444  0.312-
 157  0.944  0.778  0.312-
 158  0.944  0.111  0.312-
 159  0.944  0.444  0.312-
 160  0.278  0.778  0.312-
 161  0.278  0.111  0.312-
 162  0.278  0.444  0.312-
 163  0.722  0.889  0.390-
 164  0.722  0.222  0.390-
 165  0.722  0.556  0.390-
 166  0.056  0.889  0.390-
 167  0.056  0.222  0.390-
 168  0.056  0.556  0.390-
 169  0.389  0.889  0.390-
 170  0.389  0.222  0.390-
 171  0.389  0.556  0.390-
 172  0.833  0.000  0.466-
 173  0.833  0.333  0.466-
 174  0.833  0.667  0.466-
 175  0.167  0.000  0.466-
 176  0.167  0.333  0.466-
 177  0.167  0.667  0.466-
 178  0.500  0.000  0.466-
 179  0.500  0.333  0.466-
 180  0.500  0.667  0.466-
 181  0.944  0.111  0.545-
 182  0.944  0.444  0.545-
 183  0.944  0.778  0.545-
 184  0.278  0.111  0.545-
 185  0.278  0.444  0.545-
 186  0.278  0.778  0.545-
 187  0.611  0.111  0.545-
 188  0.611  0.444  0.545-
 189  0.611  0.778  0.545-
 190  0.444  0.278  0.079-
 191  0.444  0.611  0.079-
 192  0.444  0.944  0.079-
 193  0.778  0.278  0.079-
 194  0.778  0.611  0.079-
 195  0.778  0.944  0.079-
 196  0.111  0.278  0.079-
 197  0.111  0.611  0.079-
 198  0.111  0.944  0.079-
 199  0.556  0.389  0.157-
 200  0.556  0.722  0.157-
 201  0.556  0.056  0.157-
 202  0.889  0.389  0.157-
 203  0.889  0.722  0.157-
 204  0.889  0.056  0.157-
 205  0.222  0.389  0.157-
 206  0.222  0.722  0.157-
 207  0.222  0.056  0.157-
 208  0.667  0.500  0.234-
 209  0.667  0.833  0.234-
 210  0.667  0.167  0.234-
 211  1.000  0.500  0.234-
 212  1.000  0.833  0.234-
 213  1.000  0.167  0.234-
 214  0.333  0.500  0.234-
 215  0.333  0.833  0.234-
 216  0.333  0.167  0.234-
 217  0.778  0.611  0.312-
 218  0.778  0.944  0.312-
 219  0.778  0.278  0.312-
 220  0.111  0.611  0.312-
 221  0.111  0.944  0.312-
 222  0.111  0.278  0.312-
 223  0.444  0.611  0.312-
 224  0.444  0.944  0.312-
 225  0.444  0.278  0.312-
 226  0.889  0.722  0.390-
 227  0.889  0.056  0.390-
 228  0.889  0.389  0.390-
 229  0.222  0.722  0.390-
 230  0.222  0.056  0.390-
 231  0.222  0.389  0.390-
 232  0.556  0.722  0.390-
 233  0.556  0.056  0.390-
 234  0.556  0.389  0.390-
 235  1.000  0.833  0.466-
 236  1.000  0.167  0.466-
 237  1.000  0.500  0.466-
 238  0.333  0.833  0.466-
 239  0.333  0.167  0.466-
 240  0.333  0.500  0.466-
 241  0.667  0.833  0.466-
 242  0.667  0.167  0.466-
 243  0.667  0.500  0.466-
 244  0.111  0.944  0.545-
 245  0.111  0.278  0.545-
 246  0.111  0.611  0.545-
 247  0.444  0.944  0.545-
 248  0.444  0.278  0.545-
 249  0.444  0.611  0.545-
 250  0.778  0.944  0.545-
 251  0.778  0.278  0.545-
 252  0.778  0.611  0.545-
 253  0.333  0.500  0.601- 254 1.65
 254  0.389  0.389  0.601- 253 1.65
 
  LATTYP: Found a hexagonal cell.
 ALAT       =    17.1805734625
 C/A-ratio  =     1.7461582447
  
  Lattice vectors:
  
 A1 = (   0.0000000000,  -8.5902867312,  14.8788130701)
 A2 = (   0.0000000000,  17.1805734625,   0.0000000000)
 A3 = ( -30.0000000000,   0.0000000000,   0.0000000000)


Analysis of symmetry for initial positions (statically):
=====================================================================
 Subroutine PRICEL returns:
 Original cell was already a primitive cell.
 

 Routine SETGRP: Setting up the symmetry group for a 
 hexagonal supercell.


 Subroutine GETGRP returns: Found  2 space group operations
 (whereof  1 operations were pure point group operations)
 out of a pool of 24 trial point group operations.


The static configuration has the point symmetry C_1 .
 The point group associated with its full space group is C_1h.


Analysis of symmetry for dynamics (positions and initial velocities):
=====================================================================
 Subroutine PRICEL returns:
 Original cell was already a primitive cell.
 

 Routine SETGRP: Setting up the symmetry group for a 
 hexagonal supercell.


 Subroutine GETGRP returns: Found  2 space group operations
 (whereof  1 operations were pure point group operations)
 out of a pool of 24 trial point group operations.


The dynamic configuration has the point symmetry C_1 .
 The point group associated with its full space group is C_1h.


 Subroutine INISYM returns: Found  2 space group operations
 (whereof  1 operations are pure point group operations),
 and found     1 'primitive' translations

 
 
 KPOINTS: Automatic generation                    

Automatic generation of k-mesh.
Space group operators:
 irot       det(A)        alpha          n_x          n_y          n_z        tau_x        tau_y        tau_z
    1     1.000000     0.000000     1.000000     0.000000     0.000000     0.000000     0.000000     0.000000
    2    -1.000000   180.000000     0.000000     1.000000     0.000000    -0.833333     0.000000     0.000000
 
 Subroutine IBZKPT returns following result:
 ===========================================
 
 Found      3 irreducible k-points:
 
 Following reciprocal coordinates:
            Coordinates               Weight
  0.000000  0.000000  0.000000      1.000000
  0.500000  0.000000  0.000000      2.000000
  0.000000  0.500000  0.000000      1.000000
 
 Following cartesian coordinates:
            Coordinates               Weight
  0.000000  0.000000  0.000000      1.000000
  0.000000 -0.029103  0.016802      2.000000
  0.000000  0.000000 -0.033605      1.000000
 


--------------------------------------------------------------------------------------------------------




 Dimension of arrays:
   k-points           NKPTS =      3   k-points in BZ     NKDIM =      3   number of bands    NBANDS=    516
   number of dos      NEDOS =    301   number of ions     NIONS =    254
   non local maximal  LDIM  =      6   non local SUM 2l+1 LMDIM =     18
   total plane-waves  NPLWV = 819200
   max r-space proj   IRMAX =   4449   max aug-charges    IRDMAX=   4357
   dimension x,y,z NGX =    80 NGY =   80 NGZ =  128
   dimension x,y,z NGXF=   160 NGYF=  160 NGZF=  256
   support grid    NGXF=   160 NGYF=  160 NGZF=  256
   ions per type =             252   2
   NGX,Y,Z   is equivalent  to a cutoff of   7.74,  7.74,  7.09 a.u.
   NGXF,Y,Z  is equivalent  to a cutoff of  15.48, 15.48, 14.19 a.u.

 SYSTEM =  NiAl                                    
 POSCAR =  New structure                           

 Startparameter for this run:
   NWRITE =      2    write-flag & timer
   PREC   = normal    normal or accurate (medium, high low for compatibility)
   ISTART =      0    job   : 0-new  1-cont  2-samecut
   ICHARG =      2    charge: 1-file 2-atom 10-const
   ISPIN  =      1    spin polarized calculation?
   LNONCOLLINEAR =      F non collinear calculations
   LSORBIT =      F    spin-orbit coupling
   INIWAV =      1    electr: 0-lowe 1-rand  2-diag
   LASPH  =      F    aspherical Exc in radial PAW
   METAGGA=      F    non-selfconsistent MetaGGA calc.

 Electronic Relaxation 1
   ENCUT  =  300.0 eV  22.05 Ry    4.70 a.u.  24.26 24.26 42.37*2*pi/ulx,y,z
   ENINI  =  300.0     initial cutoff
   ENAUG  =  627.1 eV  augmentation charge cutoff
   NELM   =     60;   NELMIN=  6; NELMDL= -5     # of ELM steps 
   EDIFF  = 0.5E-05   stopping-criterion for ELM
   LREAL  =      T    real-space projection
   NLSPLINE    = F    spline interpolate recip. space projectors
   LCOMPAT=      F    compatible to vasp.4.4
   GGA_COMPAT  = T    GGA compatible to vasp.4.4-vasp.4.6
   LMAXPAW     = -100 max onsite density
   LMAXMIX     =    2 max onsite mixed and CHGCAR
   VOSKOWN=      0    Vosko Wilk Nusair interpolation
   ROPT   =   -0.00050  -0.00050
 Ionic relaxation
   EDIFFG = 0.5E-04   stopping-criterion for IOM
   NSW    =      0    number of steps for IOM
   NBLOCK =      1;   KBLOCK =      1    inner block; outer block 
   IBRION =     -1    ionic relax: 0-MD 1-quasi-New 2-CG
   NFREE  =      0    steps in history (QN), initial steepest desc. (CG)
   ISIF   =      0    stress and relaxation
   IWAVPR =     10    prediction:  0-non 1-charg 2-wave 3-comb
   ISYM   =      2    0-nonsym 1-usesym 2-fastsym
   LCORR  =      T    Harris-Foulkes like correction to forces

   POTIM  = 0.5000    time-step for ionic-motion
   TEIN   =    0.0    initial temperature
   TEBEG  =    0.0;   TEEND  =   0.0 temperature during run
   SMASS  =  -3.00    Nose mass-parameter (am)
   estimated Nose-frequenzy (Omega)   =  0.10E-29 period in steps =****** mass=  -0.675E-26a.u.
   SCALEE = 1.0000    scale energy and forces
   NPACO  =    256;   APACO  = 16.0  distance and # of slots for P.C.
   PSTRESS=    0.0 pullay stress

  Mass of Ions in am
   POMASS =  26.98 14.00
  Ionic Valenz
   ZVAL   =   3.00  5.00
  Atomic Wigner-Seitz radii
   RWIGS  =  -1.00 -1.00
  virtual crystal weights 
   VCA    =   1.00  1.00
   NELECT =     766.0000    total number of electrons
   NUPDOWN=      -1.0000    fix difference up-down

 DOS related values:
   EMIN   =  10.00;   EMAX   =-10.00  energy-range for DOS
   EFERMI =   0.00
   ISMEAR =     0;   SIGMA  =   0.05  broadening in eV -4-tet -1-fermi 0-gaus

 Electronic relaxation 2 (details)
   IALGO  =     38    algorithm
   LDIAG  =      T    sub-space diagonalisation (order eigenvalues)
   LSUBROT=      F    optimize rotation matrix (better conditioning)
   TURBO    =      0    0=normal 1=particle mesh
   IRESTART =      0    0=no restart 2=restart with 2 vectors
   NREBOOT  =      0    no. of reboots
   NMIN     =      0    reboot dimension
   EREF     =   0.00    reference energy to select bands
   IMIX   =      4    mixing-type and parameters
     AMIX     =   0.40;   BMIX     =  1.00
     AMIX_MAG =   1.60;   BMIX_MAG =  1.00
     AMIN     =   0.10
     WC   =   100.;   INIMIX=   1;  MIXPRE=   1;  MAXMIX= -45

 Intra band minimization:
   WEIMIN = 0.0000     energy-eigenvalue tresh-hold
   EBREAK =  0.24E-08  absolut break condition
   DEPER  =   0.30     relativ break condition  

   TIME   =   0.40     timestep for ELM

  volume/ion in A,a.u.               =      30.19       203.75
  Fermi-wavevector in a.u.,A,eV,Ry     =   0.759583  1.435404  7.850108  0.576967
  Thomas-Fermi vector in A             =   1.858410
 
 Write flags
   LWAVE        =      F    write WAVECAR
   LDOWNSAMPLE  =      F    k-point downsampling of WAVECAR
   LCHARG       =      F    write CHGCAR
   LVTOT        =      F    write LOCPOT, total local potential
   LVHAR        =      F    write LOCPOT, Hartree potential only
   LELF         =      F    write electronic localiz. function (ELF)
   LORBIT       =      0    0 simple, 1 ext, 2 COOP (PROOUT), +10 PAW based schemes


 Dipole corrections
   LMONO  =      F    monopole corrections only (constant potential shift)
   LDIPOL =      F    correct potential (dipole corrections)
   IDIPOL =      0    1-x, 2-y, 3-z, 4-all directions 
   EPSILON=  1.0000000 bulk dielectric constant

 Exchange correlation treatment:
   GGA     =    --    GGA type
   LEXCH   =     8    internal setting for exchange type
   VOSKOWN=      0    Vosko Wilk Nusair interpolation
   LHFCALC =     F    Hartree Fock is set to
   LHFONE  =     F    Hartree Fock one center treatment
   AEXX    =    0.0000 exact exchange contribution

 Linear response parameters
   LEPSILON=     F    determine dielectric tensor
   LRPA    =     F    only Hartree local field effects (RPA)
   LNABLA  =     F    use nabla operator in PAW spheres
   LVEL    =     F    velocity operator in full k-point grid
   LINTERFAST=   F  fast interpolation
   KINTER  =     0    interpolate to denser k-point grid
   CSHIFT  =0.1000    complex shift for real part using Kramers Kronig
   OMEGAMAX=  -1.0    maximum frequency
   DEG_THRESHOLD= 0.2000000E-02 threshold for treating states as degnerate
   RTIME   =   -0.100 relaxation time in fs
  (WPLASMAI=    0.000 imaginary part of plasma frequency in eV, 0.658/RTIME)
   DFIELD  = 0.0000000 0.0000000 0.0000000 field for delta impulse in time
 
 Orbital magnetization related:
   ORBITALMAG=     F  switch on orbital magnetization
   LCHIMAG   =     F  perturbation theory with respect to B field
   DQ        =  0.001000  dq finite difference perturbation B field
   LLRAUG    =     F  two centre corrections for induced B field



--------------------------------------------------------------------------------------------------------


 Static calculation
 charge density and potential will be updated during run
 non-spin polarized calculation
 Variant of blocked Davidson
 Davidson routine will perform the subspace rotation
 perform sub-space diagonalisation
    after iterative eigenvector-optimisation
 modified Broyden-mixing scheme, WC =      100.0
 initial mixing is a Kerker type mixing with AMIX =  0.4000 and BMIX =      1.0000
 Hartree-type preconditioning will be used
 using additional bands          133
 real space projection scheme for non local part
 use partial core corrections
 calculate Harris-corrections to forces 
   (improved forces if not selfconsistent)
 use gradient corrections 
 use of overlap-Matrix (Vanderbilt PP)
 Gauss-broadening in eV      SIGMA  =   0.05


--------------------------------------------------------------------------------------------------------


  energy-cutoff  :      300.00
  volume of cell :     7668.80
      direct lattice vectors                 reciprocal lattice vectors
     0.000000000-17.180573462  0.000000000     0.000000000 -0.058205275  0.033604831
     0.000000000 -8.590286731-14.878813070     0.000000000  0.000000000 -0.067209662
    30.000000000  0.000000000  0.000000000     0.033333333  0.000000000  0.000000000

  length of vectors
    17.180573462 17.180573462 30.000000000     0.067209662  0.067209662  0.033333333


 
 k-points in units of 2pi/SCALE and weight: Automatic generation                    
   0.00000000  0.00000000  0.00000000       0.250
   0.00000000 -0.02910264  0.01680242       0.500
   0.00000000  0.00000000 -0.03360483       0.250
 
 k-points in reciprocal lattice and weights: Automatic generation                    
   0.00000000  0.00000000  0.00000000       0.250
   0.50000000  0.00000000  0.00000000       0.500
   0.00000000  0.50000000  0.00000000       0.250
 
 position of ions in fractional coordinates (direct lattice) 
   0.44444456  0.44444473  0.07873467
   0.44444419  0.77777777  0.07873467
   0.44444468  0.11111101  0.07873467
   0.77777744  0.44444473  0.07873467
   0.77777765  0.77777777  0.07873467
   0.77777756  0.11111101  0.07873467
   0.11111110  0.44444473  0.07873467
   0.11111131  0.77777777  0.07873467
   0.11111122  0.11111101  0.07873467
   0.55555520  0.55555574  0.15702600
   0.55555541  0.88888878  0.15702600
   0.55555591  0.22222203  0.15702600
   0.88888866  0.55555574  0.15702600
   0.88888887  0.88888878  0.15702600
   0.88888878  0.22222203  0.15702600
   0.22222232  0.55555574  0.15702600
   0.22222253  0.88888878  0.15702600
   0.22222245  0.22222203  0.15702600
   0.66666642  0.66666675  0.23375733
   0.66666692  0.00000000  0.23375733
   0.66666655  0.33333304  0.23375733
   0.00000008  0.66666675  0.23375733
   0.00000000  0.00000000  0.23375733
   0.00000021  0.33333304  0.23375733
   0.33333354  0.66666675  0.23375733
   0.33333346  0.00000000  0.23375733
   0.33333367  0.33333304  0.23375733
   0.77777765  0.77777777  0.31173067
   0.77777756  0.11111101  0.31173067
   0.77777744  0.44444473  0.31173067
   0.11111131  0.77777777  0.31173067
   0.11111122  0.11111101  0.31173067
   0.11111110  0.44444473  0.31173067
   0.44444419  0.77777777  0.31173067
   0.44444468  0.11111101  0.31173067
   0.44444456  0.44444473  0.31173067
   0.88888887  0.88888878  0.38970400
   0.88888878  0.22222203  0.38970400
   0.88888866  0.55555574  0.38970400
   0.22222253  0.88888878  0.38970400
   0.22222245  0.22222203  0.38970400
   0.22222232  0.55555574  0.38970400
   0.55555541  0.88888878  0.38970400
   0.55555591  0.22222203  0.38970400
   0.55555520  0.55555574  0.38970400
   0.00000000  0.00000000  0.46643533
   0.00000021  0.33333304  0.46643533
   0.00000008  0.66666675  0.46643533
   0.33333346  0.00000000  0.46643533
   0.33333367  0.33333304  0.46643533
   0.33333354  0.66666675  0.46643533
   0.66666692  0.00000000  0.46643533
   0.66666655  0.33333304  0.46643533
   0.66666642  0.66666675  0.46643533
   0.11111122  0.11111101  0.54472667
   0.11111110  0.44444473  0.54472667
   0.11111131  0.77777777  0.54472667
   0.44444468  0.11111101  0.54472667
   0.44444456  0.44444473  0.54472667
   0.44444419  0.77777777  0.54472667
   0.77777756  0.11111101  0.54472667
   0.77777744  0.44444473  0.54472667
   0.77777765  0.77777777  0.54472667
   0.27777777  0.27777753  0.07873467
   0.27777764  0.61111125  0.07873467
   0.27777785  0.94444429  0.07873467
   0.61111123  0.27777753  0.07873467
   0.61111110  0.61111125  0.07873467
   0.61111131  0.94444429  0.07873467
   0.94444469  0.27777753  0.07873467
   0.94444456  0.61111125  0.07873467
   0.94444477  0.94444429  0.07873467
   0.38888865  0.38888922  0.15702600
   0.38888886  0.72222226  0.15702600
   0.38888878  0.05555551  0.15702600
   0.72222211  0.38888922  0.15702600
   0.72222232  0.72222226  0.15702600
   0.72222224  0.05555551  0.15702600
   0.05555519  0.38888922  0.15702600
   0.05555540  0.72222226  0.15702600
   0.05555532  0.05555551  0.15702600
   0.49999988  0.50000023  0.23375733
   0.50000009  0.83333327  0.23375733
   0.50000000  0.16666652  0.23375733
   0.83333334  0.50000023  0.23375733
   0.83333355  0.83333327  0.23375733
   0.83333346  0.16666652  0.23375733
   0.16666642  0.50000023  0.23375733
   0.16666663  0.83333327  0.23375733
   0.16666654  0.16666652  0.23375733
   0.61111110  0.61111125  0.31173067
   0.61111131  0.94444429  0.31173067
   0.61111123  0.27777753  0.31173067
   0.94444456  0.61111125  0.31173067
   0.94444477  0.94444429  0.31173067
   0.94444469  0.27777753  0.31173067
   0.27777764  0.61111125  0.31173067
   0.27777785  0.94444429  0.31173067
   0.27777777  0.27777753  0.31173067
   0.72222232  0.72222226  0.38970400
   0.72222224  0.05555551  0.38970400
   0.72222211  0.38888922  0.38970400
   0.05555540  0.72222226  0.38970400
   0.05555532  0.05555551  0.38970400
   0.05555519  0.38888922  0.38970400
   0.38888886  0.72222226  0.38970400
   0.38888878  0.05555551  0.38970400
   0.38888865  0.38888922  0.38970400
   0.83333355  0.83333327  0.46643533
   0.83333346  0.16666652  0.46643533
   0.83333334  0.50000023  0.46643533
   0.16666663  0.83333327  0.46643533
   0.16666654  0.16666652  0.46643533
   0.16666642  0.50000023  0.46643533
   0.50000009  0.83333327  0.46643533
   0.50000000  0.16666652  0.46643533
   0.49999988  0.50000023  0.46643533
   0.94444477  0.94444429  0.54472667
   0.94444469  0.27777753  0.54472667
   0.94444456  0.61111125  0.54472667
   0.27777785  0.94444429  0.54472667
   0.27777777  0.27777753  0.54472667
   0.27777764  0.61111125  0.54472667
   0.61111131  0.94444429  0.54472667
   0.61111123  0.27777753  0.54472667
   0.61111110  0.61111125  0.54472667
   0.27777783  0.44444473  0.07873467
   0.27777804  0.77777777  0.07873467
   0.27777795  0.11111101  0.07873467
   0.61111071  0.44444473  0.07873467
   0.61111092  0.77777777  0.07873467
   0.61111141  0.11111101  0.07873467
   0.94444417  0.44444473  0.07873467
   0.94444438  0.77777777  0.07873467
   0.94444429  0.11111101  0.07873467
   0.38888905  0.55555574  0.15702600
   0.38888868  0.88888878  0.15702600
   0.38888918  0.22222203  0.15702600
   0.72222193  0.55555574  0.15702600
   0.72222214  0.88888878  0.15702600
   0.72222205  0.22222203  0.15702600
   0.05555559  0.55555574  0.15702600
   0.05555580  0.88888878  0.15702600
   0.05555572  0.22222203  0.15702600
   0.49999969  0.66666675  0.23375733
   0.50000019  0.00000000  0.23375733
   0.50000040  0.33333304  0.23375733
   0.83333315  0.66666675  0.23375733
   0.83333307  0.00000000  0.23375733
   0.83333328  0.33333304  0.23375733
   0.16666681  0.66666675  0.23375733
   0.16666673  0.00000000  0.23375733
   0.16666694  0.33333304  0.23375733
   0.61111092  0.77777777  0.31173067
   0.61111141  0.11111101  0.31173067
   0.61111071  0.44444473  0.31173067
   0.94444438  0.77777777  0.31173067
   0.94444429  0.11111101  0.31173067
   0.94444417  0.44444473  0.31173067
   0.27777804  0.77777777  0.31173067
   0.27777795  0.11111101  0.31173067
   0.27777783  0.44444473  0.31173067
   0.72222214  0.88888878  0.38970400
   0.72222205  0.22222203  0.38970400
   0.72222193  0.55555574  0.38970400
   0.05555580  0.88888878  0.38970400
   0.05555572  0.22222203  0.38970400
   0.05555559  0.55555574  0.38970400
   0.38888868  0.88888878  0.38970400
   0.38888918  0.22222203  0.38970400
   0.38888905  0.55555574  0.38970400
   0.83333307  0.00000000  0.46643533
   0.83333328  0.33333304  0.46643533
   0.83333315  0.66666675  0.46643533
   0.16666673  0.00000000  0.46643533
   0.16666694  0.33333304  0.46643533
   0.16666681  0.66666675  0.46643533
   0.50000019  0.00000000  0.46643533
   0.50000040  0.33333304  0.46643533
   0.49999969  0.66666675  0.46643533
   0.94444429  0.11111101  0.54472667
   0.94444417  0.44444473  0.54472667
   0.94444438  0.77777777  0.54472667
   0.27777795  0.11111101  0.54472667
   0.27777783  0.44444473  0.54472667
   0.27777804  0.77777777  0.54472667
   0.61111141  0.11111101  0.54472667
   0.61111071  0.44444473  0.54472667
   0.61111092  0.77777777  0.54472667
   0.44444450  0.27777753  0.07873467
   0.44444437  0.61111125  0.07873467
   0.44444458  0.94444429  0.07873467
   0.77777796  0.27777753  0.07873467
   0.77777783  0.61111125  0.07873467
   0.77777804  0.94444429  0.07873467
   0.11111104  0.27777753  0.07873467
   0.11111091  0.61111125  0.07873467
   0.11111112  0.94444429  0.07873467
   0.55555538  0.38888922  0.15702600
   0.55555559  0.72222226  0.15702600
   0.55555551  0.05555551  0.15702600
   0.88888884  0.38888922  0.15702600
   0.88888905  0.72222226  0.15702600
   0.88888897  0.05555551  0.15702600
   0.22222192  0.38888922  0.15702600
   0.22222213  0.72222226  0.15702600
   0.22222205  0.05555551  0.15702600
   0.66666661  0.50000023  0.23375733
   0.66666682  0.83333327  0.23375733
   0.66666673  0.16666652  0.23375733
   0.99999969  0.50000023  0.23375733
   0.99999990  0.83333327  0.23375733
   0.99999981  0.16666652  0.23375733
   0.33333315  0.50000023  0.23375733
   0.33333336  0.83333327  0.23375733
   0.33333327  0.16666652  0.23375733
   0.77777783  0.61111125  0.31173067
   0.77777804  0.94444429  0.31173067
   0.77777796  0.27777753  0.31173067
   0.11111091  0.61111125  0.31173067
   0.11111112  0.94444429  0.31173067
   0.11111104  0.27777753  0.31173067
   0.44444437  0.61111125  0.31173067
   0.44444458  0.94444429  0.31173067
   0.44444450  0.27777753  0.31173067
   0.88888905  0.72222226  0.38970400
   0.88888897  0.05555551  0.38970400
   0.88888884  0.38888922  0.38970400
   0.22222213  0.72222226  0.38970400
   0.22222205  0.05555551  0.38970400
   0.22222192  0.38888922  0.38970400
   0.55555559  0.72222226  0.38970400
   0.55555551  0.05555551  0.38970400
   0.55555538  0.38888922  0.38970400
   0.99999990  0.83333327  0.46643533
   0.99999981  0.16666652  0.46643533
   0.99999969  0.50000023  0.46643533
   0.33333336  0.83333327  0.46643533
   0.33333327  0.16666652  0.46643533
   0.33333315  0.50000023  0.46643533
   0.66666682  0.83333327  0.46643533
   0.66666673  0.16666652  0.46643533
   0.66666661  0.50000023  0.46643533
   0.11111112  0.94444429  0.54472667
   0.11111104  0.27777753  0.54472667
   0.11111091  0.61111125  0.54472667
   0.44444458  0.94444429  0.54472667
   0.44444450  0.27777753  0.54472667
   0.44444437  0.61111125  0.54472667
   0.77777804  0.94444429  0.54472667
   0.77777796  0.27777753  0.54472667
   0.77777783  0.61111125  0.54472667
   0.33333315  0.50000023  0.60133333
   0.38888907  0.38888877  0.60133333
 
 position of ions in cartesian coordinates  (Angst):
   2.36204000-11.45372000 -6.61281000
   2.36204000-14.31714000-11.57241000
   2.36204000 -8.59029000 -1.65320000
   2.36204000-17.18057000 -6.61281000
   2.36204000-20.04400000-11.57241000
   2.36204000-14.31714000 -1.65320000
   2.36204000 -5.72686000 -6.61281000
   2.36204000 -8.59029000-11.57241000
   2.36204000 -2.86343000 -1.65320000
   4.71078000-14.31714000 -8.26601000
   4.71078000-17.18057000-13.22561000
   4.71078000-11.45372000 -3.30640000
   4.71078000-20.04400000 -8.26601000
   4.71078000-22.90743000-13.22561000
   4.71078000-17.18057000 -3.30640000
   4.71078000 -8.59029000 -8.26601000
   4.71078000-11.45372000-13.22561000
   4.71078000 -5.72686000 -3.30640000
   7.01272000-17.18057000 -9.91921000
   7.01272000-11.45372000  0.00000000
   7.01272000-14.31714000 -4.95960000
   7.01272000 -5.72686000 -9.91921000
   7.01272000  0.00000000  0.00000000
   7.01272000 -2.86343000 -4.95960000
   7.01272000-11.45372000 -9.91921000
   7.01272000 -5.72686000  0.00000000
   7.01272000 -8.59029000 -4.95960000
   9.35192000-20.04400000-11.57241000
   9.35192000-14.31714000 -1.65320000
   9.35192000-17.18057000 -6.61281000
   9.35192000 -8.59029000-11.57241000
   9.35192000 -2.86343000 -1.65320000
   9.35192000 -5.72686000 -6.61281000
   9.35192000-14.31714000-11.57241000
   9.35192000 -8.59029000 -1.65320000
   9.35192000-11.45372000 -6.61281000
  11.69112000-22.90743000-13.22561000
  11.69112000-17.18057000 -3.30640000
  11.69112000-20.04400000 -8.26601000
  11.69112000-11.45372000-13.22561000
  11.69112000 -5.72686000 -3.30640000
  11.69112000 -8.59029000 -8.26601000
  11.69112000-17.18057000-13.22561000
  11.69112000-11.45372000 -3.30640000
  11.69112000-14.31714000 -8.26601000
  13.99306000  0.00000000  0.00000000
  13.99306000 -2.86343000 -4.95960000
  13.99306000 -5.72686000 -9.91921000
  13.99306000 -5.72686000  0.00000000
  13.99306000 -8.59029000 -4.95960000
  13.99306000-11.45372000 -9.91921000
  13.99306000-11.45372000  0.00000000
  13.99306000-14.31714000 -4.95960000
  13.99306000-17.18057000 -9.91921000
  16.34180000 -2.86343000 -1.65320000
  16.34180000 -5.72686000 -6.61281000
  16.34180000 -8.59029000-11.57241000
  16.34180000 -8.59029000 -1.65320000
  16.34180000-11.45372000 -6.61281000
  16.34180000-14.31714000-11.57241000
  16.34180000-14.31714000 -1.65320000
  16.34180000-17.18057000 -6.61281000
  16.34180000-20.04400000-11.57241000
   2.36204000 -7.15857000 -4.13300000
   2.36204000-10.02200000 -9.09261000
   2.36204000-12.88543000-14.05221000
   2.36204000-12.88543000 -4.13300000
   2.36204000-15.74886000 -9.09261000
   2.36204000-18.61229000-14.05221000
   2.36204000-18.61229000 -4.13300000
   2.36204000-21.47572000 -9.09261000
   2.36204000-24.33915000-14.05221000
   4.71078000-10.02200000 -5.78621000
   4.71078000-12.88543000-10.74581000
   4.71078000 -7.15857000 -0.82660000
   4.71078000-15.74886000 -5.78621000
   4.71078000-18.61229000-10.74581000
   4.71078000-12.88543000 -0.82660000
   4.71078000 -4.29514000 -5.78621000
   4.71078000 -7.15857000-10.74581000
   4.71078000 -1.43171000 -0.82660000
   7.01272000-12.88543000 -7.43941000
   7.01272000-15.74886000-12.39901000
   7.01272000-10.02200000 -2.47980000
   7.01272000-18.61229000 -7.43941000
   7.01272000-21.47572000-12.39901000
   7.01272000-15.74886000 -2.47980000
   7.01272000 -7.15857000 -7.43941000
   7.01272000-10.02200000-12.39901000
   7.01272000 -4.29514000 -2.47980000
   9.35192000-15.74886000 -9.09261000
   9.35192000-18.61229000-14.05221000
   9.35192000-12.88543000 -4.13300000
   9.35192000-21.47572000 -9.09261000
   9.35192000-24.33915000-14.05221000
   9.35192000-18.61229000 -4.13300000
   9.35192000-10.02200000 -9.09261000
   9.35192000-12.88543000-14.05221000
   9.35192000 -7.15857000 -4.13300000
  11.69112000-18.61229000-10.74581000
  11.69112000-12.88543000 -0.82660000
  11.69112000-15.74886000 -5.78621000
  11.69112000 -7.15857000-10.74581000
  11.69112000 -1.43171000 -0.82660000
  11.69112000 -4.29514000 -5.78621000
  11.69112000-12.88543000-10.74581000
  11.69112000 -7.15857000 -0.82660000
  11.69112000-10.02200000 -5.78621000
  13.99306000-21.47572000-12.39901000
  13.99306000-15.74886000 -2.47980000
  13.99306000-18.61229000 -7.43941000
  13.99306000-10.02200000-12.39901000
  13.99306000 -4.29514000 -2.47980000
  13.99306000 -7.15857000 -7.43941000
  13.99306000-15.74886000-12.39901000
  13.99306000-10.02200000 -2.47980000
  13.99306000-12.88543000 -7.43941000
  16.34180000-24.33915000-14.05221000
  16.34180000-18.61229000 -4.13300000
  16.34180000-21.47572000 -9.09261000
  16.34180000-12.88543000-14.05221000
  16.34180000 -7.15857000 -4.13300000
  16.34180000-10.02200000 -9.09261000
  16.34180000-18.61229000-14.05221000
  16.34180000-12.88543000 -4.13300000
  16.34180000-15.74886000 -9.09261000
   2.36204000 -8.59029000 -6.61281000
   2.36204000-11.45372000-11.57241000
   2.36204000 -5.72686000 -1.65320000
   2.36204000-14.31714000 -6.61281000
   2.36204000-17.18057000-11.57241000
   2.36204000-11.45372000 -1.65320000
   2.36204000-20.04400000 -6.61281000
   2.36204000-22.90743000-11.57241000
   2.36204000-17.18057000 -1.65320000
   4.71078000-11.45372000 -8.26601000
   4.71078000-14.31714000-13.22561000
   4.71078000 -8.59029000 -3.30640000
   4.71078000-17.18057000 -8.26601000
   4.71078000-20.04400000-13.22561000
   4.71078000-14.31714000 -3.30640000
   4.71078000 -5.72686000 -8.26601000
   4.71078000 -8.59029000-13.22561000
   4.71078000 -2.86343000 -3.30640000
   7.01272000-14.31714000 -9.91921000
   7.01272000 -8.59029000  0.00000000
   7.01272000-11.45372000 -4.95960000
   7.01272000-20.04400000 -9.91921000
   7.01272000-14.31714000  0.00000000
   7.01272000-17.18057000 -4.95960000
   7.01272000 -8.59029000 -9.91921000
   7.01272000 -2.86343000  0.00000000
   7.01272000 -5.72686000 -4.95960000
   9.35192000-17.18057000-11.57241000
   9.35192000-11.45372000 -1.65320000
   9.35192000-14.31714000 -6.61281000
   9.35192000-22.90743000-11.57241000
   9.35192000-17.18057000 -1.65320000
   9.35192000-20.04400000 -6.61281000
   9.35192000-11.45372000-11.57241000
   9.35192000 -5.72686000 -1.65320000
   9.35192000 -8.59029000 -6.61281000
  11.69112000-20.04400000-13.22561000
  11.69112000-14.31714000 -3.30640000
  11.69112000-17.18057000 -8.26601000
  11.69112000 -8.59029000-13.22561000
  11.69112000 -2.86343000 -3.30640000
  11.69112000 -5.72686000 -8.26601000
  11.69112000-14.31714000-13.22561000
  11.69112000 -8.59029000 -3.30640000
  11.69112000-11.45372000 -8.26601000
  13.99306000-14.31714000  0.00000000
  13.99306000-17.18057000 -4.95960000
  13.99306000-20.04400000 -9.91921000
  13.99306000 -2.86343000  0.00000000
  13.99306000 -5.72686000 -4.95960000
  13.99306000 -8.59029000 -9.91921000
  13.99306000 -8.59029000  0.00000000
  13.99306000-11.45372000 -4.95960000
  13.99306000-14.31714000 -9.91921000
  16.34180000-17.18057000 -1.65320000
  16.34180000-20.04400000 -6.61281000
  16.34180000-22.90743000-11.57241000
  16.34180000 -5.72686000 -1.65320000
  16.34180000 -8.59029000 -6.61281000
  16.34180000-11.45372000-11.57241000
  16.34180000-11.45372000 -1.65320000
  16.34180000-14.31714000 -6.61281000
  16.34180000-17.18057000-11.57241000
   2.36204000-10.02200000 -4.13300000
   2.36204000-12.88543000 -9.09261000
   2.36204000-15.74886000-14.05221000
   2.36204000-15.74886000 -4.13300000
   2.36204000-18.61229000 -9.09261000
   2.36204000-21.47572000-14.05221000
   2.36204000 -4.29514000 -4.13300000
   2.36204000 -7.15857000 -9.09261000
   2.36204000-10.02200000-14.05221000
   4.71078000-12.88543000 -5.78621000
   4.71078000-15.74886000-10.74581000
   4.71078000-10.02200000 -0.82660000
   4.71078000-18.61229000 -5.78621000
   4.71078000-21.47572000-10.74581000
   4.71078000-15.74886000 -0.82660000
   4.71078000 -7.15857000 -5.78621000
   4.71078000-10.02200000-10.74581000
   4.71078000 -4.29514000 -0.82660000
   7.01272000-15.74886000 -7.43941000
   7.01272000-18.61229000-12.39901000
   7.01272000-12.88543000 -2.47980000
   7.01272000-21.47571346 -7.43941000
   7.01272000-24.33914346-12.39901000
   7.01272000-18.61228346 -2.47980000
   7.01272000-10.02200000 -7.43941000
   7.01272000-12.88543000-12.39901000
   7.01272000 -7.15857000 -2.47980000
   9.35192000-18.61229000 -9.09261000
   9.35192000-21.47572000-14.05221000
   9.35192000-15.74886000 -4.13300000
   9.35192000 -7.15857000 -9.09261000
   9.35192000-10.02200000-14.05221000
   9.35192000 -4.29514000 -4.13300000
   9.35192000-12.88543000 -9.09261000
   9.35192000-15.74886000-14.05221000
   9.35192000-10.02200000 -4.13300000
  11.69112000-21.47572000-10.74581000
  11.69112000-15.74886000 -0.82660000
  11.69112000-18.61229000 -5.78621000
  11.69112000-10.02200000-10.74581000
  11.69112000 -4.29514000 -0.82660000
  11.69112000 -7.15857000 -5.78621000
  11.69112000-15.74886000-10.74581000
  11.69112000-10.02200000 -0.82660000
  11.69112000-12.88543000 -5.78621000
  13.99306000-24.33914346-12.39901000
  13.99306000-18.61228346 -2.47980000
  13.99306000-21.47571346 -7.43941000
  13.99306000-12.88543000-12.39901000
  13.99306000 -7.15857000 -2.47980000
  13.99306000-10.02200000 -7.43941000
  13.99306000-18.61229000-12.39901000
  13.99306000-12.88543000 -2.47980000
  13.99306000-15.74886000 -7.43941000
  16.34180000-10.02200000-14.05221000
  16.34180000 -4.29514000 -4.13300000
  16.34180000 -7.15857000 -9.09261000
  16.34180000-15.74886000-14.05221000
  16.34180000-10.02200000 -4.13300000
  16.34180000-12.88543000 -9.09261000
  16.34180000-21.47572000-14.05221000
  16.34180000-15.74886000 -4.13300000
  16.34180000-18.61229000 -9.09261000
  18.04000000-10.02200000 -7.43941000
  18.04000000-10.02200333 -5.78620333
 


--------------------------------------------------------------------------------------------------------


 k-point  1 :   0.0000 0.0000 0.0000  plane waves:   90499
 k-point  2 :   0.5000 0.0000 0.0000  plane waves:   90530
 k-point  3 :   0.0000 0.5000 0.0000  plane waves:   90530

 maximum and minimum number of plane-waves per node :     90530    90499

 maximum number of plane-waves:     90530
 maximum index in each direction: 
   IXMAX=   24   IYMAX=   24   IZMAX=   42
   IXMIN=  -24   IYMIN=  -24   IZMIN=  -42


 serial   3D FFT for wavefunctions
 parallel 3D FFT for charge:
    minimum data exchange during FFTs selected (reduces bandwidth)


 total amount of memory used by VASP MPI-rank0   652164. kBytes
=======================================================================

   base      :      30000. kBytes
   nonlr-proj:      89943. kBytes
   fftplans  :      40601. kBytes
   grid      :      95147. kBytes
   one-center:       3950. kBytes
   wavefun   :     392523. kBytes
 
     INWAV:  cpu time    0.0000: real time    0.0001
 Broyden mixing: mesh for mixing (old mesh)
   NGX = 49   NGY = 49   NGZ = 85
  (NGX  =160   NGY  =160   NGZ  =256)
  gives a total of 204085 points

 initial charge density was supplied:
 charge density of overlapping atoms calculated
 number of electron     766.0000000 magnetization 
 keeping initial charge density in first step


--------------------------------------------------------------------------------------------------------


 Maximum index for non-local projection operator         4280
 Maximum index for augmentation-charges          758 (set IRDMAX)


--------------------------------------------------------------------------------------------------------


 First call to EWALD:  gamma=   0.090
 Maximum number of real-space cells 3x 3x 2
 Maximum number of reciprocal cells 2x 2x 4

    FEWALD:  cpu time    0.0382: real time    0.0382


----------------------------------------- Iteration    1(   1)  ---------------------------------------


    POTLOK:  cpu time    0.9019: real time    0.9637
    SETDIJ:  cpu time    0.1072: real time    0.1101
     EDDAV:  cpu time   19.0152: real time   22.4448
       DOS:  cpu time    0.0015: real time    0.0071
    --------------------------------------------
      LOOP:  cpu time   20.0286: real time   23.5484

 eigenvalue-minimisations  :  3132
 total energy-change (2. order) : 0.2131191E+04  (-0.1841059E+05)
 number of electron     766.0000000 magnetization 
 augmentation part      766.0000000 magnetization 

 Free energy of the ion-electron system (eV)
  ---------------------------------------------------
  alpha Z        PSCENC =       505.22967617
  Ewald energy   TEWEN  =     88516.74932613
  -Hartree energ DENC   =   -102590.20977854
  -exchange      EXHF   =         0.00000000
  -V(xc)+E(xc)   XCENC  =     -6605.73695289
  PAW double counting   =     17092.30507181    -9042.14386232
  entropy T*S    EENTRO =        -0.06339336
  eigenvalues    EBANDS =       235.85849557
  atomic energy  EATOM  =     14019.20197576
  Solvation  Ediel_sol  =         0.00000000
  ---------------------------------------------------
  free energy    TOTEN  =      2131.19055832 eV

  energy without entropy =     2131.25395168  energy(sigma->0) =     2131.22225500


--------------------------------------------------------------------------------------------------------




----------------------------------------- Iteration    1(   2)  ---------------------------------------


     EDDAV:  cpu time   23.5369: real time   27.6701
       DOS:  cpu time    0.0135: real time    0.0135
    --------------------------------------------
      LOOP:  cpu time   23.5521: real time   27.6925

 eigenvalue-minimisations  :  4200
 total energy-change (2. order) :-0.2871711E+04  (-0.2707269E+04)
 number of electron     766.0000000 magnetization 
 augmentation part      766.0000000 magnetization 

 Free energy of the ion-electron system (eV)
  ---------------------------------------------------
  alpha Z        PSCENC =       505.22967617
  Ewald energy   TEWEN  =     88516.74932613
  -Hartree energ DENC   =   -102590.20977854
  -exchange      EXHF   =         0.00000000
  -V(xc)+E(xc)   XCENC  =     -6605.73695289
  PAW double counting   =     17092.30507181    -9042.14386232
  entropy T*S    EENTRO =        -0.11454205
  eigenvalues    EBANDS =     -2635.80173833
  atomic energy  EATOM  =     14019.20197576
  Solvation  Ediel_sol  =         0.00000000
  ---------------------------------------------------
  free energy    TOTEN  =      -740.52082426 eV

  energy without entropy =     -740.40628221  energy(sigma->0) =     -740.46355324


--------------------------------------------------------------------------------------------------------




----------------------------------------- Iteration    1(   3)  ---------------------------------------


     EDDAV:  cpu time   25.6716: real time   30.1038
       DOS:  cpu time    0.0014: real time    0.0014
    --------------------------------------------
      LOOP:  cpu time   25.6744: real time   30.1080

 eigenvalue-minimisations  :  4680
 total energy-change (2. order) :-0.2099432E+03  (-0.2009203E+03)
 number of electron     766.0000000 magnetization 
 augmentation part      766.0000000 magnetization 

 Free energy of the ion-electron system (eV)
  ---------------------------------------------------
  alpha Z        PSCENC =       505.22967617
  Ewald energy   TEWEN  =     88516.74932613
  -Hartree energ DENC   =   -102590.20977854
  -exchange      EXHF   =         0.00000000
  -V(xc)+E(xc)   XCENC  =     -6605.73695289
  PAW double counting   =     17092.30507181    -9042.14386232
  entropy T*S    EENTRO =        -0.20876535
  eigenvalues    EBANDS =     -2845.65069870
  atomic energy  EATOM  =     14019.20197576
  Solvation  Ediel_sol  =         0.00000000
  ---------------------------------------------------
  free energy    TOTEN  =      -950.46400793 eV

  energy without entropy =     -950.25524258  energy(sigma->0) =     -950.35962526


--------------------------------------------------------------------------------------------------------




----------------------------------------- Iteration    1(   4)  ---------------------------------------


     EDDAV:  cpu time   26.3691: real time   30.9536
       DOS:  cpu time    0.0055: real time    0.0056
    --------------------------------------------
      LOOP:  cpu time   26.3761: real time   30.9623

 eigenvalue-minimisations  :  4800
 total energy-change (2. order) :-0.9390956E+01  (-0.8739230E+01)
 number of electron     766.0000000 magnetization 
 augmentation part      766.0000000 magnetization 

 Free energy of the ion-electron system (eV)
  ---------------------------------------------------
  alpha Z        PSCENC =       505.22967617
  Ewald energy   TEWEN  =     88516.74932613
  -Hartree energ DENC   =   -102590.20977854
  -exchange      EXHF   =         0.00000000
  -V(xc)+E(xc)   XCENC  =     -6605.73695289
  PAW double counting   =     17092.30507181    -9042.14386232
  entropy T*S    EENTRO =        -0.21267607
  eigenvalues    EBANDS =     -2855.03774365
  atomic energy  EATOM  =     14019.20197576
  Solvation  Ediel_sol  =         0.00000000
  ---------------------------------------------------
  free energy    TOTEN  =      -959.85496360 eV

  energy without entropy =     -959.64228753  energy(sigma->0) =     -959.74862556


--------------------------------------------------------------------------------------------------------




----------------------------------------- Iteration    1(   5)  ---------------------------------------


     EDDAV:  cpu time   25.9111: real time   30.4056
       DOS:  cpu time    0.0088: real time    0.0088
    CHARGE:  cpu time    1.9634: real time    2.0410
    MIXING:  cpu time    0.0280: real time    0.0281
    --------------------------------------------
      LOOP:  cpu time   27.9130: real time   32.4868

 eigenvalue-minimisations  :  4692
 total energy-change (2. order) :-0.4123550E+00  (-0.4082786E+00)
 number of electron     766.0000026 magnetization 
 augmentation part       -9.8459823 magnetization 

 Broyden mixing:
  rms(total) = 0.19070E+01    rms(broyden)= 0.19054E+01
  rms(prec ) = 0.26025E+01
  weight for this iteration     100.00

 Free energy of the ion-electron system (eV)
  ---------------------------------------------------
  alpha Z        PSCENC =       505.22967617
  Ewald energy   TEWEN  =     88516.74932613
  -Hartree energ DENC   =   -102590.20977854
  -exchange      EXHF   =         0.00000000
  -V(xc)+E(xc)   XCENC  =     -6605.73695289
  PAW double counting   =     17092.30507181    -9042.14386232
  entropy T*S    EENTRO =        -0.21213333
  eigenvalues    EBANDS =     -2855.45064139
  atomic energy  EATOM  =     14019.20197576
  Solvation  Ediel_sol  =         0.00000000
  ---------------------------------------------------
  free energy    TOTEN  =      -960.26731861 eV

  energy without entropy =     -960.05518528  energy(sigma->0) =     -960.16125194


--------------------------------------------------------------------------------------------------------




----------------------------------------- Iteration    1(   6)  ---------------------------------------


    POTLOK:  cpu time    0.8608: real time    0.8618
    SETDIJ:  cpu time    0.1088: real time    0.1090
     EDDAV:  cpu time   23.3764: real time   27.3858
       DOS:  cpu time    0.0043: real time    0.0043
    CHARGE:  cpu time    1.9057: real time    1.9536
    MIXING:  cpu time    0.0296: real time    0.0331
    --------------------------------------------
      LOOP:  cpu time   26.2876: real time   30.3505

 eigenvalue-minimisations  :  4104
 total energy-change (2. order) :-0.1006170E+02  (-0.1753264E+02)
 number of electron     766.0000008 magnetization 
 augmentation part      -10.0427891 magnetization 

 Broyden mixing:
  rms(total) = 0.18089E+01    rms(broyden)= 0.18080E+01
  rms(prec ) = 0.39147E+01
  weight for this iteration     100.00

 eigenvalues of (default mixing * dielectric matrix)
  average eigenvalue GAMMA=   0.7089
  0.7089

 Free energy of the ion-electron system (eV)
  ---------------------------------------------------
  alpha Z        PSCENC =       505.22967617
  Ewald energy   TEWEN  =     88516.74932613
  -Hartree energ DENC   =   -103479.33067666
  -exchange      EXHF   =         0.00000000
  -V(xc)+E(xc)   XCENC  =     -6594.71548797
  PAW double counting   =     18995.86732117   -10947.08758053
  entropy T*S    EENTRO =        -0.15279021
  eigenvalues    EBANDS =     -1986.09078145
  atomic energy  EATOM  =     14019.20197576
  Solvation  Ediel_sol  =         0.00000000
  ---------------------------------------------------
  free energy    TOTEN  =      -970.32901760 eV

  energy without entropy =     -970.17622738  energy(sigma->0) =     -970.25262249


--------------------------------------------------------------------------------------------------------




----------------------------------------- Iteration    1(   7)  ---------------------------------------


    POTLOK:  cpu time    0.8734: real time    0.8746
    SETDIJ:  cpu time    0.1126: real time    0.1128
     EDDAV:  cpu time   22.6888: real time   26.5993
       DOS:  cpu time    0.0013: real time    0.0013
    CHARGE:  cpu time    1.9166: real time    1.9621
    MIXING:  cpu time    0.0308: real time    0.0309
    --------------------------------------------
      LOOP:  cpu time   25.6254: real time   29.5841

 eigenvalue-minimisations  :  3924
 total energy-change (2. order) : 0.3231707E+02  (-0.1183689E+02)
 number of electron     766.0000000 magnetization 
 augmentation part      -10.1484190 magnetization 

 Broyden mixing:
  rms(total) = 0.11246E+01    rms(broyden)= 0.11244E+01
  rms(prec ) = 0.18272E+01
  weight for this iteration     100.00

 eigenvalues of (default mixing * dielectric matrix)
  average eigenvalue GAMMA=   0.6667
  1.0079  0.3255

 Free energy of the ion-electron system (eV)
  ---------------------------------------------------
  alpha Z        PSCENC =       505.22967617
  Ewald energy   TEWEN  =     88516.74932613
  -Hartree energ DENC   =   -102977.61760815
  -exchange      EXHF   =         0.00000000
  -V(xc)+E(xc)   XCENC  =     -6592.81732790
  PAW double counting   =     19375.10693347   -11326.41802841
  entropy T*S    EENTRO =        -0.07944678
  eigenvalues    EBANDS =     -2457.36744408
  atomic energy  EATOM  =     14019.20197576
  Solvation  Ediel_sol  =         0.00000000
  ---------------------------------------------------
  free energy    TOTEN  =      -938.01194380 eV

  energy without entropy =     -937.93249701  energy(sigma->0) =     -937.97222041


--------------------------------------------------------------------------------------------------------




----------------------------------------- Iteration    1(   8)  ---------------------------------------


    POTLOK:  cpu time    0.8774: real time    0.8784
    SETDIJ:  cpu time    0.1093: real time    0.1093
     EDDAV:  cpu time   25.5626: real time   29.8043
       DOS:  cpu time    0.0113: real time    0.0113
    CHARGE:  cpu time    1.9550: real time    2.0021
    MIXING:  cpu time    0.0336: real time    0.0340
    --------------------------------------------
      LOOP:  cpu time   28.5510: real time   32.8425

 eigenvalue-minimisations  :  4548
 total energy-change (2. order) :-0.7249381E+01  (-0.3695564E+01)
 number of electron     766.0000021 magnetization 
 augmentation part      -10.0259577 magnetization 

 Broyden mixing:
  rms(total) = 0.99646E+00    rms(broyden)= 0.99553E+00
  rms(prec ) = 0.27630E+01
  weight for this iteration     100.00

 eigenvalues of (default mixing * dielectric matrix)
  average eigenvalue GAMMA=   0.8965
  1.9862  0.4623  0.2411

 Free energy of the ion-electron system (eV)
  ---------------------------------------------------
  alpha Z        PSCENC =       505.22967617
  Ewald energy   TEWEN  =     88516.74932613
  -Hartree energ DENC   =   -103060.81929162
  -exchange      EXHF   =         0.00000000
  -V(xc)+E(xc)   XCENC  =     -6589.60415875
  PAW double counting   =     19970.63881098   -11922.22541643
  entropy T*S    EENTRO =        -0.10663519
  eigenvalues    EBANDS =     -2384.32561150
  atomic energy  EATOM  =     14019.20197576
  Solvation  Ediel_sol  =         0.00000000
  ---------------------------------------------------
  free energy    TOTEN  =      -945.26132445 eV

  energy without entropy =     -945.15468926  energy(sigma->0) =     -945.20800685


--------------------------------------------------------------------------------------------------------




----------------------------------------- Iteration    1(   9)  ---------------------------------------


    POTLOK:  cpu time    0.8770: real time    0.8776
    SETDIJ:  cpu time    0.1109: real time    0.1113
     EDDAV:  cpu time   24.0982: real time   28.2672
       DOS:  cpu time    0.0024: real time    0.0024
    CHARGE:  cpu time    1.9498: real time    1.9967
    MIXING:  cpu time    0.0317: real time    0.0317
    --------------------------------------------
      LOOP:  cpu time   27.0718: real time   31.2899

 eigenvalue-minimisations  :  4260
 total energy-change (2. order) : 0.8139601E+01  (-0.9670960E+00)
 number of electron     766.0000026 magnetization 
 augmentation part       -9.9800633 magnetization 

 Broyden mixing:
  rms(total) = 0.84900E+00    rms(broyden)= 0.84798E+00
  rms(prec ) = 0.15055E+01
  weight for this iteration     100.00

 eigenvalues of (default mixing * dielectric matrix)
  average eigenvalue GAMMA=   0.8347
  2.4584  0.4683  0.2718  0.1405

 Free energy of the ion-electron system (eV)
  ---------------------------------------------------
  alpha Z        PSCENC =       505.22967617
  Ewald energy   TEWEN  =     88516.74932613
  -Hartree energ DENC   =   -103183.94116710
  -exchange      EXHF   =         0.00000000
  -V(xc)+E(xc)   XCENC  =     -6585.23789859
  PAW double counting   =     20695.92679307   -12647.91648288
  entropy T*S    EENTRO =        -0.09722713
  eigenvalues    EBANDS =     -2257.03671892
  atomic energy  EATOM  =     14019.20197576
  Solvation  Ediel_sol  =         0.00000000
  ---------------------------------------------------
  free energy    TOTEN  =      -937.12172350 eV

  energy without entropy =     -937.02449636  energy(sigma->0) =     -937.07310993


--------------------------------------------------------------------------------------------------------




----------------------------------------- Iteration    1(  10)  ---------------------------------------


    POTLOK:  cpu time    0.8874: real time    0.8884
    SETDIJ:  cpu time    0.1099: real time    0.1100
     EDDAV:  cpu time   23.2308: real time   27.3980
       DOS:  cpu time    0.0023: real time    0.0023
    CHARGE:  cpu time    1.9494: real time    1.9978
    MIXING:  cpu time    0.0356: real time    0.0356
    --------------------------------------------
      LOOP:  cpu time   26.2175: real time   30.4353

 eigenvalue-minimisations  :  4080
 total energy-change (2. order) : 0.4424740E+01  (-0.7418185E+00)
 number of electron     766.0000014 magnetization 
 augmentation part      -10.1854545 magnetization 

 Broyden mixing:
  rms(total) = 0.16205E+00    rms(broyden)= 0.15860E+00
  rms(prec ) = 0.24577E+00
  weight for this iteration     100.00

 eigenvalues of (default mixing * dielectric matrix)
  average eigenvalue GAMMA=   0.8506
  2.4961  0.8646  0.4570  0.2941  0.1412

 Free energy of the ion-electron system (eV)
  ---------------------------------------------------
  alpha Z        PSCENC =       505.22967617
  Ewald energy   TEWEN  =     88516.74932613
  -Hartree energ DENC   =   -103289.61936926
  -exchange      EXHF   =         0.00000000
  -V(xc)+E(xc)   XCENC  =     -6577.37575334
  PAW double counting   =     21805.27838227   -13758.06363182
  entropy T*S    EENTRO =        -0.07481692
  eigenvalues    EBANDS =     -2154.02277281
  atomic energy  EATOM  =     14019.20197576
  Solvation  Ediel_sol  =         0.00000000
  ---------------------------------------------------
  free energy    TOTEN  =      -932.69698382 eV

  energy without entropy =     -932.62216690  energy(sigma->0) =     -932.65957536


--------------------------------------------------------------------------------------------------------




----------------------------------------- Iteration    1(  11)  ---------------------------------------


    POTLOK:  cpu time    0.8854: real time    0.8881
    SETDIJ:  cpu time    0.1121: real time    0.1121
     EDDAV:  cpu time   22.8546: real time   26.8116
       DOS:  cpu time    0.0017: real time    0.0017
    CHARGE:  cpu time    1.9500: real time    1.9977
    MIXING:  cpu time    0.0360: real time    0.0360
    --------------------------------------------
      LOOP:  cpu time   25.8418: real time   29.8506

 eigenvalue-minimisations  :  3972
 total energy-change (2. order) : 0.3443560E-01  (-0.2876729E+00)
 number of electron     766.0000014 magnetization 
 augmentation part      -10.2416558 magnetization 

 Broyden mixing:
  rms(total) = 0.10744E+00    rms(broyden)= 0.10725E+00
  rms(prec ) = 0.14779E+00
  weight for this iteration     100.00

 eigenvalues of (default mixing * dielectric matrix)
  average eigenvalue GAMMA=   0.8598
  2.3830  1.2611  0.6074  0.4778  0.2883  0.1412

 Free energy of the ion-electron system (eV)
  ---------------------------------------------------
  alpha Z        PSCENC =       505.22967617
  Ewald energy   TEWEN  =     88516.74932613
  -Hartree energ DENC   =   -103352.99519068
  -exchange      EXHF   =         0.00000000
  -V(xc)+E(xc)   XCENC  =     -6575.42976595
  PAW double counting   =     22023.62615430   -13976.73721815
  entropy T*S    EENTRO =        -0.08261893
  eigenvalues    EBANDS =     -2092.22488687
  atomic energy  EATOM  =     14019.20197576
  Solvation  Ediel_sol  =         0.00000000
  ---------------------------------------------------
  free energy    TOTEN  =      -932.66254821 eV

  energy without entropy =     -932.57992928  energy(sigma->0) =     -932.62123875


--------------------------------------------------------------------------------------------------------




----------------------------------------- Iteration    1(  12)  ---------------------------------------


    POTLOK:  cpu time    0.8897: real time    0.8912
    SETDIJ:  cpu time    0.1127: real time    0.1127
     EDDAV:  cpu time   22.9166: real time   26.9176
       DOS:  cpu time    0.0024: real time    0.0024
    CHARGE:  cpu time    1.9518: real time    1.9996
    MIXING:  cpu time    0.0376: real time    0.0415
    --------------------------------------------
      LOOP:  cpu time   25.9127: real time   29.9682

 eigenvalue-minimisations  :  3996
 total energy-change (2. order) : 0.3595448E-01  (-0.3501883E-01)
 number of electron     766.0000013 magnetization 
 augmentation part      -10.2588920 magnetization 

 Broyden mixing:
  rms(total) = 0.73551E-01    rms(broyden)= 0.73332E-01
  rms(prec ) = 0.98244E-01
  weight for this iteration     100.00

 eigenvalues of (default mixing * dielectric matrix)
  average eigenvalue GAMMA=   0.9843
  2.3117  2.3117  0.6997  0.6997  0.1412  0.2898  0.4366

 Free energy of the ion-electron system (eV)
  ---------------------------------------------------
  alpha Z        PSCENC =       505.22967617
  Ewald energy   TEWEN  =     88516.74932613
  -Hartree energ DENC   =   -103377.25797604
  -exchange      EXHF   =         0.00000000
  -V(xc)+E(xc)   XCENC  =     -6575.15964851
  PAW double counting   =     22018.95016150   -13972.25509532
  entropy T*S    EENTRO =        -0.07761524
  eigenvalues    EBANDS =     -2068.00739818
  atomic energy  EATOM  =     14019.20197576
  Solvation  Ediel_sol  =         0.00000000
  ---------------------------------------------------
  free energy    TOTEN  =      -932.62659373 eV

  energy without entropy =     -932.54897849  energy(sigma->0) =     -932.58778611


--------------------------------------------------------------------------------------------------------




----------------------------------------- Iteration    1(  13)  ---------------------------------------


    POTLOK:  cpu time    0.8895: real time    0.8920
    SETDIJ:  cpu time    0.1095: real time    0.1096
     EDDAV:  cpu time   22.0436: real time   25.9118
       DOS:  cpu time    0.0013: real time    0.0013
    CHARGE:  cpu time    1.9343: real time    1.9822
    MIXING:  cpu time    0.0400: real time    0.0401
    --------------------------------------------
      LOOP:  cpu time   25.0202: real time   28.9402

 eigenvalue-minimisations  :  3792
 total energy-change (2. order) : 0.3489477E-01  (-0.1285955E-01)
 number of electron     766.0000013 magnetization 
 augmentation part      -10.2521954 magnetization 

 Broyden mixing:
  rms(total) = 0.41821E-01    rms(broyden)= 0.41819E-01
  rms(prec ) = 0.65093E-01
  weight for this iteration     100.00

 eigenvalues of (default mixing * dielectric matrix)
  average eigenvalue GAMMA=   1.0030
  2.4637  2.4637  0.8548  0.8548  0.1412  0.2893  0.5233  0.4332

 Free energy of the ion-electron system (eV)
  ---------------------------------------------------
  alpha Z        PSCENC =       505.22967617
  Ewald energy   TEWEN  =     88516.74932613
  -Hartree energ DENC   =   -103426.95381952
  -exchange      EXHF   =         0.00000000
  -V(xc)+E(xc)   XCENC  =     -6574.58503184
  PAW double counting   =     22021.87728679   -13975.54901292
  entropy T*S    EENTRO =        -0.08090421
  eigenvalues    EBANDS =     -2018.48119532
  atomic energy  EATOM  =     14019.20197576
  Solvation  Ediel_sol  =         0.00000000
  ---------------------------------------------------
  free energy    TOTEN  =      -932.59169896 eV

  energy without entropy =     -932.51079474  energy(sigma->0) =     -932.55124685


--------------------------------------------------------------------------------------------------------




----------------------------------------- Iteration    1(  14)  ---------------------------------------


    POTLOK:  cpu time    0.8912: real time    0.8926
    SETDIJ:  cpu time    0.1109: real time    0.1111
     EDDAV:  cpu time   21.9243: real time   25.7095
       DOS:  cpu time    0.0016: real time    0.0017
    CHARGE:  cpu time    1.9552: real time    2.0042
    MIXING:  cpu time    0.0427: real time    0.0429
    --------------------------------------------
      LOOP:  cpu time   24.9278: real time   28.7649

 eigenvalue-minimisations  :  3744
 total energy-change (2. order) : 0.2063707E-01  (-0.3442522E-02)
 number of electron     766.0000013 magnetization 
 augmentation part      -10.2527660 magnetization 

 Broyden mixing:
  rms(total) = 0.28778E-01    rms(broyden)= 0.28765E-01
  rms(prec ) = 0.44522E-01
  weight for this iteration     100.00

 eigenvalues of (default mixing * dielectric matrix)
  average eigenvalue GAMMA=   1.0228
  2.5263  2.5263  1.0502  1.0502  0.1412  0.2894  0.5974  0.5974  0.4264

 Free energy of the ion-electron system (eV)
  ---------------------------------------------------
  alpha Z        PSCENC =       505.22967617
  Ewald energy   TEWEN  =     88516.74932613
  -Hartree energ DENC   =   -103453.36596162
  -exchange      EXHF   =         0.00000000
  -V(xc)+E(xc)   XCENC  =     -6574.09674920
  PAW double counting   =     22049.99875154   -14003.78154838
  entropy T*S    EENTRO =        -0.07832544
  eigenvalues    EBANDS =     -1992.42820683
  atomic energy  EATOM  =     14019.20197576
  Solvation  Ediel_sol  =         0.00000000
  ---------------------------------------------------
  free energy    TOTEN  =      -932.57106188 eV

  energy without entropy =     -932.49273644  energy(sigma->0) =     -932.53189916


--------------------------------------------------------------------------------------------------------




----------------------------------------- Iteration    1(  15)  ---------------------------------------


    POTLOK:  cpu time    0.8959: real time    0.8973
    SETDIJ:  cpu time    0.1099: real time    0.1101
     EDDAV:  cpu time   21.6590: real time   25.4187
       DOS:  cpu time    0.0020: real time    0.0020
    CHARGE:  cpu time    1.9577: real time    2.0057
    MIXING:  cpu time    0.0447: real time    0.0447
    --------------------------------------------
      LOOP:  cpu time   24.6713: real time   28.4821

 eigenvalue-minimisations  :  3696
 total energy-change (2. order) : 0.4552577E-02  (-0.2705955E-02)
 number of electron     766.0000013 magnetization 
 augmentation part      -10.2499190 magnetization 

 Broyden mixing:
  rms(total) = 0.16917E-01    rms(broyden)= 0.16905E-01
  rms(prec ) = 0.26529E-01
  weight for this iteration     100.00

 eigenvalues of (default mixing * dielectric matrix)
  average eigenvalue GAMMA=   1.0772
  2.7416  2.7416  1.2088  1.2088  0.1412  0.7396  0.7396  0.2894  0.5336  0.4282

 Free energy of the ion-electron system (eV)
  ---------------------------------------------------
  alpha Z        PSCENC =       505.22967617
  Ewald energy   TEWEN  =     88516.74932613
  -Hartree energ DENC   =   -103477.60050355
  -exchange      EXHF   =         0.00000000
  -V(xc)+E(xc)   XCENC  =     -6573.77349379
  PAW double counting   =     22059.21169631   -14013.00874556
  entropy T*S    EENTRO =        -0.07758680
  eigenvalues    EBANDS =     -1968.49885398
  atomic energy  EATOM  =     14019.20197576
  Solvation  Ediel_sol  =         0.00000000
  ---------------------------------------------------
  free energy    TOTEN  =      -932.56650931 eV

  energy without entropy =     -932.48892251  energy(sigma->0) =     -932.52771591


--------------------------------------------------------------------------------------------------------




----------------------------------------- Iteration    1(  16)  ---------------------------------------


    POTLOK:  cpu time    0.8965: real time    0.8981
    SETDIJ:  cpu time    0.1124: real time    0.1125
     EDDAV:  cpu time   21.6936: real time   25.4906
       DOS:  cpu time    0.0283: real time    0.0284
    CHARGE:  cpu time    1.8945: real time    1.9417
    MIXING:  cpu time    0.0498: real time    0.0500
    --------------------------------------------
      LOOP:  cpu time   24.6772: real time   28.5248

 eigenvalue-minimisations  :  3708
 total energy-change (2. order) :-0.5254302E-02  (-0.1057900E-02)
 number of electron     766.0000014 magnetization 
 augmentation part      -10.2451958 magnetization 

 Broyden mixing:
  rms(total) = 0.14557E-01    rms(broyden)= 0.14528E-01
  rms(prec ) = 0.20196E-01
  weight for this iteration     100.00

 eigenvalues of (default mixing * dielectric matrix)
  average eigenvalue GAMMA=   1.1632
  3.6385  2.6435  1.6839  1.0298  1.0298  0.1412  0.2894  0.6848  0.6848  0.4284
  0.5417

 Free energy of the ion-electron system (eV)
  ---------------------------------------------------
  alpha Z        PSCENC =       505.22967617
  Ewald energy   TEWEN  =     88516.74932613
  -Hartree energ DENC   =   -103501.00070206
  -exchange      EXHF   =         0.00000000
  -V(xc)+E(xc)   XCENC  =     -6573.65064771
  PAW double counting   =     22040.66294437   -13994.44887082
  entropy T*S    EENTRO =        -0.07723047
  eigenvalues    EBANDS =     -1945.23823498
  atomic energy  EATOM  =     14019.20197576
  Solvation  Ediel_sol  =         0.00000000
  ---------------------------------------------------
  free energy    TOTEN  =      -932.57176361 eV

  energy without entropy =     -932.49453314  energy(sigma->0) =     -932.53314837


--------------------------------------------------------------------------------------------------------




----------------------------------------- Iteration    1(  17)  ---------------------------------------


    POTLOK:  cpu time    0.9026: real time    0.9040
    SETDIJ:  cpu time    0.1098: real time    0.1100
     EDDAV:  cpu time   21.7928: real time   25.6183
       DOS:  cpu time    0.0171: real time    0.0171
    CHARGE:  cpu time    1.8841: real time    1.9322
    MIXING:  cpu time    0.0496: real time    0.0497
    --------------------------------------------
[...]
     11.69112     -8.59029     -8.26601        -0.039177     -0.024187     -0.004375
     11.69112    -17.18057    -13.22561         0.002065      0.011332     -0.026123
     11.69112    -11.45372     -3.30640        -0.008898     -0.001522     -0.022596
     11.69112    -14.31714     -8.26601         0.010155      0.025110      0.024132
     13.99306      0.00000      0.00000         0.007064     -0.013027     -0.008604
     13.99306     -2.86343     -4.95960         0.015711     -0.000514      0.006791
     13.99306     -5.72686     -9.91921         0.000385      0.005842     -0.008299
     13.99306     -5.72686      0.00000         0.015299      0.002137     -0.005514
     13.99306     -8.59029     -4.95960         0.003875     -0.018667      0.017565
     13.99306    -11.45372     -9.91921        -0.027704      0.015342      0.037651
     13.99306    -11.45372      0.00000        -0.003872     -0.007300      0.028881
     13.99306    -14.31714     -4.95960         0.000447      0.023296     -0.006539
     13.99306    -17.18057     -9.91921        -0.015489      0.004604      0.001792
     16.34180     -2.86343     -1.65320        -0.021822     -0.014037     -0.002474
     16.34180     -5.72686     -6.61281         0.020012     -0.042214      0.009112
     16.34180     -8.59029    -11.57241         0.045373      0.002439      0.009940
     16.34180     -8.59029     -1.65320         0.029047      0.003278     -0.033089
     16.34180    -11.45372     -6.61281         1.390632      0.531877     -0.008855
     16.34180    -14.31714    -11.57241         0.003041      0.007726     -0.004224
     16.34180    -14.31714     -1.65320         0.005464      0.000213      0.002342
     16.34180    -17.18057     -6.61281         0.003376      0.020712     -0.003925
     16.34180    -20.04400    -11.57241        -0.005283     -0.014609     -0.001783
      2.36204     -7.15857     -4.13300        -0.016052      0.013061      0.007369
      2.36204    -10.02200     -9.09261         0.004934     -0.000000     -0.030063
      2.36204    -12.88543    -14.05221         0.004449      0.005920     -0.009555
      2.36204    -12.88543     -4.13300        -0.016052     -0.013061      0.007369
      2.36204    -15.74886     -9.09261         0.006193     -0.003497     -0.005279
      2.36204    -18.61229    -14.05221         0.003311     -0.000000     -0.026711
      2.36204    -18.61229     -4.13300         0.001249     -0.000000     -0.008699
      2.36204    -21.47572     -9.09261         0.006193      0.003497     -0.005279
      2.36204    -24.33915    -14.05221         0.004449     -0.005920     -0.009555
      4.71078    -10.02200     -5.78621         0.033759     -0.000000      0.015550
      4.71078    -12.88543    -10.74581        -0.008768      0.006419     -0.001634
      4.71078     -7.15857     -0.82660        -0.008631     -0.004122     -0.009335
      4.71078    -15.74886     -5.78621        -0.016599      0.004102      0.007484
      4.71078    -18.61229    -10.74581        -0.007878     -0.000000      0.011633
      4.71078    -12.88543     -0.82660        -0.008631      0.004122     -0.009335
      4.71078     -4.29514     -5.78621        -0.016599     -0.004102      0.007484
      4.71078     -7.15857    -10.74581        -0.008768     -0.006419     -0.001634
      4.71078     -1.43171     -0.82660        -0.004577     -0.000000     -0.007473
      7.01272    -12.88543     -7.43941         0.011887     -0.004418      0.000784
      7.01272    -15.74886    -12.39901         0.012544     -0.021310      0.017196
      7.01272    -10.02200     -2.47980         0.010991     -0.000000     -0.010746
      7.01272    -18.61229     -7.43941         0.014959     -0.000000     -0.013489
      7.01272    -21.47572    -12.39901         0.012544      0.021310      0.017196
      7.01272    -15.74886     -2.47980         0.005373     -0.006555      0.007397
      7.01272     -7.15857     -7.43941         0.011887      0.004418      0.000784
      7.01272    -10.02200    -12.39901         0.004293     -0.000000      0.012950
      7.01272     -4.29514     -2.47980         0.005373      0.006555      0.007397
      9.35192    -15.74886     -9.09261        -0.017371     -0.008072     -0.003928
      9.35192    -18.61229    -14.05221        -0.011631     -0.000000      0.007262
      9.35192    -12.88543     -4.13300         0.007727      0.014224     -0.008312
      9.35192    -21.47572     -9.09261        -0.017371      0.008072     -0.003928
      9.35192    -24.33915    -14.05221         0.006269     -0.008499     -0.010919
      9.35192    -18.61229     -4.13300         0.001663     -0.000000     -0.005370
      9.35192    -10.02200     -9.09261        -0.003154     -0.000000     -0.002926
      9.35192    -12.88543    -14.05221         0.006269      0.008499     -0.010919
      9.35192     -7.15857     -4.13300         0.007727     -0.014224     -0.008312
     11.69112    -18.61229    -10.74581         0.035560     -0.000000      0.016745
     11.69112    -12.88543     -0.82660        -0.002496      0.008474     -0.013109
     11.69112    -15.74886     -5.78621        -0.014010      0.022198      0.001372
     11.69112     -7.15857    -10.74581        -0.012325     -0.009756      0.011412
     11.69112     -1.43171     -0.82660         0.001094     -0.000000      0.007966
     11.69112     -4.29514     -5.78621        -0.014010     -0.022198      0.001372
     11.69112    -12.88543    -10.74581        -0.012325      0.009756      0.011412
     11.69112     -7.15857     -0.82660        -0.002496     -0.008474     -0.013109
     11.69112    -10.02200     -5.78621        -0.020970     -0.000000     -0.011535
     13.99306    -21.47572    -12.39901         0.000612     -0.017072      0.009595
     13.99306    -15.74886     -2.47980         0.002956     -0.018242      0.014874
     13.99306    -18.61229     -7.43941         0.002934     -0.000000     -0.004128
     13.99306    -10.02200    -12.39901         0.016626     -0.000000      0.012152
     13.99306     -4.29514     -2.47980         0.002956      0.018242      0.014874
     13.99306     -7.15857     -7.43941        -0.102997      0.038525     -0.031100
     13.99306    -15.74886    -12.39901         0.000612      0.017072      0.009595
     13.99306    -10.02200     -2.47980        -0.053579     -0.000000      0.009831
     13.99306    -12.88543     -7.43941        -0.102997     -0.038525     -0.031100
     16.34180    -24.33915    -14.05221         0.002906     -0.003812      0.003178
     16.34180    -18.61229     -4.13300        -0.008603     -0.000000      0.004042
     16.34180    -21.47572     -9.09261         0.011219      0.002713      0.009625
     16.34180    -12.88543    -14.05221         0.002906      0.003812      0.003178
     16.34180     -7.15857     -4.13300        -0.023987      0.046474      0.027076
     16.34180    -10.02200     -9.09261         0.694137      0.000000      0.637191
     16.34180    -18.61229    -14.05221         0.006786     -0.000000     -0.011563
     16.34180    -12.88543     -4.13300        -0.023987     -0.046474      0.027076
     16.34180    -15.74886     -9.09261         0.011219     -0.002713      0.009625
      2.36204     -8.59029     -6.61281         0.032932      0.031338      0.005191
      2.36204    -11.45372    -11.57241        -0.004833      0.001617     -0.009503
      2.36204     -5.72686     -1.65320        -0.003603      0.010273     -0.003448
      2.36204    -14.31714     -6.61281        -0.004322     -0.005660      0.007555
      2.36204    -17.18057    -11.57241         0.000545      0.028267      0.009645
      2.36204    -11.45372     -1.65320         0.009155     -0.004407      0.005911
      2.36204    -20.04400     -6.61281         0.003405     -0.001106      0.000409
      2.36204    -22.90743    -11.57241         0.010070      0.001700      0.009468
      2.36204    -17.18057     -1.65320        -0.004809      0.007214      0.004640
      4.71078    -11.45372     -8.26601         0.020039     -0.022351     -0.003423
      4.71078    -14.31714    -13.22561        -0.008503     -0.001658     -0.001769
      4.71078     -8.59029     -3.30640        -0.003001     -0.008883      0.007820
      4.71078    -17.18057     -8.26601        -0.008836     -0.009975     -0.001760
      4.71078    -20.04400    -13.22561        -0.014790     -0.002498      0.001606
      4.71078    -14.31714     -3.30640        -0.013337     -0.008324      0.004629
      4.71078     -5.72686     -8.26601        -0.004864     -0.003000      0.009523
      4.71078     -8.59029    -13.22561        -0.019620     -0.003854      0.001971
      4.71078     -2.86343     -3.30640        -0.005092      0.005422      0.000849
      7.01272    -14.31714     -9.91921         0.011661      0.005455      0.002258
      7.01272     -8.59029      0.00000         0.021153     -0.012437     -0.004752
      7.01272    -11.45372     -4.95960         0.005599     -0.009765      0.013790
      7.01272    -20.04400     -9.91921         0.022426      0.001455     -0.018437
      7.01272    -14.31714      0.00000         0.013539      0.003786     -0.003257
      7.01272    -17.18057     -4.95960         0.012084     -0.003502      0.001655
      7.01272     -8.59029     -9.91921         0.005908     -0.001276      0.015328
      7.01272     -2.86343      0.00000         0.006157      0.005746     -0.021972
      7.01272     -5.72686     -4.95960         0.015869     -0.023529     -0.018685
      9.35192    -17.18057    -11.57241        -0.010512      0.004049     -0.002576
      9.35192    -11.45372     -1.65320        -0.002581      0.006079     -0.011333
      9.35192    -14.31714     -6.61281         0.012894      0.031073      0.004959
      9.35192    -22.90743    -11.57241         0.000238     -0.005440      0.003419
      9.35192    -17.18057     -1.65320         0.006954      0.010896      0.000876
      9.35192    -20.04400     -6.61281        -0.006456      0.007747      0.009868
      9.35192    -11.45372    -11.57241         0.002278      0.003376      0.012474
      9.35192     -5.72686     -1.65320         0.001776      0.000223     -0.000983
      9.35192     -8.59029     -6.61281        -0.021768      0.006878      0.003210
     11.69112    -20.04400    -13.22561         0.002065     -0.011332     -0.026123
     11.69112    -14.31714     -3.30640        -0.009963      0.014190     -0.009834
     11.69112    -17.18057     -8.26601         0.007251      0.018633      0.004434
     11.69112     -8.59029    -13.22561        -0.012166      0.000351      0.015697
     11.69112     -2.86343     -3.30640        -0.011754     -0.009696     -0.008849
     11.69112     -5.72686     -8.26601         0.010155     -0.025110      0.024132
     11.69112    -14.31714    -13.22561        -0.006945      0.011808     -0.003746
     11.69112     -8.59029     -3.30640        -0.008898      0.001522     -0.022596
     11.69112    -11.45372     -8.26601        -0.039177      0.024187     -0.004375
     13.99306    -14.31714      0.00000         0.015299     -0.002137     -0.005514
     13.99306    -17.18057     -4.95960         0.015711      0.000514      0.006791
     13.99306    -20.04400     -9.91921        -0.015489     -0.004604      0.001792
     13.99306     -2.86343      0.00000         0.007064      0.013027     -0.008604
     13.99306     -5.72686     -4.95960         0.000447     -0.023296     -0.006539
     13.99306     -8.59029     -9.91921        -0.027704     -0.015342      0.037651
     13.99306     -8.59029      0.00000        -0.003872      0.007300      0.028881
     13.99306    -11.45372     -4.95960         0.003875      0.018667      0.017565
     13.99306    -14.31714     -9.91921         0.000385     -0.005842     -0.008299
     16.34180    -17.18057     -1.65320        -0.021822      0.014037     -0.002474
     16.34180    -20.04400     -6.61281         0.003376     -0.020712     -0.003925
     16.34180    -22.90743    -11.57241         0.003041     -0.007726     -0.004224
     16.34180     -5.72686     -1.65320         0.005464     -0.000213      0.002342
     16.34180     -8.59029     -6.61281         1.390632     -0.531877     -0.008855
     16.34180    -11.45372    -11.57241         0.045373     -0.002439      0.009940
     16.34180    -11.45372     -1.65320         0.029047     -0.003278     -0.033089
     16.34180    -14.31714     -6.61281         0.020012      0.042214      0.009112
     16.34180    -17.18057    -11.57241        -0.005283      0.014609     -0.001783
      2.36204    -10.02200     -4.13300         0.014129     -0.000000      0.019759
      2.36204    -12.88543     -9.09261        -0.010544     -0.004385     -0.009885
      2.36204    -15.74886    -14.05221        -0.000248     -0.004034      0.000318
      2.36204    -15.74886     -4.13300        -0.007967     -0.000278      0.000313
      2.36204    -18.61229     -9.09261        -0.003164     -0.000000      0.004587
      2.36204    -21.47572    -14.05221        -0.000248      0.004034      0.000318
      2.36204     -4.29514     -4.13300        -0.007967      0.000278      0.000313
      2.36204     -7.15857     -9.09261        -0.010544      0.004385     -0.009885
      2.36204    -10.02200    -14.05221        -0.005192     -0.000000      0.007599
      4.71078    -12.88543     -5.78621         0.017633     -0.003548     -0.013937
      4.71078    -15.74886    -10.74581        -0.014492      0.003677     -0.001856
      4.71078    -10.02200     -0.82660        -0.009732     -0.000000     -0.009062
      4.71078    -18.61229     -5.78621        -0.013071     -0.000000      0.007595
      4.71078    -21.47572    -10.74581        -0.014492     -0.003677     -0.001856
      4.71078    -15.74886     -0.82660        -0.013600     -0.010204     -0.010131
      4.71078     -7.15857     -5.78621         0.017633      0.003548     -0.013937
      4.71078    -10.02200    -10.74581         0.002307     -0.000000     -0.003222
      4.71078     -4.29514     -0.82660        -0.013600      0.010204     -0.010131
      7.01272    -15.74886     -7.43941         0.010382      0.017437     -0.010250
      7.01272    -18.61229    -12.39901         0.029336     -0.000000      0.005891
      7.01272    -12.88543     -2.47980         0.009728      0.019257     -0.012324
      7.01272    -21.47571     -7.43941         0.010382     -0.017437     -0.010250
      7.01272    -24.33914    -12.39901         0.011521     -0.001178      0.013006
      7.01272    -18.61228     -2.47980        -0.003436     -0.000000      0.006137
      7.01272    -10.02200     -7.43941         0.013477     -0.000000     -0.018976
      7.01272    -12.88543    -12.39901         0.011521      0.001178      0.013006
      7.01272     -7.15857     -2.47980         0.009728     -0.019257     -0.012324
      9.35192    -18.61229     -9.09261        -0.017057     -0.000000     -0.001615
      9.35192    -21.47572    -14.05221        -0.000304      0.008502     -0.005922
      9.35192    -15.74886     -4.13300        -0.001098     -0.006772      0.004618
      9.35192     -7.15857     -9.09261         0.011334     -0.021925      0.017063
      9.35192    -10.02200    -14.05221         0.010444     -0.000000     -0.009499
      9.35192     -4.29514     -4.13300        -0.001098      0.006772      0.004618
      9.35192    -12.88543     -9.09261         0.011334      0.021925      0.017063
      9.35192    -15.74886    -14.05221        -0.000304     -0.008502     -0.005922
      9.35192    -10.02200     -4.13300         0.005238     -0.000000     -0.004423
     11.69112    -21.47572    -10.74581         0.011222     -0.005440      0.004092
     11.69112    -15.74886     -0.82660        -0.013644     -0.002098     -0.004011
     11.69112    -18.61229     -5.78621        -0.011792     -0.000000      0.012826
     11.69112    -10.02200    -10.74581         0.004399     -0.000000      0.020489
     11.69112     -4.29514     -0.82660        -0.013644      0.002098     -0.004011
     11.69112     -7.15857     -5.78621        -0.031402      0.014548      0.016086
     11.69112    -15.74886    -10.74581         0.011222      0.005440      0.004092
     11.69112    -10.02200     -0.82660        -0.000271     -0.000000     -0.015589
     11.69112    -12.88543     -5.78621        -0.031402     -0.014548      0.016086
     13.99306    -24.33914    -12.39901         0.028329      0.012467     -0.000943
     13.99306    -18.61228     -2.47980        -0.014636     -0.000000      0.009527
     13.99306    -21.47571     -7.43941         0.011566      0.016537     -0.012964
     13.99306    -12.88543    -12.39901         0.028329     -0.012467     -0.000943
     13.99306     -7.15857     -2.47980        -0.014008      0.020051      0.008162
     13.99306    -10.02200     -7.43941         0.156287      0.000000      0.043041
     13.99306    -18.61229    -12.39901        -0.014858     -0.000000      0.007884
     13.99306    -12.88543     -2.47980        -0.014008     -0.020051      0.008162
     13.99306    -15.74886     -7.43941         0.011566     -0.016537     -0.012964
     16.34180    -10.02200    -14.05221         0.005800     -0.000000     -0.000538
     16.34180     -4.29514     -4.13300         0.007078      0.004779     -0.000131
     16.34180     -7.15857     -9.09261        -0.058336      0.102060     -0.049358
     16.34180    -15.74886    -14.05221         0.003311     -0.006059     -0.004195
     16.34180    -10.02200     -4.13300         0.690403      0.000000     -0.552271
     16.34180    -12.88543     -9.09261        -0.058336     -0.102060     -0.049358
     16.34180    -21.47572    -14.05221         0.003311      0.006059     -0.004195
     16.34180    -15.74886     -4.13300         0.007078     -0.004779     -0.000131
     16.34180    -18.61229     -9.09261        -0.001317     -0.000000      0.006477
     18.04000    -10.02200     -7.43941        -1.918179     -0.000000      3.756903
     18.04000    -10.02200     -5.78620        -2.199496      0.000000     -3.869337
 -----------------------------------------------------------------------------------
    total drift:                                0.120510      0.002365     -0.000369


--------------------------------------------------------------------------------------------------------



  FREE ENERGIE OF THE ION-ELECTRON SYSTEM (eV)
  ---------------------------------------------------
  free  energy   TOTEN  =      -932.59432446 eV

  energy  without entropy=     -932.51751472  energy(sigma->0) =     -932.55591959
 


--------------------------------------------------------------------------------------------------------


    POTLOK:  cpu time    1.0202: real time    1.0302


--------------------------------------------------------------------------------------------------------


     LOOP+:  cpu time  740.5392: real time  857.6703
    4ORBIT:  cpu time    0.0000: real time    0.0000

 total amount of memory used by VASP MPI-rank0   652164. kBytes
=======================================================================

   base      :      30000. kBytes
   nonlr-proj:      89943. kBytes
   fftplans  :      40601. kBytes
   grid      :      95147. kBytes
   one-center:       3950. kBytes
   wavefun   :     392523. kBytes
 
  
  
 General timing and accounting informations for this job:
 ========================================================
  
                  Total CPU time used (sec):      758.157
                            User time (sec):       98.971
                          System time (sec):      659.186
                         Elapsed time (sec):      878.960
  
                   Maximum memory used (kb):     1004644.
                   Average memory used (kb):           0.
  
                          Minor page faults:     27315876
                          Major page faults:           37
                 Voluntary context switches:        19186
