 254 254   0   0
  0.2268316E+02  0.1514622E-08  0.1514622E-08  0.2900000E-08  0.5000000E-15
  1.000000000000000E-004
  CAR 
 NiAl                                    
      5.80928585    -19.82827469  301     -0.60840353      1.00000000
    -19.828  0.0000E+00  0.0000E+00
    -19.743  0.0000E+00  0.0000E+00
    -19.657  0.0000E+00  0.0000E+00
    -19.572  0.0000E+00  0.0000E+00
    -19.486  0.0000E+00  0.0000E+00
    -19.401  0.0000E+00  0.0000E+00
    -19.316  0.0000E+00  0.0000E+00
    -19.230  0.0000E+00  0.0000E+00
    -19.145  0.0000E+00  0.0000E+00
    -19.059  0.0000E+00  0.0000E+00
    -18.974  0.0000E+00  0.0000E+00
    -18.888  0.2150E-08  0.1837E-09
    -18.803  0.8873E-03  0.7582E-04
    -18.717  0.1445E+01  0.1235E+00
    -18.632  0.1751E+02  0.1620E+01
    -18.546  0.4441E+01  0.1999E+01
    -18.461  0.1155E-01  0.2000E+01
    -18.375  0.1312E-06  0.2000E+01
    -18.290  0.5197E-14  0.2000E+01
    -18.205  0.0000E+00  0.2000E+01
    -18.119  0.0000E+00  0.2000E+01
    -18.034  0.0000E+00  0.2000E+01
    -17.948  0.0000E+00  0.2000E+01
    -17.863  0.0000E+00  0.2000E+01
    -17.777  0.0000E+00  0.2000E+01
    -17.692  0.0000E+00  0.2000E+01
    -17.606  0.0000E+00  0.2000E+01
    -17.521  0.0000E+00  0.2000E+01
    -17.435  0.0000E+00  0.2000E+01
    -17.350  0.0000E+00  0.2000E+01
    -17.265  0.0000E+00  0.2000E+01
    -17.179  0.0000E+00  0.2000E+01
    -17.094  0.0000E+00  0.2000E+01
    -17.008  0.0000E+00  0.2000E+01
    -16.923  0.0000E+00  0.2000E+01
    -16.837  0.0000E+00  0.2000E+01
    -16.752  0.0000E+00  0.2000E+01
    -16.666  0.0000E+00  0.2000E+01
    -16.581  0.0000E+00  0.2000E+01
    -16.495  0.0000E+00  0.2000E+01
    -16.410  0.0000E+00  0.2000E+01
    -16.324  0.0000E+00  0.2000E+01
    -16.239  0.0000E+00  0.2000E+01
    -16.154  0.0000E+00  0.2000E+01
    -16.068  0.0000E+00  0.2000E+01
    -15.983  0.0000E+00  0.2000E+01
    -15.897  0.0000E+00  0.2000E+01
    -15.812  0.0000E+00  0.2000E+01
    -15.726  0.0000E+00  0.2000E+01
    -15.641  0.0000E+00  0.2000E+01
    -15.555  0.0000E+00  0.2000E+01
    -15.470  0.0000E+00  0.2000E+01
    -15.384  0.0000E+00  0.2000E+01
    -15.299  0.0000E+00  0.2000E+01
    -15.214  0.0000E+00  0.2000E+01
    -15.128  0.0000E+00  0.2000E+01
    -15.043  0.0000E+00  0.2000E+01
    -14.957  0.0000E+00  0.2000E+01
    -14.872  0.0000E+00  0.2000E+01
    -14.786  0.0000E+00  0.2000E+01
    -14.701  0.0000E+00  0.2000E+01
    -14.615  0.0000E+00  0.2000E+01
    -14.530  0.0000E+00  0.2000E+01
    -14.444  0.0000E+00  0.2000E+01
    -14.359  0.0000E+00  0.2000E+01
    -14.273  0.0000E+00  0.2000E+01
    -14.188  0.0000E+00  0.2000E+01
    -14.103  0.0000E+00  0.2000E+01
    -14.017  0.0000E+00  0.2000E+01
    -13.932  0.0000E+00  0.2000E+01
    -13.846  0.0000E+00  0.2000E+01
    -13.761  0.0000E+00  0.2000E+01
    -13.675  0.0000E+00  0.2000E+01
    -13.590  0.0000E+00  0.2000E+01
    -13.504  0.0000E+00  0.2000E+01
    -13.419  0.0000E+00  0.2000E+01
    -13.333  0.0000E+00  0.2000E+01
    -13.248  0.0000E+00  0.2000E+01
    -13.163  0.0000E+00  0.2000E+01
    -13.077  0.0000E+00  0.2000E+01
    -12.992  0.0000E+00  0.2000E+01
    -12.906  0.0000E+00  0.2000E+01
    -12.821  0.0000E+00  0.2000E+01
    -12.735  0.0000E+00  0.2000E+01
    -12.650  0.0000E+00  0.2000E+01
    -12.564  0.0000E+00  0.2000E+01
    -12.479  0.0000E+00  0.2000E+01
    -12.393  0.0000E+00  0.2000E+01
    -12.308  0.0000E+00  0.2000E+01
    -12.222  0.0000E+00  0.2000E+01
    -12.137  0.0000E+00  0.2000E+01
    -12.052  0.0000E+00  0.2000E+01
    -11.966  0.0000E+00  0.2000E+01
    -11.881  0.0000E+00  0.2000E+01
    -11.795  0.0000E+00  0.2000E+01
    -11.710  0.0000E+00  0.2000E+01
    -11.624  0.0000E+00  0.2000E+01
    -11.539  0.0000E+00  0.2000E+01
    -11.453  0.0000E+00  0.2000E+01
    -11.368  0.0000E+00  0.2000E+01
    -11.282  0.0000E+00  0.2000E+01
    -11.197  0.0000E+00  0.2000E+01
    -11.112  0.2576E-07  0.2000E+01
    -11.026  0.4257E-02  0.2000E+01
    -10.941  0.2933E+01  0.2251E+01
    -10.855  0.1807E+02  0.3796E+01
    -10.770  0.2389E+01  0.4000E+01
    -10.684  0.2662E-02  0.4000E+01
    -10.599  0.1215E-07  0.4000E+01
    -10.513  0.0000E+00  0.4000E+01
    -10.428  0.0000E+00  0.4000E+01
    -10.342  0.0000E+00  0.4000E+01
    -10.257  0.0000E+00  0.4000E+01
    -10.171  0.0000E+00  0.4000E+01
    -10.086  0.0000E+00  0.4000E+01
    -10.001  0.0000E+00  0.4000E+01
     -9.915  0.0000E+00  0.4000E+01
     -9.830  0.0000E+00  0.4000E+01
     -9.744  0.0000E+00  0.4000E+01
     -9.659  0.0000E+00  0.4000E+01
     -9.573  0.0000E+00  0.4000E+01
     -9.488  0.0000E+00  0.4000E+01
     -9.402  0.0000E+00  0.4000E+01
     -9.317  0.8599E-09  0.4000E+01
     -9.231  0.2996E-03  0.4000E+01
     -9.146  0.4157E+00  0.4036E+01
     -9.060  0.4433E+01  0.4414E+01
     -8.975  0.1025E+01  0.4502E+01
     -8.890  0.7732E+01  0.5163E+01
     -8.804  0.2561E+02  0.7351E+01
     -8.719  0.1743E+01  0.7500E+01
     -8.633  0.1586E+00  0.7513E+01
     -8.548  0.3868E+01  0.7844E+01
     -8.462  0.4066E+01  0.8192E+01
     -8.377  0.3120E+02  0.1086E+02
     -8.291  0.3358E+02  0.1373E+02
     -8.206  0.1369E+02  0.1490E+02
     -8.120  0.2358E+02  0.1691E+02
     -8.035  0.1032E+01  0.1700E+02
     -7.950  0.2297E+01  0.1720E+02
     -7.864  0.2640E+02  0.1945E+02
     -7.779  0.7315E+01  0.2008E+02
     -7.693  0.1762E+02  0.2158E+02
     -7.608  0.2452E+02  0.2368E+02
     -7.522  0.6629E+02  0.2934E+02
     -7.437  0.3655E+02  0.3247E+02
     -7.351  0.3815E+00  0.3250E+02
     -7.266  0.9633E-02  0.3250E+02
     -7.180  0.5663E+01  0.3298E+02
     -7.095  0.5921E+02  0.3804E+02
     -7.009  0.7097E+02  0.4411E+02
     -6.924  0.1294E+02  0.4522E+02
     -6.839  0.2507E+02  0.4736E+02
     -6.753  0.3834E+01  0.4769E+02
     -6.668  0.2865E+02  0.5013E+02
     -6.582  0.1794E+02  0.5167E+02
     -6.497  0.4914E+02  0.5587E+02
     -6.411  0.3275E+02  0.5867E+02
     -6.326  0.8410E+02  0.6585E+02
     -6.240  0.3634E+02  0.6896E+02
     -6.155  0.1583E+02  0.7031E+02
     -6.069  0.5276E+02  0.7482E+02
     -5.984  0.7512E+02  0.8124E+02
     -5.899  0.9024E+02  0.8895E+02
     -5.813  0.1226E+02  0.9000E+02
     -5.728  0.2554E+01  0.9022E+02
     -5.642  0.9068E+01  0.9099E+02
     -5.557  0.4569E+02  0.9490E+02
     -5.471  0.6556E+02  0.1005E+03
     -5.386  0.1572E+03  0.1139E+03
     -5.300  0.5860E+02  0.1189E+03
     -5.215  0.7816E+02  0.1256E+03
     -5.129  0.9677E+02  0.1339E+03
     -5.044  0.1098E+03  0.1433E+03
     -4.958  0.1020E+03  0.1520E+03
     -4.873  0.3575E+02  0.1551E+03
     -4.788  0.1484E+03  0.1677E+03
     -4.702  0.3064E+03  0.1939E+03
     -4.617  0.1420E+03  0.2061E+03
     -4.531  0.2543E+03  0.2278E+03
     -4.446  0.2335E+03  0.2478E+03
     -4.360  0.3248E+03  0.2755E+03
     -4.275  0.2408E+03  0.2961E+03
     -4.189  0.2890E+03  0.3208E+03
     -4.104  0.2264E+03  0.3401E+03
     -4.018  0.3967E+03  0.3740E+03
     -3.933  0.4653E+03  0.4138E+03
     -3.848  0.5314E+03  0.4592E+03
     -3.762  0.4499E+03  0.4977E+03
     -3.677  0.4578E+03  0.5368E+03
     -3.591  0.4605E+03  0.5761E+03
     -3.506  0.3721E+03  0.6079E+03
     -3.420  0.3773E+03  0.6402E+03
     -3.335  0.3338E+03  0.6687E+03
     -3.249  0.4375E+03  0.7061E+03
     -3.164  0.5702E+03  0.7548E+03
     -3.078  0.4064E+03  0.7896E+03
     -2.993  0.3803E+03  0.8221E+03
     -2.907  0.6244E+03  0.8754E+03
     -2.822  0.5166E+03  0.9196E+03
     -2.737  0.4904E+03  0.9615E+03
     -2.651  0.5535E+03  0.1009E+04
     -2.566  0.6021E+03  0.1060E+04
     -2.480  0.6875E+03  0.1119E+04
     -2.395  0.7700E+03  0.1185E+04
     -2.309  0.8779E+03  0.1260E+04
     -2.224  0.8984E+03  0.1337E+04
     -2.138  0.7868E+03  0.1404E+04
     -2.053  0.9012E+03  0.1481E+04
     -1.967  0.7906E+03  0.1548E+04
     -1.882  0.5456E+03  0.1595E+04
     -1.797  0.6196E+03  0.1648E+04
     -1.711  0.5624E+03  0.1696E+04
     -1.626  0.5185E+03  0.1740E+04
     -1.540  0.5829E+03  0.1790E+04
     -1.455  0.8049E+03  0.1859E+04
     -1.369  0.7848E+03  0.1926E+04
     -1.284  0.5017E+03  0.1969E+04
     -1.198  0.5457E+03  0.2016E+04
     -1.113  0.7925E+03  0.2083E+04
     -1.027  0.7797E+03  0.2150E+04
     -0.942  0.8756E+03  0.2225E+04
     -0.856  0.6065E+03  0.2277E+04
     -0.771  0.7678E+03  0.2342E+04
     -0.686  0.1062E+04  0.2433E+04
     -0.600  0.1241E+04  0.2539E+04
     -0.515  0.8034E+03  0.2608E+04
     -0.429  0.4387E+03  0.2645E+04
     -0.344  0.2206E+03  0.2664E+04
     -0.258  0.1177E+03  0.2674E+04
     -0.173  0.1466E+03  0.2687E+04
     -0.087  0.1660E+03  0.2701E+04
     -0.002  0.1442E+03  0.2713E+04
      0.084  0.4415E+02  0.2717E+04
      0.169  0.7275E+02  0.2723E+04
      0.254  0.5953E+02  0.2728E+04
      0.340  0.2392E+02  0.2730E+04
      0.425  0.1372E+03  0.2742E+04
      0.511  0.8161E+02  0.2749E+04
      0.596  0.9824E+02  0.2757E+04
      0.682  0.8650E+02  0.2765E+04
      0.767  0.7612E+02  0.2771E+04
      0.853  0.1143E+03  0.2781E+04
      0.938  0.1390E+03  0.2793E+04
      1.024  0.1023E+03  0.2802E+04
      1.109  0.1058E+02  0.2802E+04
      1.195  0.2938E+02  0.2805E+04
      1.280  0.1226E+03  0.2815E+04
      1.365  0.8774E+02  0.2823E+04
      1.451  0.2581E+02  0.2825E+04
      1.536  0.5132E+02  0.2830E+04
      1.622  0.1136E+03  0.2839E+04
      1.707  0.9336E+02  0.2847E+04
      1.793  0.7739E+02  0.2854E+04
      1.878  0.7866E+02  0.2861E+04
      1.964  0.1095E+03  0.2870E+04
      2.049  0.4600E+02  0.2874E+04
      2.135  0.5152E+02  0.2878E+04
      2.220  0.8974E+02  0.2886E+04
      2.305  0.1214E+03  0.2896E+04
      2.391  0.9584E+02  0.2904E+04
      2.476  0.1952E+02  0.2906E+04
      2.562  0.5848E+02  0.2911E+04
      2.647  0.5777E+02  0.2916E+04
      2.733  0.1621E+02  0.2917E+04
      2.818  0.1387E+02  0.2919E+04
      2.904  0.5928E+02  0.2924E+04
      2.989  0.9937E+02  0.2932E+04
      3.075  0.2253E+03  0.2951E+04
      3.160  0.1270E+03  0.2962E+04
      3.246  0.3934E+02  0.2966E+04
      3.331  0.2453E+02  0.2968E+04
      3.416  0.3126E+02  0.2970E+04
      3.502  0.1249E+03  0.2981E+04
      3.587  0.2774E+02  0.2984E+04
      3.673  0.4063E+02  0.2987E+04
      3.758  0.8993E+02  0.2995E+04
      3.844  0.1047E+02  0.2996E+04
      3.929  0.2190E+02  0.2997E+04
      4.015  0.1793E+02  0.2999E+04
      4.100  0.2353E+02  0.3001E+04
      4.186  0.9667E+02  0.3009E+04
      4.271  0.3249E+02  0.3012E+04
      4.356  0.4948E+02  0.3016E+04
      4.442  0.9671E+02  0.3025E+04
      4.527  0.6433E+02  0.3030E+04
      4.613  0.3969E+02  0.3033E+04
      4.698  0.2949E+02  0.3036E+04
      4.784  0.9295E+00  0.3036E+04
      4.869  0.4535E-03  0.3036E+04
      4.955  0.1072E-08  0.3036E+04
      5.040  0.0000E+00  0.3036E+04
      5.126  0.0000E+00  0.3036E+04
      5.211  0.0000E+00  0.3036E+04
      5.297  0.0000E+00  0.3036E+04
      5.382  0.0000E+00  0.3036E+04
      5.467  0.0000E+00  0.3036E+04
      5.553  0.0000E+00  0.3036E+04
      5.638  0.0000E+00  0.3036E+04
      5.724  0.0000E+00  0.3036E+04
      5.809  0.0000E+00  0.3036E+04
