  254  254    1    1
  0.2268316E+02  0.1514622E-08  0.1514622E-08  0.2900000E-08  0.5000000E-15
  1.000000000000000E-004
  CAR 
 NiAl                                    
   2530      4   1518
 
  0.0000000E+00  0.0000000E+00  0.0000000E+00  0.2500000E+00
    1      -18.662798   1.000000
    2      -10.899899   1.000000
    3       -9.094068   1.000000
    4       -8.565061   1.000000
    5       -8.188109   1.000000
    6       -8.187410   1.000000
    7       -8.187275   1.000000
    8       -8.187169   1.000000
    9       -8.187002   1.000000
   10       -8.186754   1.000000
   11       -7.740272   1.000000
   12       -7.685941   1.000000
   13       -7.681508   1.000000
   14       -7.681425   1.000000
   15       -7.681386   1.000000
   16       -7.681136   1.000000
   17       -7.680678   1.000000
   18       -6.912638   1.000000
   19       -6.896547   1.000000
   20       -6.895817   1.000000
   21       -6.895728   1.000000
   22       -6.895596   1.000000
   23       -6.895084   1.000000
   24       -6.719222   1.000000
   25       -6.552463   1.000000
   26       -6.551848   1.000000
   27       -6.551627   1.000000
   28       -6.551576   1.000000
   29       -6.551480   1.000000
   30       -6.551429   1.000000
   31       -6.138130   1.000000
   32       -6.132170   1.000000
   33       -6.131250   1.000000
   34       -6.131173   1.000000
   35       -6.131134   1.000000
   36       -6.131032   1.000000
   37       -5.988662   1.000000
   38       -5.932499   1.000000
   39       -5.930635   1.000000
   40       -5.930551   1.000000
   41       -5.930461   1.000000
   42       -5.930381   1.000000
   43       -5.930349   1.000000
   44       -5.930324   1.000000
   45       -5.929788   1.000000
   46       -5.929684   1.000000
   47       -5.929529   1.000000
   48       -5.929077   1.000000
   49       -5.721839   1.000000
   50       -5.602847   1.000000
   51       -5.600099   1.000000
   52       -5.599124   1.000000
   53       -5.598911   1.000000
   54       -5.598762   1.000000
   55       -5.598716   1.000000
   56       -5.525631   1.000000
   57       -5.507070   1.000000
   58       -5.504332   1.000000
   59       -5.504087   1.000000
   60       -5.504081   1.000000
   61       -5.503957   1.000000
   62       -5.288023   1.000000
   63       -5.154993   1.000000
   64       -5.152490   1.000000
   65       -5.151310   1.000000
   66       -5.151170   1.000000
   67       -5.151051   1.000000
   68       -5.144591   1.000000
   69       -5.057187   1.000000
   70       -5.003005   1.000000
   71       -4.994004   1.000000
   72       -4.993672   1.000000
   73       -4.993608   1.000000
   74       -4.993462   1.000000
   75       -4.910913   1.000000
   76       -4.867270   1.000000
   77       -4.824145   1.000000
   78       -4.822563   1.000000
   79       -4.821436   1.000000
   80       -4.809917   1.000000
   81       -4.801846   1.000000
   82       -4.782159   1.000000
   83       -4.782050   1.000000
   84       -4.781818   1.000000
   85       -4.776198   1.000000
   86       -4.724973   1.000000
   87       -4.714770   1.000000
   88       -4.698733   1.000000
   89       -4.698435   1.000000
   90       -4.698392   1.000000
   91       -4.696050   1.000000
   92       -4.680783   1.000000
   93       -4.680618   1.000000
   94       -4.680485   1.000000
   95       -4.650491   1.000000
   96       -4.609394   1.000000
   97       -4.587873   1.000000
   98       -4.587808   1.000000
   99       -4.587737   1.000000
  100       -4.587643   1.000000
  101       -4.587523   1.000000
  102       -4.587484   1.000000
  103       -4.587380   1.000000
  104       -4.587324   1.000000
  105       -4.587286   1.000000
  106       -4.587198   1.000000
  107       -4.586415   1.000000
  108       -4.580414   1.000000
  109       -4.545551   1.000000
  110       -4.544465   1.000000
  111       -4.541939   1.000000
  112       -4.475131   1.000000
  113       -4.474690   1.000000
  114       -4.474245   1.000000
  115       -4.440105   1.000000
  116       -4.440042   1.000000
  117       -4.439814   1.000000
  118       -4.439540   1.000000
  119       -4.429883   1.000000
  120       -4.395495   1.000000
  121       -4.384239   1.000000
  122       -4.384227   1.000000
  123       -4.384165   1.000000
  124       -4.384042   1.000000
  125       -4.383999   1.000000
  126       -4.383969   1.000000
  127       -4.383901   1.000000
  128       -4.383865   1.000000
  129       -4.383801   1.000000
  130       -4.383660   1.000000
  131       -4.382475   1.000000
  132       -4.382296   1.000000
  133       -4.373490   1.000000
  134       -4.373347   1.000000
  135       -4.373291   1.000000
  136       -4.373192   1.000000
  137       -4.373172   1.000000
  138       -4.373153   1.000000
  139       -4.373062   1.000000
  140       -4.373053   1.000000
  141       -4.372900   1.000000
  142       -4.372584   1.000000
  143       -4.372501   1.000000
  144       -4.372016   1.000000
  145       -4.326864   1.000000
  146       -4.326833   1.000000
  147       -4.326633   1.000000
  148       -4.326577   1.000000
  149       -4.324655   1.000000
  150       -4.308414   1.000000
  151       -4.291318   1.000000
  152       -4.290801   1.000000
  153       -4.290676   1.000000
  154       -4.290091   1.000000
  155       -4.283551   1.000000
  156       -4.272578   1.000000
  157       -4.270319   1.000000
  158       -4.270074   1.000000
  159       -4.264700   1.000000
  160       -4.232512   1.000000
  161       -4.232370   1.000000
  162       -4.232284   1.000000
  163       -4.232088   1.000000
  164       -4.232016   1.000000
  165       -4.231910   1.000000
  166       -4.231874   1.000000
  167       -4.231718   1.000000
  168       -4.231693   1.000000
  169       -4.231456   1.000000
  170       -4.230665   1.000000
  171       -4.229458   1.000000
  172       -4.169378   1.000000
  173       -4.169354   1.000000
  174       -4.169178   1.000000
  175       -4.141052   1.000000
  176       -4.140671   1.000000
  177       -4.140461   1.000000
  178       -4.139932   1.000000
  179       -4.134937   1.000000
  180       -4.119842   1.000000
  181       -4.062910   1.000000
  182       -4.059837   1.000000
  183       -4.059186   1.000000
  184       -4.035237   1.000000
  185       -4.034668   1.000000
  186       -4.034379   1.000000
  187       -4.034281   1.000000
  188       -4.034217   1.000000
  189       -4.034129   1.000000
  190       -4.034042   1.000000
  191       -4.033922   1.000000
  192       -4.033749   1.000000
  193       -4.033240   1.000000
  194       -4.032094   1.000000
  195       -4.030481   1.000000
  196       -4.000277   1.000000
  197       -3.999902   1.000000
  198       -3.999578   1.000000
  199       -3.937880   1.000000
  200       -3.936026   1.000000
  201       -3.935843   1.000000
  202       -3.935231   1.000000
  203       -3.935181   1.000000
  204       -3.935003   1.000000
  205       -3.934917   1.000000
  206       -3.931771   1.000000
  207       -3.928866   1.000000
  208       -3.889928   1.000000
  209       -3.889843   1.000000
  210       -3.889810   1.000000
  211       -3.889745   1.000000
  212       -3.889663   1.000000
  213       -3.889548   1.000000
  214       -3.889525   1.000000
  215       -3.889351   1.000000
  216       -3.889300   1.000000
  217       -3.889256   1.000000
  218       -3.889018   1.000000
  219       -3.888845   1.000000
  220       -3.878517   1.000000
  221       -3.878212   1.000000
  222       -3.878092   1.000000
  223       -3.877882   1.000000
  224       -3.877416   1.000000
  225       -3.875771   1.000000
  226       -3.796606   1.000000
  227       -3.795278   1.000000
  228       -3.795029   1.000000
  229       -3.794999   1.000000
  230       -3.794849   1.000000
  231       -3.794783   1.000000
  232       -3.794696   1.000000
  233       -3.794670   1.000000
  234       -3.794459   1.000000
  235       -3.794002   1.000000
  236       -3.792790   1.000000
  237       -3.791967   1.000000
  238       -3.763680   1.000000
  239       -3.763375   1.000000
  240       -3.763203   1.000000
  241       -3.763050   1.000000
  242       -3.762200   1.000000
  243       -3.758274   1.000000
  244       -3.747801   1.000000
  245       -3.747715   1.000000
  246       -3.747336   1.000000
  247       -3.747209   1.000000
  248       -3.743720   1.000000
  249       -3.743612   1.000000
  250       -3.743542   1.000000
  251       -3.743469   1.000000
  252       -3.742481   1.000000
  253       -3.740897   1.000000
  254       -3.737755   1.000000
  255       -3.737701   1.000000
  256       -3.698269   1.000000
  257       -3.698093   1.000000
  258       -3.697790   1.000000
  259       -3.697691   1.000000
  260       -3.697679   1.000000
  261       -3.697573   1.000000
  262       -3.697538   1.000000
  263       -3.697457   1.000000
  264       -3.697370   1.000000
  265       -3.697157   1.000000
  266       -3.697055   1.000000
  267       -3.696833   1.000000
  268       -3.687314   1.000000
  269       -3.687240   1.000000
  270       -3.686668   1.000000
  271       -3.639066   1.000000
  272       -3.638572   1.000000
  273       -3.638491   1.000000
  274       -3.638232   1.000000
  275       -3.637999   1.000000
  276       -3.636598   1.000000
  277       -3.631479   1.000000
  278       -3.631402   1.000000
  279       -3.630980   1.000000
  280       -3.630837   1.000000
  281       -3.611767   1.000000
  282       -3.611674   1.000000
  283       -3.595709   1.000000
  284       -3.595605   1.000000
  285       -3.595487   1.000000
  286       -3.595312   1.000000
  287       -3.594970   1.000000
  288       -3.592414   1.000000
  289       -3.584607   1.000000
  290       -3.584552   1.000000
  291       -3.583931   1.000000
  292       -3.583773   1.000000
  293       -3.579779   1.000000
  294       -3.579709   1.000000
  295       -3.514371   1.000000
  296       -3.513572   1.000000
  297       -3.513478   1.000000
  298       -3.513425   1.000000
  299       -3.509067   1.000000
  300       -3.508427   1.000000
  301       -3.508342   1.000000
  302       -3.508125   1.000000
  303       -3.508015   1.000000
  304       -3.507922   1.000000
  305       -3.507899   1.000000
  306       -3.507666   1.000000
  307       -3.507603   1.000000
  308       -3.507376   1.000000
  309       -3.505853   1.000000
  310       -3.505785   1.000000
  311       -3.461564   1.000000
  312       -3.461462   1.000000
  313       -3.461412   1.000000
  314       -3.461367   1.000000
  315       -3.461213   1.000000
  316       -3.461095   1.000000
  317       -3.426169   1.000000
  318       -3.426006   1.000000
  319       -3.425864   1.000000
  320       -3.425668   1.000000
  321       -3.425500   1.000000
  322       -3.425435   1.000000
  323       -3.424637   1.000000
  324       -3.423338   1.000000
  325       -3.422781   1.000000
  326       -3.422158   1.000000
  327       -3.422075   1.000000
  328       -3.421895   1.000000
  329       -3.421861   1.000000
  330       -3.421767   1.000000
  331       -3.421684   1.000000
  332       -3.421587   1.000000
  333       -3.421407   1.000000
  334       -3.421080   1.000000
  335       -3.406372   1.000000
  336       -3.405834   1.000000
  337       -3.405820   1.000000
  338       -3.405483   1.000000
  339       -3.404942   1.000000
  340       -3.402072   1.000000
  341       -3.311309   1.000000
  342       -3.311012   1.000000
  343       -3.309271   1.000000
  344       -3.286483   1.000000
  345       -3.286121   1.000000
  346       -3.285851   1.000000
  347       -3.285560   1.000000
  348       -3.285399   1.000000
  349       -3.285260   1.000000
  350       -3.246128   1.000000
  351       -3.246032   1.000000
  352       -3.234990   1.000000
  353       -3.232929   1.000000
  354       -3.232582   1.000000
  355       -3.232166   1.000000
  356       -3.231863   1.000000
  357       -3.231813   1.000000
  358       -3.231632   1.000000
  359       -3.231488   1.000000
  360       -3.231415   1.000000
  361       -3.231188   1.000000
  362       -3.230799   1.000000
  363       -3.229080   1.000000
  364       -3.205527   1.000000
  365       -3.205500   1.000000
  366       -3.168573   1.000000
  367       -3.168096   1.000000
  368       -3.167707   1.000000
  369       -3.167397   1.000000
  370       -3.166418   1.000000
  371       -3.164599   1.000000
  372       -3.162463   1.000000
  373       -3.162105   1.000000
  374       -3.162059   1.000000
  375       -3.161938   1.000000
  376       -3.161884   1.000000
  377       -3.160186   1.000000
  378       -3.159133   1.000000
  379       -3.158631   1.000000
  380       -3.158466   1.000000
  381       -3.158342   1.000000
  382       -3.158151   1.000000
  383       -3.158001   1.000000
  384       -3.093604   1.000000
  385       -3.093133   1.000000
  386       -3.091437   1.000000
  387       -3.091387   1.000000
  388       -3.091299   1.000000
  389       -3.091251   1.000000
  390       -3.091127   1.000000
  391       -3.091120   1.000000
  392       -3.090996   1.000000
  393       -3.090907   1.000000
  394       -3.090287   1.000000
  395       -3.089159   1.000000
  396       -3.055211   1.000000
  397       -3.054691   1.000000
  398       -3.054664   1.000000
  399       -3.054612   1.000000
  400       -3.054401   1.000000
  401       -3.054246   1.000000
  402       -2.983034   1.000000
  403       -2.982810   1.000000
  404       -2.982731   1.000000
  405       -2.982489   1.000000
  406       -2.982345   1.000000
  407       -2.982304   1.000000
  408       -2.972312   1.000000
  409       -2.971195   1.000000
  410       -2.970622   1.000000
  411       -2.970389   1.000000
  412       -2.969101   1.000000
  413       -2.964056   1.000000
  414       -2.955134   1.000000
  415       -2.955094   1.000000
  416       -2.955006   1.000000
  417       -2.954902   1.000000
  418       -2.954822   1.000000
  419       -2.953869   1.000000
  420       -2.933666   1.000000
  421       -2.932435   1.000000
  422       -2.931819   1.000000
  423       -2.931720   1.000000
  424       -2.931235   1.000000
  425       -2.927466   1.000000
  426       -2.912654   1.000000
  427       -2.911623   1.000000
  428       -2.910608   1.000000
  429       -2.910555   1.000000
  430       -2.910455   1.000000
  431       -2.910378   1.000000
  432       -2.910333   1.000000
  433       -2.910245   1.000000
  434       -2.910219   1.000000
  435       -2.909960   1.000000
  436       -2.909846   1.000000
  437       -2.909578   1.000000
  438       -2.908360   1.000000
  439       -2.908087   1.000000
  440       -2.907509   1.000000
  441       -2.907246   1.000000
  442       -2.906224   1.000000
  443       -2.901785   1.000000
  444       -2.848090   1.000000
  445       -2.847362   1.000000
  446       -2.845786   1.000000
  447       -2.844711   1.000000
  448       -2.844044   1.000000
  449       -2.843992   1.000000
  450       -2.843704   1.000000
  451       -2.843353   1.000000
  452       -2.841908   1.000000
  453       -2.838057   1.000000
  454       -2.837904   1.000000
  455       -2.837744   1.000000
  456       -2.837696   1.000000
  457       -2.837666   1.000000
  458       -2.837516   1.000000
  459       -2.837337   1.000000
  460       -2.837229   1.000000
  461       -2.837121   1.000000
  462       -2.837021   1.000000
  463       -2.836789   1.000000
  464       -2.836304   1.000000
  465       -2.786585   1.000000
  466       -2.786359   1.000000
  467       -2.785852   1.000000
  468       -2.785823   1.000000
  469       -2.754169   1.000000
  470       -2.753321   1.000000
  471       -2.753178   1.000000
  472       -2.753082   1.000000
  473       -2.752892   1.000000
  474       -2.752676   1.000000
  475       -2.750612   1.000000
  476       -2.750379   1.000000
  477       -2.750246   1.000000
  478       -2.750022   1.000000
  479       -2.749486   1.000000
  480       -2.748256   1.000000
  481       -2.745745   1.000000
  482       -2.745381   1.000000
  483       -2.745095   1.000000
  484       -2.744787   1.000000
  485       -2.744522   1.000000
  486       -2.744415   1.000000
  487       -2.730869   1.000000
  488       -2.730564   1.000000
  489       -2.730182   1.000000
  490       -2.729856   1.000000
  491       -2.729817   1.000000
  492       -2.729709   1.000000
  493       -2.729609   1.000000
  494       -2.729590   1.000000
  495       -2.729503   1.000000
  496       -2.729375   1.000000
  497       -2.729357   1.000000
  498       -2.729028   1.000000
  499       -2.722815   1.000000
  500       -2.722809   1.000000
  501       -2.694206   1.000000
  502       -2.693872   1.000000
  503       -2.693630   1.000000
  504       -2.693509   1.000000
  505       -2.693108   1.000000
  506       -2.688466   1.000000
  507       -2.660233   1.000000
  508       -2.660031   1.000000
  509       -2.659647   1.000000
  510       -2.659451   1.000000
  511       -2.659259   1.000000
  512       -2.658835   1.000000
  513       -2.655099   1.000000
  514       -2.626003   1.000000
  515       -2.625890   1.000000
  516       -2.625489   1.000000
  517       -2.625419   1.000000
  518       -2.622622   1.000000
  519       -2.620231   1.000000
  520       -2.619284   1.000000
  521       -2.618812   1.000000
  522       -2.618637   1.000000
  523       -2.615840   1.000000
  524       -2.613700   1.000000
  525       -2.572016   1.000000
  526       -2.569549   1.000000
  527       -2.568190   1.000000
  528       -2.568094   1.000000
  529       -2.568002   1.000000
  530       -2.567932   1.000000
  531       -2.567775   1.000000
  532       -2.567707   1.000000
  533       -2.567592   1.000000
  534       -2.567544   1.000000
  535       -2.567106   1.000000
  536       -2.566844   1.000000
  537       -2.560258   1.000000
  538       -2.557367   1.000000
  539       -2.555677   1.000000
  540       -2.555425   1.000000
  541       -2.555251   1.000000
  542       -2.555159   1.000000
  543       -2.555087   1.000000
  544       -2.554822   1.000000
  545       -2.546504   1.000000
  546       -2.530415   1.000000
  547       -2.530327   1.000000
  548       -2.530245   1.000000
  549       -2.520180   1.000000
  550       -2.519880   1.000000
  551       -2.519722   1.000000
  552       -2.519561   1.000000
  553       -2.519047   1.000000
  554       -2.513876   1.000000
  555       -2.504493   1.000000
  556       -2.502416   1.000000
  557       -2.500976   1.000000
  558       -2.500875   1.000000
  559       -2.499636   1.000000
  560       -2.491412   1.000000
  561       -2.491341   1.000000
  562       -2.491165   1.000000
  563       -2.491019   1.000000
  564       -2.490839   1.000000
  565       -2.490728   1.000000
  566       -2.490674   1.000000
  567       -2.490566   1.000000
  568       -2.490440   1.000000
  569       -2.490309   1.000000
  570       -2.490050   1.000000
  571       -2.489702   1.000000
  572       -2.486606   1.000000
  573       -2.486383   1.000000
  574       -2.482755   1.000000
  575       -2.465926   1.000000
  576       -2.465787   1.000000
  577       -2.445960   1.000000
  578       -2.445511   1.000000
  579       -2.445336   1.000000
  580       -2.444861   1.000000
  581       -2.444833   1.000000
  582       -2.444608   1.000000
  583       -2.444106   1.000000
  584       -2.443938   1.000000
  585       -2.443871   1.000000
  586       -2.443715   1.000000
  587       -2.443269   1.000000
  588       -2.438365   1.000000
  589       -2.420257   1.000000
  590       -2.419661   1.000000
  591       -2.419297   1.000000
  592       -2.419167   1.000000
  593       -2.418586   1.000000
  594       -2.416851   1.000000
  595       -2.411216   1.000000
  596       -2.401993   1.000000
  597       -2.401921   1.000000
  598       -2.401309   1.000000
  599       -2.400199   1.000000
  600       -2.400098   1.000000
  601       -2.399926   1.000000
  602       -2.399872   1.000000
  603       -2.399620   1.000000
  604       -2.399387   1.000000
  605       -2.395740   1.000000
  606       -2.395692   1.000000
  607       -2.395602   1.000000
  608       -2.395438   1.000000
  609       -2.395266   1.000000
  610       -2.395057   1.000000
  611       -2.390024   1.000000
  612       -2.389801   1.000000
  613       -2.333223   1.000000
  614       -2.332564   1.000000
  615       -2.332229   1.000000
  616       -2.330379   1.000000
  617       -2.330114   1.000000
  618       -2.329927   1.000000
  619       -2.329078   1.000000
  620       -2.323876   1.000000
  621       -2.323714   1.000000
  622       -2.323150   1.000000
  623       -2.323077   1.000000
  624       -2.322570   1.000000
  625       -2.298254   1.000000
  626       -2.298155   1.000000
  627       -2.297990   1.000000
  628       -2.297954   1.000000
  629       -2.297629   1.000000
  630       -2.297503   1.000000
  631       -2.296515   1.000000
  632       -2.296412   1.000000
  633       -2.296273   1.000000
  634       -2.296080   1.000000
  635       -2.295940   1.000000
  636       -2.295721   1.000000
  637       -2.277064   1.000000
  638       -2.276400   1.000000
  639       -2.276293   1.000000
  640       -2.273250   1.000000
  641       -2.272576   1.000000
  642       -2.270982   1.000000
  643       -2.263470   1.000000
  644       -2.263248   1.000000
  645       -2.248674   1.000000
  646       -2.245539   1.000000
  647       -2.242341   1.000000
  648       -2.242067   1.000000
  649       -2.241993   1.000000
  650       -2.241778   1.000000
  651       -2.241631   1.000000
  652       -2.241605   1.000000
  653       -2.241456   1.000000
  654       -2.241326   1.000000
  655       -2.241086   1.000000
  656       -2.240738   1.000000
  657       -2.232356   1.000000
  658       -2.231884   1.000000
  659       -2.231620   1.000000
  660       -2.230953   1.000000
  661       -2.230113   1.000000
  662       -2.229679   1.000000
  663       -2.228866   1.000000
  664       -2.228718   1.000000
  665       -2.228630   1.000000
  666       -2.227893   1.000000
  667       -2.227768   1.000000
  668       -2.227592   1.000000
  669       -2.224962   1.000000
  670       -2.223975   1.000000
  671       -2.222924   1.000000
  672       -2.222846   1.000000
  673       -2.188894   1.000000
  674       -2.188136   1.000000
  675       -2.187904   1.000000
  676       -2.187805   1.000000
  677       -2.187702   1.000000
  678       -2.186812   1.000000
  679       -2.178846   1.000000
  680       -2.178447   1.000000
  681       -2.178248   1.000000
  682       -2.178118   1.000000
  683       -2.177983   1.000000
  684       -2.177802   1.000000
  685       -2.160832   1.000000
  686       -2.145735   1.000000
  687       -2.142702   1.000000
  688       -2.135256   1.000000
  689       -2.134601   1.000000
  690       -2.134408   1.000000
  691       -2.134215   1.000000
  692       -2.133948   1.000000
  693       -2.133572   1.000000
  694       -2.133377   1.000000
  695       -2.133284   1.000000
  696       -2.132745   1.000000
  697       -2.132693   1.000000
  698       -2.132575   1.000000
  699       -2.130398   1.000000
  700       -2.126095   1.000000
  701       -2.125896   1.000000
  702       -2.125435   1.000000
  703       -2.125121   1.000000
  704       -2.124998   1.000000
  705       -2.124791   1.000000
  706       -2.124363   1.000000
  707       -2.123994   1.000000
  708       -2.123656   1.000000
  709       -2.123510   1.000000
  710       -2.123442   1.000000
  711       -2.123325   1.000000
  712       -2.123229   1.000000
  713       -2.122967   1.000000
  714       -2.122791   1.000000
  715       -2.122127   1.000000
  716       -2.121169   1.000000
  717       -2.121153   1.000000
  718       -2.104771   1.000000
  719       -2.104659   1.000000
  720       -2.104479   1.000000
  721       -2.104286   1.000000
  722       -2.104099   1.000000
  723       -2.104010   1.000000
  724       -2.057536   1.000000
  725       -2.053043   1.000000
  726       -2.047872   1.000000
  727       -2.047149   1.000000
  728       -2.046171   1.000000
  729       -2.045588   1.000000
  730       -2.045048   1.000000
  731       -2.044982   1.000000
  732       -2.043709   1.000000
  733       -2.043631   1.000000
  734       -2.043491   1.000000
  735       -2.043366   1.000000
  736       -2.043242   1.000000
  737       -2.043085   1.000000
  738       -2.043018   1.000000
  739       -2.042926   1.000000
  740       -2.041897   1.000000
  741       -2.035458   1.000000
  742       -2.009121   1.000000
  743       -2.008971   1.000000
  744       -2.008705   1.000000
  745       -2.008528   1.000000
  746       -2.008338   1.000000
  747       -2.008230   1.000000
  748       -2.002542   1.000000
  749       -2.002427   1.000000
  750       -2.002391   1.000000
  751       -2.001790   1.000000
  752       -2.001659   1.000000
  753       -1.998817   1.000000
  754       -1.959246   1.000000
  755       -1.954555   1.000000
  756       -1.951499   1.000000
  757       -1.951343   1.000000
  758       -1.951121   1.000000
  759       -1.950350   1.000000
  760       -1.949042   1.000000
  761       -1.948565   1.000000
  762       -1.945238   1.000000
  763       -1.944984   1.000000
  764       -1.944790   1.000000
  765       -1.944526   1.000000
  766       -1.944459   1.000000
  767       -1.944395   1.000000
  768       -1.944310   1.000000
  769       -1.944296   1.000000
  770       -1.944065   1.000000
  771       -1.943955   1.000000
  772       -1.943892   1.000000
  773       -1.943757   1.000000
  774       -1.943554   1.000000
  775       -1.943487   1.000000
  776       -1.943238   1.000000
  777       -1.937809   1.000000
  778       -1.914924   1.000000
  779       -1.914295   1.000000
  780       -1.914159   1.000000
  781       -1.907073   1.000000
  782       -1.907003   1.000000
  783       -1.906929   1.000000
  784       -1.906806   1.000000
  785       -1.906659   1.000000
  786       -1.906509   1.000000
  787       -1.887092   1.000000
  788       -1.886637   1.000000
  789       -1.886078   1.000000
  790       -1.885819   1.000000
  791       -1.885704   1.000000
  792       -1.885553   1.000000
  793       -1.865692   1.000000
  794       -1.863636   1.000000
  795       -1.862876   1.000000
  796       -1.862573   1.000000
  797       -1.862487   1.000000
  798       -1.862379   1.000000
  799       -1.862202   1.000000
  800       -1.858346   1.000000
  801       -1.852044   1.000000
  802       -1.851252   1.000000
  803       -1.849599   1.000000
  804       -1.843184   1.000000
  805       -1.832268   1.000000
  806       -1.828865   1.000000
  807       -1.825445   1.000000
  808       -1.824549   1.000000
  809       -1.824270   1.000000
  810       -1.824098   1.000000
  811       -1.823865   1.000000
  812       -1.823637   1.000000
  813       -1.823575   1.000000
  814       -1.823437   1.000000
  815       -1.822890   1.000000
  816       -1.819403   1.000000
  817       -1.792348   1.000000
  818       -1.788499   1.000000
  819       -1.785253   1.000000
  820       -1.784146   1.000000
  821       -1.784056   1.000000
  822       -1.783607   1.000000
  823       -1.783350   1.000000
  824       -1.783204   1.000000
  825       -1.783173   1.000000
  826       -1.782928   1.000000
  827       -1.782821   1.000000
  828       -1.781845   1.000000
  829       -1.778621   1.000000
  830       -1.778184   1.000000
  831       -1.777123   1.000000
  832       -1.776979   1.000000
  833       -1.776700   1.000000
  834       -1.776532   1.000000
  835       -1.775454   1.000000
  836       -1.775276   1.000000
  837       -1.775153   1.000000
  838       -1.775073   1.000000
  839       -1.774882   1.000000
  840       -1.774597   1.000000
  841       -1.770138   1.000000
  842       -1.769545   1.000000
  843       -1.769312   1.000000
  844       -1.769150   1.000000
  845       -1.768775   1.000000
  846       -1.767964   1.000000
  847       -1.755628   1.000000
  848       -1.754593   1.000000
  849       -1.754164   1.000000
  850       -1.753993   1.000000
  851       -1.752997   1.000000
  852       -1.742482   1.000000
  853       -1.742058   1.000000
  854       -1.741984   1.000000
  855       -1.738330   1.000000
  856       -1.718855   1.000000
  857       -1.716554   1.000000
  858       -1.713142   1.000000
  859       -1.712520   1.000000
  860       -1.711138   1.000000
  861       -1.707770   1.000000
  862       -1.699148   1.000000
  863       -1.697931   1.000000
  864       -1.697810   1.000000
  865       -1.696438   1.000000
  866       -1.696214   1.000000
  867       -1.696061   1.000000
  868       -1.695881   1.000000
  869       -1.694384   1.000000
  870       -1.688077   1.000000
  871       -1.650985   1.000000
  872       -1.650822   1.000000
  873       -1.648634   1.000000
  874       -1.647827   1.000000
  875       -1.647762   1.000000
  876       -1.647417   1.000000
  877       -1.647250   1.000000
  878       -1.647091   1.000000
  879       -1.647017   1.000000
  880       -1.646741   1.000000
  881       -1.646595   1.000000
  882       -1.646507   1.000000
  883       -1.633337   1.000000
  884       -1.631277   1.000000
  885       -1.630959   1.000000
  886       -1.630875   1.000000
  887       -1.627814   1.000000
  888       -1.610244   1.000000
  889       -1.599906   1.000000
  890       -1.599460   1.000000
  891       -1.598623   1.000000
  892       -1.598430   1.000000
  893       -1.598367   1.000000
  894       -1.598167   1.000000
  895       -1.566996   1.000000
  896       -1.530667   1.000000
  897       -1.529850   1.000000
  898       -1.529720   1.000000
  899       -1.529358   1.000000
  900       -1.528879   1.000000
  901       -1.528872   1.000000