       N       E                     dE             d eps       ncg     rms          rms(c)
DAV:   1     0.182102638983E+05    0.18210E+05   -0.91705E+05 12216   0.112E+03
DAV:   2    -0.168634610556E+03   -0.18379E+05   -0.17390E+05 12876   0.399E+02
DAV:   3    -0.140273300586E+04   -0.12341E+04   -0.10198E+04 13944   0.103E+02
DAV:   4    -0.157101485622E+04   -0.16828E+03   -0.14890E+03 21888   0.380E+01
DAV:   5    -0.157759331371E+04   -0.65785E+01   -0.60782E+01 20256   0.712E+00    0.148E+02
DAV:   6    -0.183364955680E+04   -0.25606E+03   -0.32665E+03 13404   0.140E+02    0.244E+02
DAV:   7    -0.199976769668E+04   -0.16612E+03   -0.13234E+03 13200   0.157E+02    0.241E+02
DAV:   8    -0.378568453534E+04   -0.17859E+04   -0.66491E+02 14886   0.187E+02    0.382E+02
DAV:   9    -0.168354456972E+04    0.21021E+04   -0.49328E+02 15504   0.672E+01    0.196E+02
DAV:  10    -0.142905223022E+04    0.25449E+03   -0.42274E+02 14748   0.678E+01    0.165E+02
DAV:  11    -0.164091358350E+04   -0.21186E+03   -0.39592E+02 13176   0.858E+01    0.249E+02
DAV:  12    -0.139912362572E+04    0.24179E+03   -0.23883E+02 12720   0.452E+01    0.119E+02
DAV:  13    -0.139931594815E+04   -0.19232E+00   -0.97829E+01 13224   0.434E+01    0.144E+02
DAV:  14    -0.134834198594E+04    0.50974E+02   -0.58541E+01 12864   0.312E+01    0.983E+01
DAV:  15    -0.133630740272E+04    0.12035E+02   -0.31615E+01 13296   0.280E+01    0.881E+01
DAV:  16    -0.132610730845E+04    0.10200E+02   -0.28686E+01 13248   0.248E+01    0.700E+01
DAV:  17    -0.131648797292E+04    0.96193E+01   -0.23994E+01 13056   0.236E+01    0.610E+01
DAV:  18    -0.132140940244E+04   -0.49214E+01   -0.15013E+01 13080   0.185E+01    0.777E+01
DAV:  19    -0.131543383604E+04    0.59756E+01   -0.10021E+01 13296   0.147E+01    0.635E+01
DAV:  20    -0.131205251772E+04    0.33813E+01   -0.79648E+00 13536   0.130E+01    0.557E+01
DAV:  21    -0.130860863835E+04    0.34439E+01   -0.58618E+00 13152   0.110E+01    0.470E+01
DAV:  22    -0.130658856960E+04    0.20201E+01   -0.41448E+00 13164   0.924E+00    0.384E+01
DAV:  23    -0.130730792021E+04   -0.71935E+00   -0.39298E+00 13224   0.948E+00    0.412E+01
DAV:  24    -0.130661626011E+04    0.69166E+00   -0.38008E+00 13332   0.927E+00    0.377E+01
DAV:  25    -0.130582733366E+04    0.78893E+00   -0.31639E+00 13440   0.866E+00    0.367E+01
DAV:  26    -0.130461469236E+04    0.12126E+01   -0.23956E+00 13392   0.745E+00    0.322E+01
DAV:  27    -0.130412338864E+04    0.49130E+00   -0.22415E+00 13272   0.661E+00    0.280E+01
DAV:  28    -0.130396699553E+04    0.15639E+00   -0.19733E+00 13296   0.658E+00    0.266E+01
DAV:  29    -0.130459624068E+04   -0.62925E+00   -0.17519E+00 13272   0.640E+00    0.312E+01
DAV:  30    -0.130376616625E+04    0.83007E+00   -0.16205E+00 13380   0.594E+00    0.272E+01
DAV:  31    -0.130288787770E+04    0.87829E+00   -0.12447E+00 13272   0.504E+00    0.229E+01
DAV:  32    -0.130233696181E+04    0.55092E+00   -0.74625E-01 13272   0.379E+00    0.171E+01
DAV:  33    -0.130239629028E+04   -0.59328E-01   -0.67746E-01 13344   0.354E+00    0.162E+01
DAV:  34    -0.130229172887E+04    0.10456E+00   -0.71009E-01 13404   0.370E+00    0.159E+01
DAV:  35    -0.130189415180E+04    0.39758E+00   -0.44403E-01 13536   0.302E+00    0.108E+01
DAV:  36    -0.130182898308E+04    0.65169E-01   -0.18492E-01 13428   0.175E+00    0.102E+01
DAV:  37    -0.130178495488E+04    0.44028E-01   -0.13893E-01 13296   0.139E+00    0.944E+00
DAV:  38    -0.130167738249E+04    0.10757E+00   -0.11016E-01 13290   0.135E+00    0.709E+00
DAV:  39    -0.130159610977E+04    0.81273E-01   -0.65446E-02 13320   0.107E+00    0.512E+00
DAV:  40    -0.130162600425E+04   -0.29894E-01   -0.56612E-02 13386   0.953E-01    0.628E+00
DAV:  41    -0.130164378745E+04   -0.17783E-01   -0.80557E-02 13536   0.108E+00    0.650E+00
DAV:  42    -0.130162476540E+04    0.19022E-01   -0.68965E-02 13608   0.110E+00    0.638E+00
DAV:  43    -0.130161014577E+04    0.14620E-01   -0.35073E-02 13500   0.759E-01    0.604E+00
DAV:  44    -0.130161186866E+04   -0.17229E-02   -0.44759E-02 13440   0.824E-01    0.597E+00
DAV:  45    -0.130159908002E+04    0.12789E-01   -0.57207E-02 13404   0.945E-01    0.564E+00
DAV:  46    -0.130158803973E+04    0.11040E-01   -0.34459E-02 13380   0.716E-01    0.556E+00
DAV:  47    -0.130157996779E+04    0.80719E-02   -0.29708E-02 13368   0.691E-01    0.502E+00
DAV:  48    -0.130156141940E+04    0.18548E-01   -0.31791E-02 13512   0.691E-01    0.423E+00
DAV:  49    -0.130154688069E+04    0.14539E-01   -0.18962E-02 13452   0.463E-01    0.350E+00
DAV:  50    -0.130154263971E+04    0.42410E-02   -0.94827E-03 13344   0.348E-01    0.317E+00
DAV:  51    -0.130154746251E+04   -0.48228E-02   -0.29610E-02 15648   0.702E-01    0.296E+00
DAV:  52    -0.130153304998E+04    0.14413E-01   -0.20333E-02 14004   0.593E-01    0.200E+00
DAV:  53    -0.130153057872E+04    0.24713E-02   -0.14716E-02 14016   0.429E-01    0.176E+00
DAV:  54    -0.130153014712E+04    0.43161E-03   -0.10857E-02 13656   0.380E-01    0.147E+00
DAV:  55    -0.130153164504E+04   -0.14979E-02   -0.78746E-03 13524   0.365E-01    0.145E+00
DAV:  56    -0.130152994626E+04    0.16988E-02   -0.74483E-03 13572   0.425E-01    0.139E+00
DAV:  57    -0.130152681222E+04    0.31340E-02   -0.41166E-03 13488   0.294E-01    0.794E-01
DAV:  58    -0.130152800626E+04   -0.11940E-02   -0.30168E-03 13428   0.263E-01    0.941E-01
DAV:  59    -0.130152673036E+04    0.12759E-02   -0.23020E-03 13404   0.235E-01    0.573E-01
DAV:  60    -0.130152745854E+04   -0.72818E-03   -0.17186E-03 13584   0.182E-01
   1 F= -.13015275E+04 E0= -.13008301E+04  d E =-.139465E+01
