 254 254   0   0
  0.2268316E+02  0.1514622E-08  0.1514622E-08  0.2900000E-08  0.5000000E-15
  1.000000000000000E-004
  CAR 
 NiAl                                    
      5.81451344    -20.05655348  301     -0.61386404      1.00000000
    -20.057  0.0000E+00  0.0000E+00
    -19.970  0.0000E+00  0.0000E+00
    -19.884  0.0000E+00  0.0000E+00
    -19.798  0.0000E+00  0.0000E+00
    -19.712  0.0000E+00  0.0000E+00
    -19.625  0.0000E+00  0.0000E+00
    -19.539  0.0000E+00  0.0000E+00
    -19.453  0.0000E+00  0.0000E+00
    -19.367  0.0000E+00  0.0000E+00
    -19.280  0.0000E+00  0.0000E+00
    -19.194  0.0000E+00  0.0000E+00
    -19.108  0.1459E-08  0.1258E-09
    -19.022  0.7565E-03  0.6524E-04
    -18.935  0.1393E+01  0.1202E+00
    -18.849  0.1744E+02  0.1624E+01
    -18.763  0.4350E+01  0.1999E+01
    -18.677  0.1027E-01  0.2000E+01
    -18.591  0.9549E-07  0.2000E+01
    -18.504  0.2575E-14  0.2000E+01
    -18.418  0.0000E+00  0.2000E+01
    -18.332  0.0000E+00  0.2000E+01
    -18.246  0.0000E+00  0.2000E+01
    -18.159  0.0000E+00  0.2000E+01
    -18.073  0.0000E+00  0.2000E+01
    -17.987  0.0000E+00  0.2000E+01
    -17.901  0.0000E+00  0.2000E+01
    -17.814  0.0000E+00  0.2000E+01
    -17.728  0.0000E+00  0.2000E+01
    -17.642  0.0000E+00  0.2000E+01
    -17.556  0.0000E+00  0.2000E+01
    -17.469  0.0000E+00  0.2000E+01
    -17.383  0.0000E+00  0.2000E+01
    -17.297  0.0000E+00  0.2000E+01
    -17.211  0.0000E+00  0.2000E+01
    -17.124  0.0000E+00  0.2000E+01
    -17.038  0.0000E+00  0.2000E+01
    -16.952  0.0000E+00  0.2000E+01
    -16.866  0.0000E+00  0.2000E+01
    -16.780  0.0000E+00  0.2000E+01
    -16.693  0.0000E+00  0.2000E+01
    -16.607  0.0000E+00  0.2000E+01
    -16.521  0.0000E+00  0.2000E+01
    -16.435  0.0000E+00  0.2000E+01
    -16.348  0.0000E+00  0.2000E+01
    -16.262  0.0000E+00  0.2000E+01
    -16.176  0.0000E+00  0.2000E+01
    -16.090  0.0000E+00  0.2000E+01
    -16.003  0.0000E+00  0.2000E+01
    -15.917  0.0000E+00  0.2000E+01
    -15.831  0.0000E+00  0.2000E+01
    -15.745  0.0000E+00  0.2000E+01
    -15.658  0.0000E+00  0.2000E+01
    -15.572  0.0000E+00  0.2000E+01
    -15.486  0.0000E+00  0.2000E+01
    -15.400  0.0000E+00  0.2000E+01
    -15.314  0.0000E+00  0.2000E+01
    -15.227  0.0000E+00  0.2000E+01
    -15.141  0.0000E+00  0.2000E+01
    -15.055  0.0000E+00  0.2000E+01
    -14.969  0.0000E+00  0.2000E+01
    -14.882  0.0000E+00  0.2000E+01
    -14.796  0.0000E+00  0.2000E+01
    -14.710  0.0000E+00  0.2000E+01
    -14.624  0.0000E+00  0.2000E+01
    -14.537  0.0000E+00  0.2000E+01
    -14.451  0.0000E+00  0.2000E+01
    -14.365  0.0000E+00  0.2000E+01
    -14.279  0.0000E+00  0.2000E+01
    -14.192  0.0000E+00  0.2000E+01
    -14.106  0.0000E+00  0.2000E+01
    -14.020  0.0000E+00  0.2000E+01
    -13.934  0.0000E+00  0.2000E+01
    -13.847  0.0000E+00  0.2000E+01
    -13.761  0.0000E+00  0.2000E+01
    -13.675  0.0000E+00  0.2000E+01
    -13.589  0.0000E+00  0.2000E+01
    -13.503  0.0000E+00  0.2000E+01
    -13.416  0.0000E+00  0.2000E+01
    -13.330  0.0000E+00  0.2000E+01
    -13.244  0.0000E+00  0.2000E+01
    -13.158  0.0000E+00  0.2000E+01
    -13.071  0.0000E+00  0.2000E+01
    -12.985  0.0000E+00  0.2000E+01
    -12.899  0.0000E+00  0.2000E+01
    -12.813  0.0000E+00  0.2000E+01
    -12.726  0.0000E+00  0.2000E+01
    -12.640  0.0000E+00  0.2000E+01
    -12.554  0.0000E+00  0.2000E+01
    -12.468  0.0000E+00  0.2000E+01
    -12.381  0.0000E+00  0.2000E+01
    -12.295  0.0000E+00  0.2000E+01
    -12.209  0.0000E+00  0.2000E+01
    -12.123  0.0000E+00  0.2000E+01
    -12.037  0.0000E+00  0.2000E+01
    -11.950  0.0000E+00  0.2000E+01
    -11.864  0.0000E+00  0.2000E+01
    -11.778  0.0000E+00  0.2000E+01
    -11.692  0.0000E+00  0.2000E+01
    -11.605  0.0000E+00  0.2000E+01
    -11.519  0.0000E+00  0.2000E+01
    -11.433  0.2189E-13  0.2000E+01
    -11.347  0.4217E-06  0.2000E+01
    -11.260  0.2495E-01  0.2002E+01
    -11.174  0.6111E+01  0.2529E+01
    -11.088  0.1624E+02  0.3930E+01
    -11.002  0.8153E+00  0.4000E+01
    -10.915  0.2491E-03  0.4000E+01
    -10.829  0.2622E-09  0.4000E+01
    -10.743  0.0000E+00  0.4000E+01
    -10.657  0.0000E+00  0.4000E+01
    -10.570  0.0000E+00  0.4000E+01
    -10.484  0.0000E+00  0.4000E+01
    -10.398  0.0000E+00  0.4000E+01
    -10.312  0.0000E+00  0.4000E+01
    -10.226  0.0000E+00  0.4000E+01
    -10.139  0.0000E+00  0.4000E+01
    -10.053  0.0000E+00  0.4000E+01
     -9.967  0.0000E+00  0.4000E+01
     -9.881  0.0000E+00  0.4000E+01
     -9.794  0.0000E+00  0.4000E+01
     -9.708  0.0000E+00  0.4000E+01
     -9.622  0.0000E+00  0.4000E+01
     -9.536  0.0000E+00  0.4000E+01
     -9.449  0.0000E+00  0.4000E+01
     -9.363  0.2771E-12  0.4000E+01
     -9.277  0.1596E-05  0.4000E+01
     -9.191  0.2960E-01  0.4003E+01
     -9.104  0.2571E+01  0.4224E+01
     -9.018  0.3137E+01  0.4495E+01
     -8.932  0.1300E+01  0.4607E+01
     -8.846  0.2441E+02  0.6712E+01
     -8.760  0.9101E+01  0.7497E+01
     -8.673  0.4928E-01  0.7501E+01
     -8.587  0.1955E+01  0.7670E+01
     -8.501  0.3958E+01  0.8011E+01
     -8.415  0.1809E+02  0.9571E+01
     -8.328  0.4024E+02  0.1304E+02
     -8.242  0.1396E+02  0.1424E+02
     -8.156  0.2687E+02  0.1656E+02
     -8.070  0.5066E+01  0.1700E+02
     -7.983  0.4439E+00  0.1704E+02
     -7.897  0.1955E+02  0.1872E+02
     -7.811  0.1501E+02  0.2002E+02
     -7.725  0.1011E+02  0.2089E+02
     -7.638  0.2808E+02  0.2331E+02
     -7.552  0.4611E+02  0.2729E+02
     -7.466  0.5872E+02  0.3235E+02
     -7.380  0.1733E+01  0.3250E+02
     -7.293  0.1454E-02  0.3250E+02
     -7.207  0.2210E+01  0.3269E+02
     -7.121  0.4679E+02  0.3673E+02
     -7.035  0.7901E+02  0.4354E+02
     -6.949  0.1853E+02  0.4514E+02
     -6.862  0.2355E+02  0.4717E+02
     -6.776  0.5421E+01  0.4763E+02
     -6.690  0.2529E+02  0.4982E+02
     -6.604  0.2470E+02  0.5195E+02
     -6.517  0.4420E+02  0.5576E+02
     -6.431  0.2705E+02  0.5809E+02
     -6.345  0.8437E+02  0.6537E+02
     -6.259  0.4502E+02  0.6925E+02
     -6.172  0.2205E+02  0.7115E+02
     -6.086  0.4557E+02  0.7508E+02
     -6.000  0.6546E+02  0.8072E+02
     -5.914  0.9081E+02  0.8855E+02
     -5.827  0.2895E+02  0.9105E+02
     -5.741  0.1003E+02  0.9192E+02
     -5.655  0.5264E+01  0.9237E+02
     -5.569  0.3374E+02  0.9528E+02
     -5.483  0.6547E+02  0.1009E+03
     -5.396  0.1520E+03  0.1140E+03
     -5.310  0.6997E+02  0.1201E+03
     -5.224  0.7497E+02  0.1265E+03
     -5.138  0.9255E+02  0.1345E+03
     -5.051  0.1238E+03  0.1452E+03
     -4.965  0.1152E+03  0.1551E+03
     -4.879  0.4379E+02  0.1589E+03
     -4.793  0.1236E+03  0.1696E+03
     -4.706  0.3041E+03  0.1958E+03
     -4.620  0.1308E+03  0.2071E+03
     -4.534  0.2501E+03  0.2286E+03
     -4.448  0.2327E+03  0.2487E+03
     -4.361  0.3270E+03  0.2769E+03
     -4.275  0.2329E+03  0.2970E+03
     -4.189  0.2931E+03  0.3223E+03
     -4.103  0.2277E+03  0.3419E+03
     -4.016  0.4113E+03  0.3774E+03
     -3.930  0.4735E+03  0.4182E+03
     -3.844  0.5175E+03  0.4628E+03
     -3.758  0.4591E+03  0.5024E+03
     -3.672  0.4537E+03  0.5415E+03
     -3.585  0.4575E+03  0.5810E+03
     -3.499  0.3708E+03  0.6130E+03
     -3.413  0.3671E+03  0.6446E+03
     -3.327  0.3407E+03  0.6740E+03
     -3.240  0.4704E+03  0.7146E+03
     -3.154  0.5642E+03  0.7632E+03
     -3.068  0.3673E+03  0.7949E+03
     -2.982  0.4265E+03  0.8317E+03
     -2.895  0.6295E+03  0.8860E+03
     -2.809  0.4915E+03  0.9284E+03
     -2.723  0.5190E+03  0.9731E+03
     -2.637  0.5391E+03  0.1020E+04
     -2.550  0.6494E+03  0.1076E+04
     -2.464  0.6999E+03  0.1136E+04
     -2.378  0.7943E+03  0.1204E+04
     -2.292  0.9240E+03  0.1284E+04
     -2.206  0.8268E+03  0.1355E+04
     -2.119  0.8372E+03  0.1428E+04
     -2.033  0.8906E+03  0.1504E+04
     -1.947  0.6894E+03  0.1564E+04
     -1.861  0.5554E+03  0.1612E+04
     -1.774  0.6131E+03  0.1665E+04
     -1.688  0.5327E+03  0.1711E+04
     -1.602  0.5480E+03  0.1758E+04
     -1.516  0.6490E+03  0.1814E+04
     -1.429  0.8168E+03  0.1884E+04
     -1.343  0.7079E+03  0.1945E+04
     -1.257  0.4395E+03  0.1983E+04
     -1.171  0.6998E+03  0.2044E+04
     -1.084  0.7509E+03  0.2108E+04
     -0.998  0.8694E+03  0.2183E+04
     -0.912  0.7308E+03  0.2246E+04
     -0.826  0.6430E+03  0.2302E+04
     -0.739  0.9033E+03  0.2380E+04
     -0.653  0.1176E+04  0.2481E+04
     -0.567  0.1075E+04  0.2574E+04
     -0.481  0.6307E+03  0.2628E+04
     -0.395  0.3222E+03  0.2656E+04
     -0.308  0.1461E+03  0.2669E+04
     -0.222  0.1217E+03  0.2679E+04
     -0.136  0.1715E+03  0.2694E+04
     -0.050  0.1551E+03  0.2707E+04
      0.037  0.8666E+02  0.2715E+04
      0.123  0.4336E+02  0.2718E+04
      0.209  0.7507E+02  0.2725E+04
      0.295  0.3989E+02  0.2728E+04
      0.382  0.8196E+02  0.2735E+04
      0.468  0.1102E+03  0.2745E+04
      0.554  0.8639E+02  0.2752E+04
      0.640  0.9047E+02  0.2760E+04
      0.727  0.8702E+02  0.2768E+04
      0.813  0.9140E+02  0.2776E+04
      0.899  0.1285E+03  0.2787E+04
      0.985  0.1367E+03  0.2798E+04
      1.071  0.4061E+02  0.2802E+04
      1.158  0.1768E+02  0.2804E+04
      1.244  0.6886E+02  0.2809E+04
      1.330  0.1298E+03  0.2821E+04
      1.416  0.4018E+02  0.2824E+04
      1.503  0.3257E+02  0.2827E+04
      1.589  0.9609E+02  0.2835E+04
      1.675  0.9890E+02  0.2844E+04
      1.761  0.8461E+02  0.2851E+04
      1.848  0.7750E+02  0.2858E+04
      1.934  0.1001E+03  0.2866E+04
      2.020  0.6841E+02  0.2872E+04
      2.106  0.4645E+02  0.2876E+04
      2.193  0.8342E+02  0.2883E+04
      2.279  0.1029E+03  0.2892E+04
      2.365  0.1060E+03  0.2901E+04
      2.451  0.3931E+02  0.2905E+04
      2.538  0.4861E+02  0.2909E+04
      2.624  0.6709E+02  0.2915E+04
      2.710  0.2619E+02  0.2917E+04
      2.796  0.1144E+02  0.2918E+04
      2.882  0.4818E+02  0.2922E+04
      2.969  0.7751E+02  0.2929E+04
      3.055  0.2140E+03  0.2947E+04
      3.141  0.1468E+03  0.2960E+04
      3.227  0.4564E+02  0.2964E+04
      3.314  0.3505E+02  0.2967E+04
      3.400  0.2495E+02  0.2969E+04
      3.486  0.1105E+03  0.2979E+04
      3.572  0.4665E+02  0.2983E+04
      3.659  0.3503E+02  0.2986E+04
      3.745  0.8188E+02  0.2993E+04
      3.831  0.1678E+02  0.2994E+04
      3.917  0.2983E+02  0.2997E+04
      4.004  0.2336E+02  0.2999E+04
      4.090  0.1903E+02  0.3000E+04
      4.176  0.8822E+02  0.3008E+04
      4.262  0.4424E+02  0.3012E+04
      4.348  0.4667E+02  0.3016E+04
      4.435  0.9490E+02  0.3024E+04
      4.521  0.6362E+02  0.3030E+04
      4.607  0.3640E+02  0.3033E+04
      4.693  0.3723E+02  0.3036E+04
      4.780  0.1248E+01  0.3036E+04
      4.866  0.4582E-03  0.3036E+04
      4.952  0.7694E-09  0.3036E+04
      5.038  0.0000E+00  0.3036E+04
      5.125  0.0000E+00  0.3036E+04
      5.211  0.0000E+00  0.3036E+04
      5.297  0.0000E+00  0.3036E+04
      5.383  0.0000E+00  0.3036E+04
      5.470  0.0000E+00  0.3036E+04
      5.556  0.0000E+00  0.3036E+04
      5.642  0.0000E+00  0.3036E+04
      5.728  0.0000E+00  0.3036E+04
      5.815  0.0000E+00  0.3036E+04
