  254  254    1    1
  0.2268316E+02  0.1514622E-08  0.1514622E-08  0.2900000E-08  0.5000000E-15
  1.000000000000000E-004
  CAR 
 NiAl                                    
   2530      4   1518
 
  0.0000000E+00  0.0000000E+00  0.0000000E+00  0.2500000E+00
    1      -18.880472   1.000000
    2      -11.151801   1.000000
    3       -9.099891   1.000000
    4       -8.572401   1.000000
    5       -8.196575   1.000000
    6       -8.192915   1.000000
    7       -8.192666   1.000000
    8       -8.192604   1.000000
    9       -8.192420   1.000000
   10       -8.191857   1.000000
   11       -7.756168   1.000000
   12       -7.702300   1.000000
   13       -7.687842   1.000000
   14       -7.686765   1.000000
   15       -7.686604   1.000000
   16       -7.686578   1.000000
   17       -7.685020   1.000000
   18       -6.979958   1.000000
   19       -6.905333   1.000000
   20       -6.901413   1.000000
   21       -6.901276   1.000000
   22       -6.901220   1.000000
   23       -6.899205   1.000000
   24       -6.741520   1.000000
   25       -6.561462   1.000000
   26       -6.558379   1.000000
   27       -6.557073   1.000000
   28       -6.556923   1.000000
   29       -6.556869   1.000000
   30       -6.556751   1.000000
   31       -6.264331   1.000000
   32       -6.142638   1.000000
   33       -6.137312   1.000000
   34       -6.136561   1.000000
   35       -6.136411   1.000000
   36       -6.135959   1.000000
   37       -6.108978   1.000000
   38       -5.949133   1.000000
   39       -5.936770   1.000000
   40       -5.936062   1.000000
   41       -5.935930   1.000000
   42       -5.935892   1.000000
   43       -5.935811   1.000000
   44       -5.935756   1.000000
   45       -5.935350   1.000000
   46       -5.935219   1.000000
   47       -5.935192   1.000000
   48       -5.932511   1.000000
   49       -5.775968   1.000000
   50       -5.633563   1.000000
   51       -5.616002   1.000000
   52       -5.606610   1.000000
   53       -5.604225   1.000000
   54       -5.604193   1.000000
   55       -5.604117   1.000000
   56       -5.583826   1.000000
   57       -5.531236   1.000000
   58       -5.512948   1.000000
   59       -5.509777   1.000000
   60       -5.509441   1.000000
   61       -5.509052   1.000000
   62       -5.444369   1.000000
   63       -5.226949   1.000000
   64       -5.175252   1.000000
   65       -5.157013   1.000000
   66       -5.156936   1.000000
   67       -5.156787   1.000000
   68       -5.152876   1.000000
   69       -5.091925   1.000000
   70       -5.066200   1.000000
   71       -5.017357   1.000000
   72       -4.999472   1.000000
   73       -4.999307   1.000000
   74       -4.997585   1.000000
   75       -4.988919   1.000000
   76       -4.952468   1.000000
   77       -4.917827   1.000000
   78       -4.876246   1.000000
   79       -4.827011   1.000000
   80       -4.826124   1.000000
   81       -4.825859   1.000000
   82       -4.787914   1.000000
   83       -4.787368   1.000000
   84       -4.787051   1.000000
   85       -4.780990   1.000000
   86       -4.759880   1.000000
   87       -4.747086   1.000000
   88       -4.704784   1.000000
   89       -4.704402   1.000000
   90       -4.704166   1.000000
   91       -4.698150   1.000000
   92       -4.687113   1.000000
   93       -4.686588   1.000000
   94       -4.686056   1.000000
   95       -4.675849   1.000000
   96       -4.674809   1.000000
   97       -4.593782   1.000000
   98       -4.593512   1.000000
   99       -4.593417   1.000000
  100       -4.593208   1.000000
  101       -4.593055   1.000000
  102       -4.592968   1.000000
  103       -4.592939   1.000000
  104       -4.592868   1.000000
  105       -4.592773   1.000000
  106       -4.592575   1.000000
  107       -4.591168   1.000000
  108       -4.590291   1.000000
  109       -4.550847   1.000000
  110       -4.549007   1.000000
  111       -4.548331   1.000000
  112       -4.480805   1.000000
  113       -4.479444   1.000000
  114       -4.479380   1.000000
  115       -4.445535   1.000000
  116       -4.445306   1.000000
  117       -4.445115   1.000000
  118       -4.444652   1.000000
  119       -4.438601   1.000000
  120       -4.400026   1.000000
  121       -4.390647   1.000000
  122       -4.390272   1.000000
  123       -4.389681   1.000000
  124       -4.389590   1.000000
  125       -4.389435   1.000000
  126       -4.389382   1.000000
  127       -4.389206   1.000000
  128       -4.389134   1.000000
  129       -4.389021   1.000000
  130       -4.388194   1.000000
  131       -4.387667   1.000000
  132       -4.387476   1.000000
  133       -4.379672   1.000000
  134       -4.379513   1.000000
  135       -4.379112   1.000000
  136       -4.378769   1.000000
  137       -4.378713   1.000000
  138       -4.378666   1.000000
  139       -4.378378   1.000000
  140       -4.378318   1.000000
  141       -4.378008   1.000000
  142       -4.377736   1.000000
  143       -4.376651   1.000000
  144       -4.376230   1.000000
  145       -4.332405   1.000000
  146       -4.332316   1.000000
  147       -4.332028   1.000000
  148       -4.331726   1.000000
  149       -4.330609   1.000000
  150       -4.312854   1.000000
  151       -4.298315   1.000000
  152       -4.296645   1.000000
  153       -4.296329   1.000000
  154       -4.293758   1.000000
  155       -4.286162   1.000000
  156       -4.278464   1.000000
  157       -4.276291   1.000000
  158       -4.275730   1.000000
  159       -4.262338   1.000000
  160       -4.239472   1.000000
  161       -4.239389   1.000000
  162       -4.239169   1.000000
  163       -4.238208   1.000000
  164       -4.237857   1.000000
  165       -4.237494   1.000000
  166       -4.237139   1.000000
  167       -4.237052   1.000000
  168       -4.236894   1.000000
  169       -4.235956   1.000000
  170       -4.233256   1.000000
  171       -4.231611   1.000000
  172       -4.175072   1.000000
  173       -4.175019   1.000000
  174       -4.174843   1.000000
  175       -4.146484   1.000000
  176       -4.146182   1.000000
  177       -4.145848   1.000000
  178       -4.144636   1.000000
  179       -4.137000   1.000000
  180       -4.117719   1.000000
  181       -4.074240   1.000000
  182       -4.062695   1.000000
  183       -4.062439   1.000000
  184       -4.043324   1.000000
  185       -4.042141   1.000000
  186       -4.041193   1.000000
  187       -4.040583   1.000000
  188       -4.040374   1.000000
  189       -4.039957   1.000000
  190       -4.039614   1.000000
  191       -4.039605   1.000000
  192       -4.039461   1.000000
  193       -4.038290   1.000000
  194       -4.032845   1.000000
  195       -4.029233   1.000000
  196       -4.005379   1.000000
  197       -4.004308   1.000000
  198       -4.003380   1.000000
  199       -3.949945   1.000000
  200       -3.942049   1.000000
  201       -3.941435   1.000000
  202       -3.940709   1.000000
  203       -3.940634   1.000000
  204       -3.940278   1.000000
  205       -3.939382   1.000000
  206       -3.932236   1.000000
  207       -3.929182   1.000000
  208       -3.896122   1.000000
  209       -3.895755   1.000000
  210       -3.895456   1.000000
  211       -3.895352   1.000000
  212       -3.895299   1.000000
  213       -3.895058   1.000000
  214       -3.894970   1.000000
  215       -3.894850   1.000000
  216       -3.894782   1.000000
  217       -3.894621   1.000000
  218       -3.894561   1.000000
  219       -3.894534   1.000000
  220       -3.885572   1.000000
  221       -3.883942   1.000000
  222       -3.883835   1.000000
  223       -3.883360   1.000000
  224       -3.882825   1.000000
  225       -3.879294   1.000000
  226       -3.806426   1.000000
  227       -3.802317   1.000000
  228       -3.801155   1.000000
  229       -3.801113   1.000000
  230       -3.800583   1.000000
  231       -3.800382   1.000000
  232       -3.800184   1.000000
  233       -3.800086   1.000000
  234       -3.800069   1.000000
  235       -3.798703   1.000000
  236       -3.795118   1.000000
  237       -3.791840   1.000000
  238       -3.769378   1.000000
  239       -3.769211   1.000000
  240       -3.768571   1.000000
  241       -3.768353   1.000000
  242       -3.766355   1.000000
  243       -3.761898   1.000000
  244       -3.753389   1.000000
  245       -3.753330   1.000000
  246       -3.753240   1.000000
  247       -3.753108   1.000000
  248       -3.749004   1.000000
  249       -3.748862   1.000000
  250       -3.748792   1.000000
  251       -3.748454   1.000000
  252       -3.745269   1.000000
  253       -3.743780   1.000000
  254       -3.743129   1.000000
  255       -3.742858   1.000000
  256       -3.706529   1.000000
  257       -3.705693   1.000000
  258       -3.703689   1.000000
  259       -3.703115   1.000000
  260       -3.702922   1.000000
  261       -3.702863   1.000000
  262       -3.702673   1.000000
  263       -3.702633   1.000000
  264       -3.702567   1.000000
  265       -3.702453   1.000000
  266       -3.702320   1.000000
  267       -3.701898   1.000000
  268       -3.694524   1.000000
  269       -3.694183   1.000000
  270       -3.692916   1.000000
  271       -3.648006   1.000000
  272       -3.646052   1.000000
  273       -3.644990   1.000000
  274       -3.643996   1.000000
  275       -3.643669   1.000000
  276       -3.641193   1.000000
  277       -3.637345   1.000000
  278       -3.636889   1.000000
  279       -3.636844   1.000000
  280       -3.636723   1.000000
  281       -3.616713   1.000000
  282       -3.616518   1.000000
  283       -3.601250   1.000000
  284       -3.601202   1.000000
  285       -3.601002   1.000000
  286       -3.600570   1.000000
  287       -3.600340   1.000000
  288       -3.596306   1.000000
  289       -3.590577   1.000000
  290       -3.590485   1.000000
  291       -3.590207   1.000000
  292       -3.590006   1.000000
  293       -3.584911   1.000000
  294       -3.584709   1.000000
  295       -3.523870   1.000000
  296       -3.522474   1.000000
  297       -3.519605   1.000000
  298       -3.519462   1.000000
  299       -3.518782   1.000000
  300       -3.514556   1.000000
  301       -3.514112   1.000000
  302       -3.514015   1.000000
  303       -3.513762   1.000000
  304       -3.513650   1.000000
  305       -3.513540   1.000000
  306       -3.513375   1.000000
  307       -3.513219   1.000000
  308       -3.511745   1.000000
  309       -3.509301   1.000000
  310       -3.507244   1.000000
  311       -3.467348   1.000000
  312       -3.467228   1.000000
  313       -3.466879   1.000000
  314       -3.466645   1.000000
  315       -3.466476   1.000000
  316       -3.466412   1.000000
  317       -3.443515   1.000000
  318       -3.435293   1.000000
  319       -3.432503   1.000000
  320       -3.431862   1.000000
  321       -3.431747   1.000000
  322       -3.430974   1.000000
  323       -3.430814   1.000000
  324       -3.430466   1.000000
  325       -3.430299   1.000000
  326       -3.429017   1.000000
  327       -3.428022   1.000000
  328       -3.427927   1.000000
  329       -3.427666   1.000000
  330       -3.427556   1.000000
  331       -3.427467   1.000000
  332       -3.427295   1.000000
  333       -3.427221   1.000000
  334       -3.426434   1.000000
  335       -3.413698   1.000000
  336       -3.412865   1.000000
  337       -3.412566   1.000000
  338       -3.411767   1.000000
  339       -3.411164   1.000000
  340       -3.404627   1.000000
  341       -3.319645   1.000000
  342       -3.319516   1.000000
  343       -3.314261   1.000000
  344       -3.295547   1.000000
  345       -3.293174   1.000000
  346       -3.292293   1.000000
  347       -3.291471   1.000000
  348       -3.291323   1.000000
  349       -3.290863   1.000000
  350       -3.251833   1.000000
  351       -3.251151   1.000000
  352       -3.250618   1.000000
  353       -3.241966   1.000000
  354       -3.241517   1.000000
  355       -3.239884   1.000000
  356       -3.238566   1.000000
  357       -3.238228   1.000000
  358       -3.237330   1.000000
  359       -3.237240   1.000000
  360       -3.236893   1.000000
  361       -3.236504   1.000000
  362       -3.235824   1.000000
  363       -3.231750   1.000000
  364       -3.210173   1.000000
  365       -3.209758   1.000000
  366       -3.176768   1.000000
  367       -3.176605   1.000000
  368       -3.175966   1.000000
  369       -3.173724   1.000000
  370       -3.171909   1.000000
  371       -3.169854   1.000000
  372       -3.169015   1.000000
  373       -3.168091   1.000000
  374       -3.167854   1.000000
  375       -3.167205   1.000000
  376       -3.167056   1.000000
  377       -3.165823   1.000000
  378       -3.164511   1.000000
  379       -3.164211   1.000000
  380       -3.163700   1.000000
  381       -3.163643   1.000000
  382       -3.163367   1.000000
  383       -3.163223   1.000000
  384       -3.105220   1.000000
  385       -3.104946   1.000000
  386       -3.098086   1.000000
  387       -3.097411   1.000000
  388       -3.097053   1.000000
  389       -3.097001   1.000000
  390       -3.096687   1.000000
  391       -3.096617   1.000000
  392       -3.096437   1.000000
  393       -3.096395   1.000000
  394       -3.094633   1.000000
  395       -3.093659   1.000000
  396       -3.062620   1.000000
  397       -3.060860   1.000000
  398       -3.060465   1.000000
  399       -3.060368   1.000000
  400       -3.059926   1.000000
  401       -3.059751   1.000000
  402       -2.991502   1.000000
  403       -2.988835   1.000000
  404       -2.988465   1.000000
  405       -2.988332   1.000000
  406       -2.988081   1.000000
  407       -2.987953   1.000000
  408       -2.979399   1.000000
  409       -2.979037   1.000000
  410       -2.976183   1.000000
  411       -2.976049   1.000000
  412       -2.973490   1.000000
  413       -2.967518   1.000000
  414       -2.960824   1.000000
  415       -2.960697   1.000000
  416       -2.960563   1.000000
  417       -2.960494   1.000000
  418       -2.960473   1.000000
  419       -2.958837   1.000000
  420       -2.942270   1.000000
  421       -2.941497   1.000000
  422       -2.937840   1.000000
  423       -2.937530   1.000000
  424       -2.937006   1.000000
  425       -2.934295   1.000000
  426       -2.923653   1.000000
  427       -2.923326   1.000000
  428       -2.916484   1.000000
  429       -2.916307   1.000000
  430       -2.916181   1.000000
  431       -2.916164   1.000000
  432       -2.915984   1.000000
  433       -2.915645   1.000000
  434       -2.915503   1.000000
  435       -2.915297   1.000000
  436       -2.915012   1.000000
  437       -2.914580   1.000000
  438       -2.914500   1.000000
  439       -2.914336   1.000000
  440       -2.913145   1.000000
  441       -2.912747   1.000000
  442       -2.910467   1.000000
  443       -2.901117   1.000000
  444       -2.858634   1.000000
  445       -2.857907   1.000000
  446       -2.854367   1.000000
  447       -2.851011   1.000000
  448       -2.849853   1.000000
  449       -2.849806   1.000000
  450       -2.849214   1.000000
  451       -2.848836   1.000000
  452       -2.847275   1.000000
  453       -2.844462   1.000000
  454       -2.843863   1.000000
  455       -2.843591   1.000000
  456       -2.843319   1.000000
  457       -2.843193   1.000000
  458       -2.843090   1.000000
  459       -2.842765   1.000000
  460       -2.842542   1.000000
  461       -2.842310   1.000000
  462       -2.842221   1.000000
  463       -2.841233   1.000000
  464       -2.840560   1.000000
  465       -2.793295   1.000000
  466       -2.792836   1.000000
  467       -2.792373   1.000000
  468       -2.792216   1.000000
  469       -2.765826   1.000000
  470       -2.761621   1.000000
  471       -2.758852   1.000000
  472       -2.758831   1.000000
  473       -2.758543   1.000000
  474       -2.758340   1.000000
  475       -2.757720   1.000000
  476       -2.757081   1.000000
  477       -2.756501   1.000000
  478       -2.756023   1.000000
  479       -2.755413   1.000000
  480       -2.754416   1.000000
  481       -2.754085   1.000000
  482       -2.753336   1.000000
  483       -2.752237   1.000000
  484       -2.751480   1.000000
  485       -2.751092   1.000000
  486       -2.750241   1.000000
  487       -2.740204   1.000000
  488       -2.738695   1.000000
  489       -2.737653   1.000000
  490       -2.735763   1.000000
  491       -2.735422   1.000000
  492       -2.735338   1.000000
  493       -2.735275   1.000000
  494       -2.735172   1.000000
  495       -2.735011   1.000000
  496       -2.734831   1.000000
  497       -2.734406   1.000000
  498       -2.734165   1.000000
  499       -2.727770   1.000000
  500       -2.727677   1.000000
  501       -2.700411   1.000000
  502       -2.699581   1.000000
  503       -2.699357   1.000000
  504       -2.699223   1.000000
  505       -2.698793   1.000000
  506       -2.693079   1.000000
  507       -2.668095   1.000000
  508       -2.667899   1.000000
  509       -2.665267   1.000000
  510       -2.665188   1.000000
  511       -2.664767   1.000000
  512       -2.664356   1.000000
  513       -2.660593   1.000000
  514       -2.641458   1.000000
  515       -2.636748   1.000000
  516       -2.633059   1.000000
  517       -2.632851   1.000000
  518       -2.631403   1.000000
  519       -2.631319   1.000000
  520       -2.627502   1.000000
  521       -2.626082   1.000000
  522       -2.623960   1.000000
  523       -2.622008   1.000000
  524       -2.619954   1.000000
  525       -2.589939   1.000000
  526       -2.586644   1.000000
  527       -2.574467   1.000000
  528       -2.573960   1.000000
  529       -2.573807   1.000000
  530       -2.573603   1.000000
  531       -2.573416   1.000000
  532       -2.573282   1.000000
  533       -2.573151   1.000000
  534       -2.572926   1.000000
  535       -2.572684   1.000000
  536       -2.572015   1.000000
  537       -2.569408   1.000000
  538       -2.567146   1.000000
  539       -2.563980   1.000000
  540       -2.562892   1.000000
  541       -2.561583   1.000000
  542       -2.560841   1.000000
  543       -2.560715   1.000000
  544       -2.560556   1.000000
  545       -2.549294   1.000000
  546       -2.536129   1.000000
  547       -2.536057   1.000000
  548       -2.535976   1.000000
  549       -2.526900   1.000000
  550       -2.526388   1.000000
  551       -2.525597   1.000000
  552       -2.525238   1.000000
  553       -2.524964   1.000000
  554       -2.520047   1.000000
  555       -2.513719   1.000000
  556       -2.513001   1.000000
  557       -2.507581   1.000000
  558       -2.507396   1.000000
  559       -2.506334   1.000000
  560       -2.497755   1.000000
  561       -2.497583   1.000000
  562       -2.497130   1.000000
  563       -2.496925   1.000000
  564       -2.496822   1.000000
  565       -2.496271   1.000000
  566       -2.496102   1.000000
  567       -2.495989   1.000000
  568       -2.495906   1.000000
  569       -2.495096   1.000000
  570       -2.494804   1.000000
  571       -2.493102   1.000000
  572       -2.492343   1.000000
  573       -2.492129   1.000000
  574       -2.478927   1.000000
  575       -2.471557   1.000000
  576       -2.471431   1.000000
  577       -2.458155   1.000000
  578       -2.455653   1.000000
  579       -2.452972   1.000000
  580       -2.452705   1.000000
  581       -2.452372   1.000000
  582       -2.451202   1.000000
  583       -2.450300   1.000000
  584       -2.450130   1.000000
  585       -2.449831   1.000000
  586       -2.449327   1.000000
  587       -2.448460   1.000000
  588       -2.438986   1.000000
  589       -2.427250   1.000000
  590       -2.426782   1.000000
  591       -2.424871   1.000000
  592       -2.424612   1.000000
  593       -2.424525   1.000000
  594       -2.421204   1.000000
  595       -2.412202   1.000000
  596       -2.408869   1.000000
  597       -2.408043   1.000000
  598       -2.406237   1.000000
  599       -2.406228   1.000000
  600       -2.405698   1.000000
  601       -2.405635   1.000000
  602       -2.405592   1.000000
  603       -2.405432   1.000000
  604       -2.401790   1.000000
  605       -2.401574   1.000000
  606       -2.401332   1.000000
  607       -2.401255   1.000000
  608       -2.401150   1.000000
  609       -2.400937   1.000000
  610       -2.400671   1.000000
  611       -2.395265   1.000000
  612       -2.395069   1.000000
  613       -2.351368   1.000000
  614       -2.350711   1.000000
  615       -2.344429   1.000000
  616       -2.337556   1.000000
  617       -2.336296   1.000000
  618       -2.336240   1.000000
  619       -2.335032   1.000000
  620       -2.330247   1.000000
  621       -2.329944   1.000000
  622       -2.329023   1.000000
  623       -2.328873   1.000000
  624       -2.328782   1.000000
  625       -2.311795   1.000000
  626       -2.308862   1.000000
  627       -2.304240   1.000000
  628       -2.303740   1.000000
  629       -2.303719   1.000000
  630       -2.303451   1.000000
  631       -2.302334   1.000000
  632       -2.302052   1.000000
  633       -2.301984   1.000000
  634       -2.301700   1.000000
  635       -2.301662   1.000000
  636       -2.301337   1.000000
  637       -2.298679   1.000000
  638       -2.297977   1.000000
  639       -2.282177   1.000000
  640       -2.281838   1.000000
  641       -2.281140   1.000000
  642       -2.276177   1.000000
  643       -2.273526   1.000000
  644       -2.270232   1.000000
  645       -2.269609   1.000000
  646       -2.267745   1.000000
  647       -2.251393   1.000000
  648       -2.250334   1.000000
  649       -2.249646   1.000000
  650       -2.248507   1.000000
  651       -2.247729   1.000000
  652       -2.247625   1.000000
  653       -2.247432   1.000000
  654       -2.247381   1.000000
  655       -2.247110   1.000000
  656       -2.246658   1.000000
  657       -2.243798   1.000000
  658       -2.240063   1.000000
  659       -2.239686   1.000000
  660       -2.238849   1.000000
  661       -2.237822   1.000000
  662       -2.235927   1.000000
  663       -2.235680   1.000000
  664       -2.235527   1.000000
  665       -2.234497   1.000000
  666       -2.234170   1.000000
  667       -2.233915   1.000000
  668       -2.233486   1.000000
  669       -2.232275   1.000000
  670       -2.229989   1.000000
  671       -2.228977   1.000000
  672       -2.228908   1.000000
  673       -2.197001   1.000000
  674       -2.196756   1.000000
  675       -2.195398   1.000000
  676       -2.194773   1.000000
  677       -2.193415   1.000000
  678       -2.192232   1.000000
  679       -2.187718   1.000000
  680       -2.184097   1.000000
  681       -2.183841   1.000000
  682       -2.183627   1.000000
  683       -2.183171   1.000000
  684       -2.182909   1.000000
  685       -2.177936   1.000000
  686       -2.175880   1.000000
  687       -2.162362   1.000000
  688       -2.143310   1.000000
  689       -2.142854   1.000000
  690       -2.142354   1.000000
  691       -2.141153   1.000000
  692       -2.140110   1.000000
  693       -2.139970   1.000000
  694       -2.139782   1.000000
  695       -2.139725   1.000000
  696       -2.138919   1.000000
  697       -2.138372   1.000000
  698       -2.138005   1.000000
  699       -2.134589   1.000000
  700       -2.133559   1.000000
  701       -2.133095   1.000000
  702       -2.131768   1.000000
  703       -2.131108   1.000000
  704       -2.130876   1.000000
  705       -2.130551   1.000000
  706       -2.130268   1.000000
  707       -2.130137   1.000000
  708       -2.129973   1.000000
  709       -2.129320   1.000000
  710       -2.129052   1.000000
  711       -2.128628   1.000000
  712       -2.128567   1.000000
  713       -2.128259   1.000000
  714       -2.128238   1.000000
  715       -2.128112   1.000000
  716       -2.127504   1.000000
  717       -2.127321   1.000000
  718       -2.110479   1.000000
  719       -2.110351   1.000000
  720       -2.110267   1.000000
  721       -2.110017   1.000000
  722       -2.109802   1.000000
  723       -2.109532   1.000000
  724       -2.075572   1.000000
  725       -2.071944   1.000000
  726       -2.055027   1.000000
  727       -2.053229   1.000000
  728       -2.052374   1.000000
  729       -2.052175   1.000000
  730       -2.051970   1.000000
  731       -2.051009   1.000000
  732       -2.049693   1.000000
  733       -2.049653   1.000000
  734       -2.049548   1.000000
  735       -2.049322   1.000000
  736       -2.049105   1.000000
  737       -2.048909   1.000000
  738       -2.048739   1.000000
  739       -2.048308   1.000000
  740       -2.045288   1.000000
  741       -2.032734   1.000000
  742       -2.016067   1.000000
  743       -2.015322   1.000000
  744       -2.014035   1.000000
  745       -2.013799   1.000000
  746       -2.013582   1.000000
  747       -2.013221   1.000000
  748       -2.010246   1.000000
  749       -2.009406   1.000000
  750       -2.009205   1.000000
  751       -2.008469   1.000000
  752       -2.007906   1.000000
  753       -2.003017   1.000000
  754       -1.978999   1.000000
  755       -1.977705   1.000000
  756       -1.960110   1.000000
  757       -1.958220   1.000000
  758       -1.957608   1.000000
  759       -1.957381   1.000000
  760       -1.955133   1.000000
  761       -1.954541   1.000000
  762       -1.953341   1.000000
  763       -1.952566   1.000000
  764       -1.951896   1.000000
  765       -1.950883   1.000000
  766       -1.950800   1.000000
  767       -1.950416   1.000000
  768       -1.950234   1.000000
  769       -1.950132   1.000000
  770       -1.949977   1.000000
  771       -1.949519   1.000000
  772       -1.949473   1.000000
  773       -1.949425   1.000000
  774       -1.948735   1.000000
  775       -1.948644   1.000000
  776       -1.948293   1.000000
  777       -1.937535   1.000000
  778       -1.922745   1.000000
  779       -1.921364   1.000000
  780       -1.920713   1.000000
  781       -1.914150   1.000000
  782       -1.913920   1.000000
  783       -1.913071   1.000000
  784       -1.912704   1.000000
  785       -1.912420   1.000000
  786       -1.912238   1.000000
  787       -1.897280   1.000000
  788       -1.894839   1.000000
  789       -1.893153   1.000000
  790       -1.892460   1.000000
  791       -1.891769   1.000000
  792       -1.891544   1.000000
  793       -1.886720   1.000000
  794       -1.884520   1.000000
  795       -1.871647   1.000000
  796       -1.870541   1.000000
  797       -1.869995   1.000000
  798       -1.869230   1.000000
  799       -1.868043   1.000000
  800       -1.867470   1.000000
  801       -1.859773   1.000000
  802       -1.857571   1.000000
  803       -1.856596   1.000000
  804       -1.846466   1.000000
  805       -1.843705   1.000000
  806       -1.842405   1.000000
  807       -1.836125   1.000000
  808       -1.831721   1.000000
  809       -1.831500   1.000000
  810       -1.830600   1.000000
  811       -1.830554   1.000000
  812       -1.830094   1.000000
  813       -1.829474   1.000000
  814       -1.829331   1.000000
  815       -1.826952   1.000000
  816       -1.819650   1.000000
  817       -1.802374   1.000000
  818       -1.801443   1.000000
  819       -1.795145   1.000000
  820       -1.794120   1.000000
  821       -1.792262   1.000000
  822       -1.791009   1.000000
  823       -1.790890   1.000000
  824       -1.789525   1.000000
  825       -1.789373   1.000000
  826       -1.788839   1.000000
  827       -1.788450   1.000000
  828       -1.787145   1.000000
  829       -1.786179   1.000000
  830       -1.785740   1.000000
  831       -1.783376   1.000000
  832       -1.783030   1.000000
  833       -1.782768   1.000000
  834       -1.782349   1.000000
  835       -1.781971   1.000000
  836       -1.781637   1.000000
  837       -1.781406   1.000000
  838       -1.781104   1.000000
  839       -1.781049   1.000000
  840       -1.780897   1.000000
  841       -1.776165   1.000000
  842       -1.775335   1.000000
  843       -1.774930   1.000000
  844       -1.774597   1.000000
  845       -1.773935   1.000000
  846       -1.772182   1.000000
  847       -1.763309   1.000000
  848       -1.763024   1.000000
  849       -1.760445   1.000000
  850       -1.759857   1.000000
  851       -1.759819   1.000000
  852       -1.749193   1.000000
  853       -1.748763   1.000000
  854       -1.747365   1.000000
  855       -1.740781   1.000000
  856       -1.728698   1.000000
  857       -1.727811   1.000000
  858       -1.722662   1.000000
  859       -1.720328   1.000000
  860       -1.719383   1.000000
  861       -1.716979   1.000000
  862       -1.706102   1.000000
  863       -1.703501   1.000000
  864       -1.703088   1.000000
  865       -1.701770   1.000000
  866       -1.701541   1.000000
  867       -1.701426   1.000000
  868       -1.701252   1.000000
  869       -1.696139   1.000000
  870       -1.681863   1.000000
  871       -1.663982   1.000000
  872       -1.660334   1.000000
  873       -1.658949   1.000000
  874       -1.655785   1.000000
  875       -1.655233   1.000000
  876       -1.653805   1.000000
  877       -1.653690   1.000000
  878       -1.653176   1.000000
  879       -1.652952   1.000000
  880       -1.652164   1.000000
  881       -1.651980   1.000000
  882       -1.650791   1.000000
  883       -1.640750   1.000000
  884       -1.638709   1.000000
  885       -1.636771   1.000000
  886       -1.636278   1.000000
  887       -1.633278   1.000000
  888       -1.612933   1.000000
  889       -1.608710   1.000000
  890       -1.607847   1.000000
  891       -1.604638   1.000000
  892       -1.604376   1.000000
  893       -1.604052   1.000000
  894       -1.603952   1.000000
  895       -1.558938   1.000000
  896       -1.540978   1.000000
  897       -1.537276   1.000000
  898       -1.536758   1.000000
  899       -1.535645   1.000000
  900       -1.534574   1.000000
  901       -1.534170   1.000000