       N       E                     dE             d eps       ncg     rms          rms(c)
DAV:   1     0.182197560949E+05    0.18220E+05   -0.91720E+05 12216   0.112E+03
DAV:   2    -0.163097459127E+03   -0.18383E+05   -0.17398E+05 12828   0.399E+02
DAV:   3    -0.140156278390E+04   -0.12385E+04   -0.10213E+04 13944   0.103E+02
DAV:   4    -0.157230506271E+04   -0.17074E+03   -0.15079E+03 22056   0.381E+01
DAV:   5    -0.157896676188E+04   -0.66617E+01   -0.62415E+01 20316   0.723E+00    0.147E+02
DAV:   6    -0.184310095914E+04   -0.26413E+03   -0.32328E+03 13512   0.142E+02    0.247E+02
DAV:   7    -0.193557038274E+04   -0.92469E+02   -0.13228E+03 13128   0.155E+02    0.208E+02
DAV:   8    -0.263315455298E+04   -0.69758E+03   -0.47861E+02 14088   0.149E+02    0.316E+02
DAV:   9    -0.161994058816E+04    0.10132E+04   -0.29476E+02 14220   0.833E+01    0.217E+02
DAV:  10    -0.142831629181E+04    0.19162E+03   -0.35636E+02 14148   0.601E+01    0.138E+02
DAV:  11    -0.150841732891E+04   -0.80101E+02   -0.34496E+02 13872   0.924E+01    0.173E+02
DAV:  12    -0.153211545303E+04   -0.23698E+02   -0.25062E+02 13056   0.720E+01    0.168E+02
DAV:  13    -0.142752553285E+04    0.10459E+03   -0.14624E+02 12984   0.549E+01    0.136E+02
DAV:  14    -0.136258734273E+04    0.64938E+02   -0.81116E+01 12840   0.409E+01    0.119E+02
DAV:  15    -0.137213657899E+04   -0.95492E+01   -0.56360E+01 13080   0.366E+01    0.139E+02
DAV:  16    -0.134874921427E+04    0.23387E+02   -0.45412E+01 12864   0.279E+01    0.105E+02
DAV:  17    -0.134039924264E+04    0.83500E+01   -0.37471E+01 12840   0.284E+01    0.952E+01
DAV:  18    -0.134282802059E+04   -0.24288E+01   -0.27855E+01 12960   0.247E+01    0.106E+02
DAV:  19    -0.133096364782E+04    0.11864E+02   -0.17866E+01 12960   0.197E+01    0.817E+01
DAV:  20    -0.132266199225E+04    0.83017E+01   -0.12260E+01 13008   0.160E+01    0.685E+01
DAV:  21    -0.131667161642E+04    0.59904E+01   -0.84047E+00 12912   0.128E+01    0.562E+01
DAV:  22    -0.131223730034E+04    0.44343E+01   -0.49721E+00 12996   0.942E+00    0.490E+01
DAV:  23    -0.131107310979E+04    0.11642E+01   -0.37632E+00 13056   0.828E+00    0.464E+01
DAV:  24    -0.130921485316E+04    0.18583E+01   -0.28240E+00 13056   0.713E+00    0.387E+01
DAV:  25    -0.130729051614E+04    0.19243E+01   -0.21572E+00 13056   0.666E+00    0.338E+01
DAV:  26    -0.130602399959E+04    0.12665E+01   -0.18850E+00 13080   0.654E+00    0.307E+01
DAV:  27    -0.130518587605E+04    0.83812E+00   -0.15771E+00 13104   0.570E+00    0.249E+01
DAV:  28    -0.130564079922E+04   -0.45492E+00   -0.15491E+00 13248   0.557E+00    0.297E+01
DAV:  29    -0.130572766409E+04   -0.86865E-01   -0.19194E+00 13284   0.598E+00    0.313E+01
DAV:  30    -0.130479035855E+04    0.93731E+00   -0.14768E+00 13320   0.552E+00    0.261E+01
DAV:  31    -0.130433764887E+04    0.45271E+00   -0.11251E+00 13212   0.462E+00    0.226E+01
DAV:  32    -0.130496307149E+04   -0.62542E+00   -0.14558E+00 13272   0.561E+00    0.275E+01
DAV:  33    -0.130500383168E+04   -0.40760E-01   -0.16842E+00 13272   0.599E+00    0.295E+01
DAV:  34    -0.130402674878E+04    0.97708E+00   -0.11871E+00 13266   0.472E+00    0.253E+01
DAV:  35    -0.130340476826E+04    0.62198E+00   -0.69604E-01 13224   0.313E+00    0.204E+01
DAV:  36    -0.130296279995E+04    0.44197E+00   -0.55026E-01 13248   0.291E+00    0.136E+01
DAV:  37    -0.130284210074E+04    0.12070E+00   -0.35689E-01 13344   0.246E+00    0.112E+01
DAV:  38    -0.130294833768E+04   -0.10624E+00   -0.36500E-01 13344   0.239E+00    0.127E+01
DAV:  39    -0.130303715357E+04   -0.88816E-01   -0.43618E-01 13344   0.287E+00    0.133E+01
DAV:  40    -0.130293793580E+04    0.99218E-01   -0.33596E-01 13320   0.257E+00    0.122E+01
DAV:  41    -0.130281586887E+04    0.12207E+00   -0.13355E-01 13224   0.138E+00    0.106E+01
DAV:  42    -0.130275925317E+04    0.56616E-01   -0.82511E-02 13236   0.114E+00    0.956E+00
DAV:  43    -0.130267514862E+04    0.84105E-01   -0.59496E-02 13224   0.995E-01    0.798E+00
DAV:  44    -0.130267016861E+04    0.49800E-02   -0.56845E-02 13200   0.989E-01    0.792E+00
DAV:  45    -0.130268673206E+04   -0.16563E-01   -0.75452E-02 13212   0.106E+00    0.821E+00
DAV:  46    -0.130263743655E+04    0.49296E-01   -0.73305E-02 13212   0.112E+00    0.716E+00
DAV:  47    -0.130259154779E+04    0.45889E-01   -0.41049E-02 13212   0.923E-01    0.634E+00
DAV:  48    -0.130258149780E+04    0.10050E-01   -0.32344E-02 13344   0.695E-01    0.601E+00
DAV:  49    -0.130256377825E+04    0.17720E-01   -0.40437E-02 13320   0.757E-01    0.547E+00
DAV:  50    -0.130252945111E+04    0.34327E-01   -0.22813E-02 13272   0.598E-01    0.424E+00
DAV:  51    -0.130254270872E+04   -0.13258E-01   -0.72890E-02 17220   0.107E+00    0.457E+00
DAV:  52    -0.130251998707E+04    0.22722E-01   -0.52178E-02 14244   0.100E+00    0.345E+00
DAV:  53    -0.130250329796E+04    0.16689E-01   -0.29612E-02 13824   0.752E-01    0.237E+00
DAV:  54    -0.130249586704E+04    0.74309E-02   -0.17035E-02 13464   0.542E-01    0.171E+00
DAV:  55    -0.130250561429E+04   -0.97472E-02   -0.15377E-02 13908   0.507E-01    0.249E+00
DAV:  56    -0.130250383408E+04    0.17802E-02   -0.16334E-02 13536   0.563E-01    0.219E+00
DAV:  57    -0.130250103710E+04    0.27970E-02   -0.11133E-02 13344   0.468E-01    0.195E+00
DAV:  58    -0.130250191013E+04   -0.87303E-03   -0.10287E-02 13392   0.447E-01    0.181E+00
DAV:  59    -0.130249571609E+04    0.61940E-02   -0.77274E-03 13464   0.393E-01    0.903E-01
DAV:  60    -0.130249441076E+04    0.13053E-02   -0.29055E-03 13308   0.236E-01
   1 F= -.13024944E+04 E0= -.13017998E+04  d E =-.138917E+01
