 256 256   0   0
  0.1137482E+02  0.1428000E-08  0.1428000E-08  0.1428000E-08  0.5000000E-15
  1.000000000000000E-004
  CAR 
 NiAl                                    
     10.93678189     -5.29966447  301      3.93593332      1.00000000
     -5.300  0.0000E+00  0.0000E+00
     -5.246  0.0000E+00  0.0000E+00
     -5.191  0.0000E+00  0.0000E+00
     -5.137  0.0000E+00  0.0000E+00
     -5.083  0.0000E+00  0.0000E+00
     -5.029  0.0000E+00  0.0000E+00
     -4.975  0.0000E+00  0.0000E+00
     -4.921  0.0000E+00  0.0000E+00
     -4.867  0.0000E+00  0.0000E+00
     -4.813  0.2939E-11  0.1590E-12
     -4.758  0.6003E-07  0.3249E-08
     -4.704  0.1257E-03  0.6805E-05
     -4.650  0.2816E-01  0.1531E-02
     -4.596  0.7339E+00  0.4125E-01
     -4.542  0.2523E+01  0.1778E+00
     -4.488  0.1256E+01  0.2458E+00
     -4.434  0.7792E+00  0.2879E+00
     -4.380  0.8607E+01  0.7538E+00
     -4.325  0.1469E+02  0.1549E+01
     -4.271  0.3715E+01  0.1750E+01
     -4.217  0.4984E+01  0.2020E+01
     -4.163  0.2689E+02  0.3475E+01
     -4.109  0.2119E+02  0.4622E+01
     -4.055  0.2866E+01  0.4777E+01
     -4.001  0.8978E+01  0.5263E+01
     -3.947  0.2044E+02  0.6369E+01
     -3.893  0.6770E+01  0.6736E+01
     -3.838  0.2130E+01  0.6851E+01
     -3.784  0.1238E+02  0.7521E+01
     -3.730  0.1185E+02  0.8163E+01
     -3.676  0.3066E+01  0.8329E+01
     -3.622  0.2588E+02  0.9729E+01
     -3.568  0.6147E+02  0.1306E+02
     -3.514  0.2135E+02  0.1421E+02
     -3.460  0.1153E+02  0.1484E+02
     -3.405  0.5494E+02  0.1781E+02
     -3.351  0.4081E+02  0.2002E+02
     -3.297  0.4230E+01  0.2025E+02
     -3.243  0.5401E-01  0.2025E+02
     -3.189  0.1869E-02  0.2025E+02
     -3.135  0.3789E+00  0.2027E+02
     -3.081  0.9338E+01  0.2078E+02
     -3.027  0.3046E+02  0.2242E+02
     -2.972  0.1474E+02  0.2322E+02
     -2.918  0.1595E+02  0.2409E+02
     -2.864  0.7055E+02  0.2790E+02
     -2.810  0.4799E+02  0.3050E+02
     -2.756  0.8876E+01  0.3098E+02
     -2.702  0.4108E+02  0.3321E+02
     -2.648  0.5481E+02  0.3617E+02
     -2.594  0.1334E+02  0.3689E+02
     -2.539  0.3524E+02  0.3880E+02
     -2.485  0.5854E+02  0.4197E+02
     -2.431  0.1694E+02  0.4289E+02
     -2.377  0.1781E+02  0.4385E+02
     -2.323  0.1483E+02  0.4465E+02
     -2.269  0.2711E+01  0.4480E+02
     -2.215  0.2078E+02  0.4592E+02
     -2.161  0.6148E+02  0.4925E+02
     -2.106  0.3211E+02  0.5099E+02
     -2.052  0.7206E+02  0.5489E+02
     -1.998  0.1167E+03  0.6120E+02
     -1.944  0.2770E+02  0.6270E+02
     -1.890  0.8563E+00  0.6275E+02
     -1.836  0.6062E-01  0.6275E+02
     -1.782  0.2465E+01  0.6289E+02
     -1.728  0.1375E+02  0.6363E+02
     -1.674  0.2137E+02  0.6479E+02
     -1.619  0.6876E+02  0.6851E+02
     -1.565  0.9845E+02  0.7384E+02
     -1.511  0.4268E+02  0.7615E+02
     -1.457  0.3198E+02  0.7788E+02
     -1.403  0.8546E+02  0.8250E+02
     -1.349  0.5622E+02  0.8555E+02
     -1.295  0.5882E+02  0.8873E+02
     -1.241  0.4208E+02  0.9101E+02
     -1.186  0.1061E+02  0.9158E+02
     -1.132  0.4730E+02  0.9414E+02
     -1.078  0.7865E+02  0.9840E+02
     -1.024  0.1653E+03  0.1073E+03
     -0.970  0.1302E+03  0.1144E+03
     -0.916  0.1564E+02  0.1152E+03
     -0.862  0.3519E+00  0.1153E+03
     -0.808  0.6500E+01  0.1156E+03
     -0.753  0.5055E+02  0.1183E+03
     -0.699  0.7509E+02  0.1224E+03
     -0.645  0.3852E+02  0.1245E+03
     -0.591  0.2287E+02  0.1257E+03
     -0.537  0.6934E+02  0.1295E+03
     -0.483  0.1369E+03  0.1369E+03
     -0.429  0.2749E+03  0.1518E+03
     -0.375  0.2228E+03  0.1638E+03
     -0.320  0.9476E+02  0.1690E+03
     -0.266  0.6331E+02  0.1724E+03
     -0.212  0.5631E+02  0.1754E+03
     -0.158  0.1573E+03  0.1839E+03
     -0.104  0.2034E+03  0.1950E+03
     -0.050  0.2156E+03  0.2066E+03
      0.004  0.2255E+03  0.2188E+03
      0.058  0.3319E+03  0.2368E+03
      0.112  0.2762E+03  0.2517E+03
      0.167  0.2729E+03  0.2665E+03
      0.221  0.1679E+03  0.2756E+03
      0.275  0.2499E+03  0.2891E+03
      0.329  0.4898E+03  0.3156E+03
      0.383  0.4353E+03  0.3392E+03
      0.437  0.2879E+03  0.3548E+03
      0.491  0.1733E+03  0.3641E+03
      0.545  0.2036E+03  0.3752E+03
      0.600  0.4925E+03  0.4018E+03
      0.654  0.4673E+03  0.4271E+03
      0.708  0.4808E+03  0.4531E+03
      0.762  0.6959E+03  0.4908E+03
      0.816  0.5608E+03  0.5211E+03
      0.870  0.3780E+03  0.5416E+03
      0.924  0.4621E+03  0.5666E+03
      0.978  0.5314E+03  0.5954E+03
      1.033  0.5018E+03  0.6225E+03
      1.087  0.5128E+03  0.6503E+03
      1.141  0.4551E+03  0.6749E+03
      1.195  0.4862E+03  0.7012E+03
      1.249  0.3577E+03  0.7206E+03
      1.303  0.3942E+03  0.7419E+03
      1.357  0.4745E+03  0.7676E+03
      1.411  0.5172E+03  0.7956E+03
      1.466  0.4554E+03  0.8202E+03
      1.520  0.4375E+03  0.8439E+03
      1.574  0.5886E+03  0.8758E+03
      1.628  0.6414E+03  0.9105E+03
      1.682  0.5943E+03  0.9427E+03
      1.736  0.5128E+03  0.9704E+03
      1.790  0.6411E+03  0.1005E+04
      1.844  0.6943E+03  0.1043E+04
      1.898  0.4783E+03  0.1069E+04
      1.953  0.4978E+03  0.1096E+04
      2.007  0.8381E+03  0.1141E+04
      2.061  0.1059E+04  0.1198E+04
      2.115  0.9160E+03  0.1248E+04
      2.169  0.7259E+03  0.1287E+04
      2.223  0.6424E+03  0.1322E+04
      2.277  0.7756E+03  0.1364E+04
      2.331  0.9695E+03  0.1416E+04
      2.386  0.1150E+04  0.1479E+04
      2.440  0.7244E+03  0.1518E+04
      2.494  0.6004E+03  0.1550E+04
      2.548  0.6161E+03  0.1584E+04
      2.602  0.5431E+03  0.1613E+04
      2.656  0.5230E+03  0.1641E+04
      2.710  0.5465E+03  0.1671E+04
      2.764  0.6410E+03  0.1706E+04
      2.819  0.6875E+03  0.1743E+04
      2.873  0.5100E+03  0.1770E+04
      2.927  0.4205E+03  0.1793E+04
      2.981  0.6820E+03  0.1830E+04
      3.035  0.7888E+03  0.1873E+04
      3.089  0.9516E+03  0.1924E+04
      3.143  0.6711E+03  0.1961E+04
      3.197  0.4009E+03  0.1982E+04
      3.252  0.5321E+03  0.2011E+04
      3.306  0.7560E+03  0.2052E+04
      3.360  0.9167E+03  0.2102E+04
      3.414  0.8673E+03  0.2148E+04
      3.468  0.6044E+03  0.2181E+04
      3.522  0.4745E+03  0.2207E+04
      3.576  0.4620E+03  0.2232E+04
      3.630  0.7285E+03  0.2271E+04
      3.685  0.8344E+03  0.2316E+04
      3.739  0.7544E+03  0.2357E+04
      3.793  0.7921E+03  0.2400E+04
      3.847  0.1058E+04  0.2457E+04
      3.901  0.1139E+04  0.2519E+04
      3.955  0.1187E+04  0.2583E+04
      4.009  0.1110E+04  0.2643E+04
      4.063  0.6928E+03  0.2681E+04
      4.117  0.2394E+03  0.2694E+04
      4.172  0.9151E+02  0.2699E+04
      4.226  0.6024E+02  0.2702E+04
      4.280  0.5141E+02  0.2705E+04
      4.334  0.3818E+02  0.2707E+04
      4.388  0.1189E+03  0.2713E+04
      4.442  0.7385E+02  0.2717E+04
      4.496  0.8609E+02  0.2722E+04
      4.550  0.1492E+03  0.2730E+04
      4.605  0.1334E+03  0.2737E+04
      4.659  0.2245E+03  0.2749E+04
      4.713  0.1614E+03  0.2758E+04
      4.767  0.5630E+02  0.2761E+04
      4.821  0.5945E+02  0.2764E+04
      4.875  0.2939E+02  0.2766E+04
      4.929  0.5981E+02  0.2769E+04
      4.983  0.3371E+02  0.2771E+04
      5.038  0.1939E+02  0.2772E+04
      5.092  0.6821E+02  0.2776E+04
      5.146  0.8216E+02  0.2780E+04
      5.200  0.4892E+02  0.2783E+04
      5.254  0.2632E+02  0.2784E+04
      5.308  0.6614E+02  0.2788E+04
      5.362  0.5527E+02  0.2791E+04
      5.416  0.7703E+02  0.2795E+04
      5.471  0.2555E+03  0.2809E+04
      5.525  0.2953E+03  0.2825E+04
      5.579  0.1398E+03  0.2833E+04
      5.633  0.4570E+02  0.2835E+04
      5.687  0.1282E+02  0.2836E+04
      5.741  0.9447E+01  0.2836E+04
      5.795  0.5121E+02  0.2839E+04
      5.849  0.4574E+02  0.2841E+04
      5.903  0.1786E+02  0.2842E+04
      5.958  0.9322E+02  0.2847E+04
      6.012  0.1005E+03  0.2853E+04
      6.066  0.1540E+02  0.2854E+04
      6.120  0.4853E+00  0.2854E+04
      6.174  0.1327E+02  0.2854E+04
      6.228  0.1214E+03  0.2861E+04
      6.282  0.1634E+03  0.2870E+04
      6.336  0.3458E+02  0.2872E+04
      6.391  0.3897E+02  0.2874E+04
      6.445  0.1786E+03  0.2884E+04
      6.499  0.1705E+03  0.2893E+04
      6.553  0.5655E+02  0.2896E+04
      6.607  0.1146E+02  0.2896E+04
      6.661  0.1534E+02  0.2897E+04
      6.715  0.5843E+02  0.2900E+04
      6.769  0.3563E+02  0.2902E+04
      6.824  0.1768E+02  0.2903E+04
      6.878  0.6298E+02  0.2907E+04
      6.932  0.1077E+03  0.2913E+04
      6.986  0.1875E+03  0.2923E+04
      7.040  0.6697E+02  0.2926E+04
      7.094  0.1202E+02  0.2927E+04
      7.148  0.9409E+02  0.2932E+04
      7.202  0.1420E+03  0.2940E+04
      7.257  0.3129E+02  0.2941E+04
      7.311  0.1392E+01  0.2942E+04
      7.365  0.1466E+02  0.2942E+04
      7.419  0.5896E+02  0.2946E+04
      7.473  0.3658E+02  0.2947E+04
      7.527  0.3577E+02  0.2949E+04
      7.581  0.6021E+02  0.2953E+04
      7.635  0.4296E+02  0.2955E+04
      7.689  0.1645E+03  0.2964E+04
      7.744  0.1780E+03  0.2974E+04
      7.798  0.5847E+02  0.2977E+04
      7.852  0.1379E+02  0.2977E+04
      7.906  0.7730E+00  0.2978E+04
      7.960  0.1898E+01  0.2978E+04
      8.014  0.4805E+02  0.2980E+04
      8.068  0.1754E+03  0.2990E+04
      8.122  0.9900E+02  0.2995E+04
      8.177  0.8179E+01  0.2995E+04
      8.231  0.8621E-01  0.2995E+04
      8.285  0.8918E-02  0.2996E+04
      8.339  0.1452E+01  0.2996E+04
      8.393  0.2980E+02  0.2997E+04
      8.447  0.8889E+02  0.3002E+04
      8.501  0.4286E+02  0.3004E+04
      8.555  0.3283E+01  0.3004E+04
      8.610  0.3051E+01  0.3005E+04
      8.664  0.3564E+02  0.3007E+04
      8.718  0.5841E+02  0.3010E+04
      8.772  0.2446E+02  0.3011E+04
      8.826  0.6706E+02  0.3015E+04
      8.880  0.1343E+03  0.3022E+04
      8.934  0.1499E+03  0.3030E+04
      8.988  0.1393E+03  0.3038E+04
      9.043  0.5030E+02  0.3040E+04
      9.097  0.2735E+01  0.3040E+04
      9.151  0.1773E-01  0.3040E+04
      9.205  0.1244E-04  0.3040E+04
      9.259  0.1347E-08  0.3041E+04
      9.313  0.6198E-05  0.3041E+04
      9.367  0.8842E-02  0.3041E+04
      9.421  0.1365E+01  0.3041E+04
      9.476  0.2497E+02  0.3042E+04
      9.530  0.6157E+02  0.3045E+04
      9.584  0.2190E+02  0.3046E+04
      9.638  0.1067E+01  0.3047E+04
      9.692  0.1325E+01  0.3047E+04
      9.746  0.1154E+02  0.3047E+04
      9.800  0.4841E+02  0.3050E+04
      9.854  0.1161E+03  0.3056E+04
      9.908  0.8249E+02  0.3061E+04
      9.963  0.3081E+02  0.3062E+04
     10.017  0.3895E+02  0.3064E+04
     10.071  0.3205E+02  0.3066E+04
     10.125  0.5075E+02  0.3069E+04
     10.179  0.3950E+02  0.3071E+04
     10.233  0.1611E+02  0.3072E+04
     10.287  0.2993E+01  0.3072E+04
     10.341  0.9685E-01  0.3072E+04
     10.396  0.3994E-03  0.3072E+04
     10.450  0.1843E-06  0.3072E+04
     10.504  0.8899E-11  0.3072E+04
     10.558  0.0000E+00  0.3072E+04
     10.612  0.0000E+00  0.3072E+04
     10.666  0.0000E+00  0.3072E+04
     10.720  0.0000E+00  0.3072E+04
     10.774  0.0000E+00  0.3072E+04
     10.829  0.0000E+00  0.3072E+04
     10.883  0.0000E+00  0.3072E+04
     10.937  0.0000E+00  0.3072E+04
