       N       E                     dE             d eps       ncg     rms          rms(c)
DAV:   1     0.189169038136E+05    0.18917E+05   -0.92816E+05 12552   0.133E+03
DAV:   2    -0.228646926801E+03   -0.19146E+05   -0.18426E+05 12288   0.420E+02
DAV:   3    -0.148575685420E+04   -0.12571E+04   -0.10242E+04 13512   0.115E+02
DAV:   4    -0.164313632626E+04   -0.15738E+03   -0.14014E+03 21348   0.399E+01
DAV:   5    -0.164754178338E+04   -0.44055E+01   -0.43129E+01 18564   0.685E+00    0.148E+02
DAV:   6    -0.146875351472E+04    0.17879E+03   -0.36354E+03 12648   0.938E+01    0.977E+01
DAV:   7    -0.135595460373E+04    0.11280E+03   -0.65300E+02 12564   0.438E+01    0.960E+00
DAV:   8    -0.135648757221E+04   -0.53297E+00   -0.20262E+01 17208   0.368E+00    0.801E+00
DAV:   9    -0.135553591719E+04    0.95166E+00   -0.11572E+00 14580   0.145E+00    0.277E+00
DAV:  10    -0.135533280867E+04    0.20311E+00   -0.32715E-01 17496   0.491E-01    0.111E+00
DAV:  11    -0.135533220489E+04    0.60378E-03   -0.68054E-03 16092   0.941E-02    0.576E-01
DAV:  12    -0.135532991688E+04    0.22880E-02   -0.31091E-03 14148   0.783E-02    0.900E-02
DAV:  13    -0.135532982144E+04    0.95431E-04   -0.64700E-04 16344   0.273E-02    0.234E-02
DAV:  14    -0.135532981215E+04    0.92954E-05   -0.13162E-05  8856   0.424E-03    0.114E-02
DAV:  15    -0.135532979502E+04    0.17133E-04   -0.33035E-06  6648   0.208E-03    0.205E-03
DAV:  16    -0.135532979504E+04   -0.24680E-07   -0.11547E-06  6540   0.132E-03
   1 F= -.13553298E+04 E0= -.13545742E+04  d E =-.151126E+01
