 254 254   0   0
  0.2268316E+02  0.1514622E-08  0.1514622E-08  0.2900000E-08  0.5000000E-15
  1.000000000000000E-004
  CAR 
 NiAl                                    
      6.13934701    -25.32137710  301     -0.58223780      1.00000000
    -25.321  0.0000E+00  0.0000E+00
    -25.217  0.0000E+00  0.0000E+00
    -25.112  0.0000E+00  0.0000E+00
    -25.007  0.0000E+00  0.0000E+00
    -24.902  0.0000E+00  0.0000E+00
    -24.797  0.0000E+00  0.0000E+00
    -24.692  0.0000E+00  0.0000E+00
    -24.587  0.0000E+00  0.0000E+00
    -24.482  0.0000E+00  0.0000E+00
    -24.378  0.0000E+00  0.0000E+00
    -24.273  0.0000E+00  0.0000E+00
    -24.168  0.5002E-13  0.5246E-14
    -24.063  0.1146E-04  0.1202E-05
    -23.958  0.5613E+00  0.5887E-01
    -23.853  0.1583E+02  0.1718E+01
    -23.748  0.2684E+01  0.2000E+01
    -23.643  0.5030E-03  0.2000E+01
    -23.539  0.2285E-10  0.2000E+01
    -23.434  0.0000E+00  0.2000E+01
    -23.329  0.0000E+00  0.2000E+01
    -23.224  0.0000E+00  0.2000E+01
    -23.119  0.0000E+00  0.2000E+01
    -23.014  0.0000E+00  0.2000E+01
    -22.909  0.0000E+00  0.2000E+01
    -22.805  0.0000E+00  0.2000E+01
    -22.700  0.0000E+00  0.2000E+01
    -22.595  0.0000E+00  0.2000E+01
    -22.490  0.0000E+00  0.2000E+01
    -22.385  0.0000E+00  0.2000E+01
    -22.280  0.0000E+00  0.2000E+01
    -22.175  0.0000E+00  0.2000E+01
    -22.070  0.0000E+00  0.2000E+01
    -21.966  0.0000E+00  0.2000E+01
    -21.861  0.0000E+00  0.2000E+01
    -21.756  0.0000E+00  0.2000E+01
    -21.651  0.0000E+00  0.2000E+01
    -21.546  0.0000E+00  0.2000E+01
    -21.441  0.0000E+00  0.2000E+01
    -21.336  0.0000E+00  0.2000E+01
    -21.231  0.0000E+00  0.2000E+01
    -21.127  0.0000E+00  0.2000E+01
    -21.022  0.0000E+00  0.2000E+01
    -20.917  0.0000E+00  0.2000E+01
    -20.812  0.0000E+00  0.2000E+01
    -20.707  0.0000E+00  0.2000E+01
    -20.602  0.0000E+00  0.2000E+01
    -20.497  0.0000E+00  0.2000E+01
    -20.393  0.0000E+00  0.2000E+01
    -20.288  0.0000E+00  0.2000E+01
    -20.183  0.0000E+00  0.2000E+01
    -20.078  0.0000E+00  0.2000E+01
    -19.973  0.0000E+00  0.2000E+01
    -19.868  0.0000E+00  0.2000E+01
    -19.763  0.0000E+00  0.2000E+01
    -19.658  0.0000E+00  0.2000E+01
    -19.554  0.0000E+00  0.2000E+01
    -19.449  0.0000E+00  0.2000E+01
    -19.344  0.0000E+00  0.2000E+01
    -19.239  0.0000E+00  0.2000E+01
    -19.134  0.0000E+00  0.2000E+01
    -19.029  0.0000E+00  0.2000E+01
    -18.924  0.0000E+00  0.2000E+01
    -18.819  0.0000E+00  0.2000E+01
    -18.715  0.0000E+00  0.2000E+01
    -18.610  0.0000E+00  0.2000E+01
    -18.505  0.0000E+00  0.2000E+01
    -18.400  0.0000E+00  0.2000E+01
    -18.295  0.0000E+00  0.2000E+01
    -18.190  0.0000E+00  0.2000E+01
    -18.085  0.0000E+00  0.2000E+01
    -17.981  0.0000E+00  0.2000E+01
    -17.876  0.0000E+00  0.2000E+01
    -17.771  0.0000E+00  0.2000E+01
    -17.666  0.0000E+00  0.2000E+01
    -17.561  0.0000E+00  0.2000E+01
    -17.456  0.0000E+00  0.2000E+01
    -17.351  0.0000E+00  0.2000E+01
    -17.246  0.0000E+00  0.2000E+01
    -17.142  0.0000E+00  0.2000E+01
    -17.037  0.0000E+00  0.2000E+01
    -16.932  0.0000E+00  0.2000E+01
    -16.827  0.0000E+00  0.2000E+01
    -16.722  0.0000E+00  0.2000E+01
    -16.617  0.0000E+00  0.2000E+01
    -16.512  0.0000E+00  0.2000E+01
    -16.408  0.0000E+00  0.2000E+01
    -16.303  0.0000E+00  0.2000E+01
    -16.198  0.0000E+00  0.2000E+01
    -16.093  0.0000E+00  0.2000E+01
    -15.988  0.0000E+00  0.2000E+01
    -15.883  0.0000E+00  0.2000E+01
    -15.778  0.0000E+00  0.2000E+01
    -15.673  0.0000E+00  0.2000E+01
    -15.569  0.0000E+00  0.2000E+01
    -15.464  0.0000E+00  0.2000E+01
    -15.359  0.0000E+00  0.2000E+01
    -15.254  0.0000E+00  0.2000E+01
    -15.149  0.0000E+00  0.2000E+01
    -15.044  0.0000E+00  0.2000E+01
    -14.939  0.0000E+00  0.2000E+01
    -14.834  0.0000E+00  0.2000E+01
    -14.730  0.0000E+00  0.2000E+01
    -14.625  0.0000E+00  0.2000E+01
    -14.520  0.0000E+00  0.2000E+01
    -14.415  0.0000E+00  0.2000E+01
    -14.310  0.0000E+00  0.2000E+01
    -14.205  0.0000E+00  0.2000E+01
    -14.100  0.0000E+00  0.2000E+01
    -13.996  0.0000E+00  0.2000E+01
    -13.891  0.0000E+00  0.2000E+01
    -13.786  0.5601E-06  0.2000E+01
    -13.681  0.1338E+00  0.2014E+01
    -13.576  0.1312E+02  0.3390E+01
    -13.471  0.5814E+01  0.3999E+01
    -13.366  0.4856E-02  0.4000E+01
    -13.261  0.1125E-08  0.4000E+01
    -13.157  0.0000E+00  0.4000E+01
    -13.052  0.0000E+00  0.4000E+01
    -12.947  0.0000E+00  0.4000E+01
    -12.842  0.0000E+00  0.4000E+01
    -12.737  0.0000E+00  0.4000E+01
    -12.632  0.0000E+00  0.4000E+01
    -12.527  0.0000E+00  0.4000E+01
    -12.422  0.0000E+00  0.4000E+01
    -12.318  0.0000E+00  0.4000E+01
    -12.213  0.0000E+00  0.4000E+01
    -12.108  0.0000E+00  0.4000E+01
    -12.003  0.0000E+00  0.4000E+01
    -11.898  0.0000E+00  0.4000E+01
    -11.793  0.0000E+00  0.4000E+01
    -11.688  0.0000E+00  0.4000E+01
    -11.584  0.0000E+00  0.4000E+01
    -11.479  0.0000E+00  0.4000E+01
    -11.374  0.0000E+00  0.4000E+01
    -11.269  0.0000E+00  0.4000E+01
    -11.164  0.0000E+00  0.4000E+01
    -11.059  0.0000E+00  0.4000E+01
    -10.954  0.0000E+00  0.4000E+01
    -10.849  0.0000E+00  0.4000E+01
    -10.745  0.0000E+00  0.4000E+01
    -10.640  0.0000E+00  0.4000E+01
    -10.535  0.0000E+00  0.4000E+01
    -10.430  0.0000E+00  0.4000E+01
    -10.325  0.0000E+00  0.4000E+01
    -10.220  0.0000E+00  0.4000E+01
    -10.115  0.0000E+00  0.4000E+01
    -10.010  0.0000E+00  0.4000E+01
     -9.906  0.1392E-06  0.4000E+01
     -9.801  0.6602E-01  0.4007E+01
     -9.696  0.1146E+02  0.5209E+01
     -9.591  0.7529E+01  0.5999E+01
     -9.486  0.1351E-01  0.6000E+01
     -9.381  0.4178E+01  0.6438E+01
     -9.276  0.1462E+02  0.7972E+01
     -9.172  0.2741E+00  0.8000E+01
     -9.067  0.1821E+01  0.8191E+01
     -8.962  0.2929E+01  0.8498E+01
     -8.857  0.6058E+01  0.9134E+01
     -8.752  0.2207E+02  0.1145E+02
     -8.647  0.4985E+00  0.1150E+02
     -8.542  0.1136E+01  0.1162E+02
     -8.437  0.4972E+01  0.1214E+02
     -8.333  0.2920E+02  0.1520E+02
     -8.228  0.2669E+02  0.1800E+02
     -8.123  0.3883E+02  0.2207E+02
     -8.018  0.8828E+01  0.2300E+02
     -7.913  0.1739E+01  0.2318E+02
     -7.808  0.2413E+02  0.2571E+02
     -7.703  0.6688E+01  0.2641E+02
     -7.599  0.2524E+02  0.2906E+02
     -7.494  0.5398E+02  0.3472E+02
     -7.389  0.3496E+02  0.3839E+02
     -7.284  0.1065E+01  0.3850E+02
     -7.179  0.1092E+01  0.3861E+02
     -7.074  0.4017E+02  0.4283E+02
     -6.969  0.6856E+02  0.5002E+02
     -6.864  0.1727E+02  0.5183E+02
     -6.760  0.1543E+02  0.5345E+02
     -6.655  0.1747E+02  0.5528E+02
     -6.550  0.2342E+02  0.5773E+02
     -6.445  0.3954E+02  0.6188E+02
     -6.340  0.5742E+02  0.6790E+02
     -6.235  0.6259E+02  0.7447E+02
     -6.130  0.1307E+02  0.7584E+02
     -6.025  0.4793E+02  0.8086E+02
     -5.921  0.9303E+02  0.9062E+02
     -5.816  0.4867E+02  0.9572E+02
     -5.711  0.2787E+01  0.9601E+02
     -5.606  0.9278E+01  0.9699E+02
     -5.501  0.3687E+02  0.1009E+03
     -5.396  0.1157E+03  0.1130E+03
     -5.291  0.1214E+03  0.1257E+03
     -5.187  0.5919E+02  0.1319E+03
     -5.082  0.1070E+03  0.1431E+03
     -4.977  0.1133E+03  0.1550E+03
     -4.872  0.4834E+02  0.1601E+03
     -4.767  0.1126E+03  0.1719E+03
     -4.662  0.2814E+03  0.2014E+03
     -4.557  0.1668E+03  0.2189E+03
     -4.452  0.2391E+03  0.2440E+03
     -4.348  0.2995E+03  0.2754E+03
     -4.243  0.2522E+03  0.3018E+03
     -4.138  0.2827E+03  0.3315E+03
     -4.033  0.2831E+03  0.3612E+03
     -3.928  0.4478E+03  0.4081E+03
     -3.823  0.5244E+03  0.4631E+03
     -3.718  0.4520E+03  0.5105E+03
     -3.613  0.4570E+03  0.5585E+03
     -3.509  0.4200E+03  0.6025E+03
     -3.404  0.3703E+03  0.6413E+03
     -3.299  0.3506E+03  0.6781E+03
     -3.194  0.4765E+03  0.7281E+03
     -3.089  0.5114E+03  0.7817E+03
     -2.984  0.3633E+03  0.8198E+03
     -2.879  0.5934E+03  0.8820E+03
     -2.775  0.5026E+03  0.9347E+03
     -2.670  0.5431E+03  0.9917E+03
     -2.565  0.5598E+03  0.1050E+04
     -2.460  0.6930E+03  0.1123E+04
     -2.355  0.7681E+03  0.1204E+04
     -2.250  0.9064E+03  0.1299E+04
     -2.145  0.7953E+03  0.1382E+04
     -2.040  0.8748E+03  0.1474E+04
     -1.936  0.7736E+03  0.1555E+04
     -1.831  0.5652E+03  0.1614E+04
     -1.726  0.5962E+03  0.1677E+04
     -1.621  0.5331E+03  0.1733E+04
     -1.516  0.5776E+03  0.1793E+04
     -1.411  0.7927E+03  0.1876E+04
     -1.306  0.6929E+03  0.1949E+04
     -1.201  0.4818E+03  0.2000E+04
     -1.097  0.7552E+03  0.2079E+04
     -0.992  0.7974E+03  0.2162E+04
     -0.887  0.7789E+03  0.2244E+04
     -0.782  0.6572E+03  0.2313E+04
     -0.677  0.9649E+03  0.2414E+04
     -0.572  0.1205E+04  0.2540E+04
     -0.467  0.7480E+03  0.2619E+04
     -0.363  0.3518E+03  0.2656E+04
     -0.258  0.1308E+03  0.2670E+04
     -0.153  0.1472E+03  0.2685E+04
     -0.048  0.1625E+03  0.2702E+04
      0.057  0.1052E+03  0.2713E+04
      0.162  0.3876E+02  0.2717E+04
      0.267  0.6137E+02  0.2724E+04
      0.372  0.4396E+02  0.2728E+04
      0.476  0.1222E+03  0.2741E+04
      0.581  0.8410E+02  0.2750E+04
      0.686  0.8395E+02  0.2759E+04
      0.791  0.8762E+02  0.2768E+04
      0.896  0.1163E+03  0.2780E+04
      1.001  0.1296E+03  0.2794E+04
      1.106  0.3799E+02  0.2798E+04
      1.211  0.5149E+02  0.2803E+04
      1.315  0.1019E+03  0.2814E+04
      1.420  0.5626E+02  0.2820E+04
      1.525  0.5974E+02  0.2826E+04
      1.630  0.8220E+02  0.2834E+04
      1.735  0.8912E+02  0.2844E+04
      1.840  0.7351E+02  0.2851E+04
      1.945  0.9878E+02  0.2862E+04
      2.049  0.6498E+02  0.2869E+04
      2.154  0.5993E+02  0.2875E+04
      2.259  0.1044E+03  0.2886E+04
      2.364  0.1087E+03  0.2897E+04
      2.469  0.3880E+02  0.2901E+04
      2.574  0.4490E+02  0.2906E+04
      2.679  0.6616E+02  0.2913E+04
      2.784  0.3270E+02  0.2916E+04
      2.888  0.3477E+02  0.2920E+04
      2.993  0.7125E+02  0.2928E+04
      3.098  0.1875E+03  0.2947E+04
      3.203  0.1049E+03  0.2958E+04
      3.308  0.3302E+02  0.2962E+04
      3.413  0.5051E+02  0.2967E+04
      3.518  0.9121E+02  0.2977E+04
      3.622  0.4471E+02  0.2981E+04
      3.727  0.5800E+02  0.2987E+04
      3.832  0.3597E+02  0.2991E+04
      3.937  0.2578E+02  0.2994E+04
      4.042  0.2878E+02  0.2997E+04
      4.147  0.5854E+02  0.3003E+04
      4.252  0.5406E+02  0.3009E+04
      4.357  0.4971E+02  0.3014E+04
      4.461  0.8006E+02  0.3022E+04
      4.566  0.5979E+02  0.3028E+04
      4.671  0.5656E+02  0.3034E+04
      4.776  0.1487E+02  0.3036E+04
      4.881  0.1547E+00  0.3036E+04
      4.986  0.2900E-05  0.3036E+04
      5.091  0.1270E-13  0.3036E+04
      5.196  0.0000E+00  0.3036E+04
      5.300  0.0000E+00  0.3036E+04
      5.405  0.0000E+00  0.3036E+04
      5.510  0.0000E+00  0.3036E+04
      5.615  0.0000E+00  0.3036E+04
      5.720  0.0000E+00  0.3036E+04
      5.825  0.0000E+00  0.3036E+04
      5.930  0.0000E+00  0.3036E+04
      6.034  0.0000E+00  0.3036E+04
      6.139  0.0000E+00  0.3036E+04
