  254  254    1    1
  0.2268316E+02  0.1514622E-08  0.1514622E-08  0.2900000E-08  0.5000000E-15
  1.000000000000000E-004
  CAR 
 NiAl                                    
   2530      4   1518
 
  0.0000000E+00  0.0000000E+00  0.0000000E+00  0.2500000E+00
    1      -23.891266   1.000000
    2      -13.593962   1.000000
    3       -9.706037   1.000000
    4       -9.353458   1.000000
    5       -9.056100   1.000000
    6       -8.517167   1.000000
    7       -8.176435   1.000000
    8       -8.161103   1.000000
    9       -8.160886   1.000000
   10       -8.160313   1.000000
   11       -8.156267   1.000000
   12       -8.147535   1.000000
   13       -8.136940   1.000000
   14       -7.697809   1.000000
   15       -7.656247   1.000000
   16       -7.655924   1.000000
   17       -7.654150   1.000000
   18       -7.653424   1.000000
   19       -7.644326   1.000000
   20       -7.581960   1.000000
   21       -6.870245   1.000000
   22       -6.870044   1.000000
   23       -6.868819   1.000000
   24       -6.865618   1.000000
   25       -6.857673   1.000000
   26       -6.802247   1.000000
   27       -6.641023   1.000000
   28       -6.526110   1.000000
   29       -6.525943   1.000000
   30       -6.525337   1.000000
   31       -6.525092   1.000000
   32       -6.522684   1.000000
   33       -6.520450   1.000000
   34       -6.107659   1.000000
   35       -6.107480   1.000000
   36       -6.106024   1.000000
   37       -6.105095   1.000000
   38       -6.100417   1.000000
   39       -6.097919   1.000000
   40       -5.906347   1.000000
   41       -5.906167   1.000000
   42       -5.906036   1.000000
   43       -5.905043   1.000000
   44       -5.904814   1.000000
   45       -5.904651   1.000000
   46       -5.904412   1.000000
   47       -5.904001   1.000000
   48       -5.902688   1.000000
   49       -5.897584   1.000000
   50       -5.893656   1.000000
   51       -5.817600   1.000000
   52       -5.644035   1.000000
   53       -5.581949   1.000000
   54       -5.578935   1.000000
   55       -5.573928   1.000000
   56       -5.571421   1.000000
   57       -5.570631   1.000000
   58       -5.567508   1.000000
   59       -5.484313   1.000000
   60       -5.480736   1.000000
   61       -5.479392   1.000000
   62       -5.477854   1.000000
   63       -5.466596   1.000000
   64       -5.460599   1.000000
   65       -5.362266   1.000000
   66       -5.133779   1.000000
   67       -5.133062   1.000000
   68       -5.126119   1.000000
   69       -5.121097   1.000000
   70       -5.117935   1.000000
   71       -5.116678   1.000000
   72       -5.035781   1.000000
   73       -4.969446   1.000000
   74       -4.969072   1.000000
   75       -4.968693   1.000000
   76       -4.967680   1.000000
   77       -4.964385   1.000000
   78       -4.896651   1.000000
   79       -4.856181   1.000000
   80       -4.800030   1.000000
   81       -4.796758   1.000000
   82       -4.795366   1.000000
   83       -4.762700   1.000000
   84       -4.759397   1.000000
   85       -4.758102   1.000000
   86       -4.756396   1.000000
   87       -4.749817   1.000000
   88       -4.748554   1.000000
   89       -4.707790   1.000000
   90       -4.679628   1.000000
   91       -4.672895   1.000000
   92       -4.670169   1.000000
   93       -4.667434   1.000000
   94       -4.667109   1.000000
   95       -4.655465   1.000000
   96       -4.653277   1.000000
   97       -4.653203   1.000000
   98       -4.613634   1.000000
   99       -4.566753   1.000000
  100       -4.566299   1.000000
  101       -4.562347   1.000000
  102       -4.561693   1.000000
  103       -4.561388   1.000000
  104       -4.561313   1.000000
  105       -4.561149   1.000000
  106       -4.560943   1.000000
  107       -4.560668   1.000000
  108       -4.560312   1.000000
  109       -4.559683   1.000000
  110       -4.546286   1.000000
  111       -4.526544   1.000000
  112       -4.520877   1.000000
  113       -4.513982   1.000000
  114       -4.451788   1.000000
  115       -4.449896   1.000000
  116       -4.440828   1.000000
  117       -4.426782   1.000000
  118       -4.415899   1.000000
  119       -4.415122   1.000000
  120       -4.414452   1.000000
  121       -4.413701   1.000000
  122       -4.389137   1.000000
  123       -4.374297   1.000000
  124       -4.373625   1.000000
  125       -4.360985   1.000000
  126       -4.358307   1.000000
  127       -4.358062   1.000000
  128       -4.358006   1.000000
  129       -4.357881   1.000000
  130       -4.357564   1.000000
  131       -4.357029   1.000000
  132       -4.356553   1.000000
  133       -4.356448   1.000000
  134       -4.354435   1.000000
  135       -4.352794   1.000000
  136       -4.350405   1.000000
  137       -4.348124   1.000000
  138       -4.347720   1.000000
  139       -4.347459   1.000000
  140       -4.347197   1.000000
  141       -4.346887   1.000000
  142       -4.346437   1.000000
  143       -4.346006   1.000000
  144       -4.344670   1.000000
  145       -4.343882   1.000000
  146       -4.341744   1.000000
  147       -4.305384   1.000000
  148       -4.302107   1.000000
  149       -4.301202   1.000000
  150       -4.300721   1.000000
  151       -4.300202   1.000000
  152       -4.289310   1.000000
  153       -4.274076   1.000000
  154       -4.269534   1.000000
  155       -4.264173   1.000000
  156       -4.263921   1.000000
  157       -4.259383   1.000000
  158       -4.248570   1.000000
  159       -4.243720   1.000000
  160       -4.241118   1.000000
  161       -4.232414   1.000000
  162       -4.226809   1.000000
  163       -4.219610   1.000000
  164       -4.212799   1.000000
  165       -4.210318   1.000000
  166       -4.206604   1.000000
  167       -4.206216   1.000000
  168       -4.205691   1.000000
  169       -4.204136   1.000000
  170       -4.200793   1.000000
  171       -4.199860   1.000000
  172       -4.198248   1.000000
  173       -4.196489   1.000000
  174       -4.146239   1.000000
  175       -4.143475   1.000000
  176       -4.142223   1.000000
  177       -4.125221   1.000000
  178       -4.116968   1.000000
  179       -4.115710   1.000000
  180       -4.115002   1.000000
  181       -4.112956   1.000000
  182       -4.095628   1.000000
  183       -4.088514   1.000000
  184       -4.031670   1.000000
  185       -4.026440   1.000000
  186       -4.025195   1.000000
  187       -4.023282   1.000000
  188       -4.017623   1.000000
  189       -4.016712   1.000000
  190       -4.009048   1.000000
  191       -4.007851   1.000000
  192       -4.007474   1.000000
  193       -4.004126   1.000000
  194       -4.003128   1.000000
  195       -4.002319   1.000000
  196       -3.997490   1.000000
  197       -3.985961   1.000000
  198       -3.975610   1.000000
  199       -3.974827   1.000000
  200       -3.974691   1.000000
  201       -3.962915   1.000000
  202       -3.913094   1.000000
  203       -3.912281   1.000000
  204       -3.911385   1.000000
  205       -3.909319   1.000000
  206       -3.907415   1.000000
  207       -3.906944   1.000000
  208       -3.893546   1.000000
  209       -3.880856   1.000000
  210       -3.872778   1.000000
  211       -3.866033   1.000000
  212       -3.865870   1.000000
  213       -3.864537   1.000000
  214       -3.863821   1.000000
  215       -3.863668   1.000000
  216       -3.863379   1.000000
  217       -3.863002   1.000000
  218       -3.862874   1.000000
  219       -3.862534   1.000000
  220       -3.862323   1.000000
  221       -3.858480   1.000000
  222       -3.857326   1.000000
  223       -3.853983   1.000000
  224       -3.852348   1.000000
  225       -3.850745   1.000000
  226       -3.842121   1.000000
  227       -3.821753   1.000000
  228       -3.803060   1.000000
  229       -3.785178   1.000000
  230       -3.780681   1.000000
  231       -3.772950   1.000000
  232       -3.772891   1.000000
  233       -3.769656   1.000000
  234       -3.769445   1.000000
  235       -3.768979   1.000000
  236       -3.768094   1.000000
  237       -3.767664   1.000000
  238       -3.763215   1.000000
  239       -3.760576   1.000000
  240       -3.752344   1.000000
  241       -3.740900   1.000000
  242       -3.739099   1.000000
  243       -3.737715   1.000000
  244       -3.737013   1.000000
  245       -3.727613   1.000000
  246       -3.723882   1.000000
  247       -3.721688   1.000000
  248       -3.720970   1.000000
  249       -3.719285   1.000000
  250       -3.719150   1.000000
  251       -3.718745   1.000000
  252       -3.717272   1.000000
  253       -3.717129   1.000000
  254       -3.715869   1.000000
  255       -3.713779   1.000000
  256       -3.711543   1.000000
  257       -3.710658   1.000000
  258       -3.707425   1.000000
  259       -3.681449   1.000000
  260       -3.679791   1.000000
  261       -3.676006   1.000000
  262       -3.675681   1.000000
  263       -3.672919   1.000000
  264       -3.672348   1.000000
  265       -3.672030   1.000000
  266       -3.671857   1.000000
  267       -3.671245   1.000000
  268       -3.670956   1.000000
  269       -3.664835   1.000000
  270       -3.663225   1.000000
  271       -3.658627   1.000000
  272       -3.636216   1.000000
  273       -3.632308   1.000000
  274       -3.621833   1.000000
  275       -3.616499   1.000000
  276       -3.615793   1.000000
  277       -3.609995   1.000000
  278       -3.609846   1.000000
  279       -3.607611   1.000000
  280       -3.604907   1.000000
  281       -3.601464   1.000000
  282       -3.585556   1.000000
  283       -3.585370   1.000000
  284       -3.574216   1.000000
  285       -3.573108   1.000000
  286       -3.572502   1.000000
  287       -3.571566   1.000000
  288       -3.569238   1.000000
  289       -3.568138   1.000000
  290       -3.562809   1.000000
  291       -3.561710   1.000000
  292       -3.559524   1.000000
  293       -3.557808   1.000000
  294       -3.556935   1.000000
  295       -3.553596   1.000000
  296       -3.553461   1.000000
  297       -3.535509   1.000000
  298       -3.513469   1.000000
  299       -3.504086   1.000000
  300       -3.489486   1.000000
  301       -3.489386   1.000000
  302       -3.487186   1.000000
  303       -3.487054   1.000000
  304       -3.485337   1.000000
  305       -3.483298   1.000000
  306       -3.482845   1.000000
  307       -3.481919   1.000000
  308       -3.481597   1.000000
  309       -3.480285   1.000000
  310       -3.479465   1.000000
  311       -3.478070   1.000000
  312       -3.472710   1.000000
  313       -3.459883   1.000000
  314       -3.439673   1.000000
  315       -3.437113   1.000000
  316       -3.435329   1.000000
  317       -3.434963   1.000000
  318       -3.434381   1.000000
  319       -3.433175   1.000000
  320       -3.419341   1.000000
  321       -3.417922   1.000000
  322       -3.415759   1.000000
  323       -3.401761   1.000000
  324       -3.401143   1.000000
  325       -3.400159   1.000000
  326       -3.399687   1.000000
  327       -3.398759   1.000000
  328       -3.398326   1.000000
  329       -3.397837   1.000000
  330       -3.397092   1.000000
  331       -3.397044   1.000000
  332       -3.395827   1.000000
  333       -3.395234   1.000000
  334       -3.392935   1.000000
  335       -3.392462   1.000000
  336       -3.386658   1.000000
  337       -3.385036   1.000000
  338       -3.384640   1.000000
  339       -3.384045   1.000000
  340       -3.382649   1.000000
  341       -3.362061   1.000000
  342       -3.312650   1.000000
  343       -3.297106   1.000000
  344       -3.291932   1.000000
  345       -3.278886   1.000000
  346       -3.274346   1.000000
  347       -3.272682   1.000000
  348       -3.268897   1.000000
  349       -3.266534   1.000000
  350       -3.259461   1.000000
  351       -3.248958   1.000000
  352       -3.245947   1.000000
  353       -3.232481   1.000000
  354       -3.229964   1.000000
  355       -3.226003   1.000000
  356       -3.218670   1.000000
  357       -3.218502   1.000000
  358       -3.217771   1.000000
  359       -3.207172   1.000000
  360       -3.205934   1.000000
  361       -3.205495   1.000000
  362       -3.203961   1.000000
  363       -3.198773   1.000000
  364       -3.195458   1.000000
  365       -3.187598   1.000000
  366       -3.186624   1.000000
  367       -3.171801   1.000000
  368       -3.159479   1.000000
  369       -3.157223   1.000000
  370       -3.154609   1.000000
  371       -3.154396   1.000000
  372       -3.146604   1.000000
  373       -3.141792   1.000000
  374       -3.139508   1.000000
  375       -3.136665   1.000000
  376       -3.136326   1.000000
  377       -3.135560   1.000000
  378       -3.135118   1.000000
  379       -3.134961   1.000000
  380       -3.134422   1.000000
  381       -3.134251   1.000000
  382       -3.132310   1.000000
  383       -3.131605   1.000000
  384       -3.126247   1.000000
  385       -3.083099   1.000000
  386       -3.077758   1.000000
  387       -3.077221   1.000000
  388       -3.074217   1.000000
  389       -3.073594   1.000000
  390       -3.069927   1.000000
  391       -3.069233   1.000000
  392       -3.067544   1.000000
  393       -3.066941   1.000000
  394       -3.065268   1.000000
  395       -3.064106   1.000000
  396       -3.061383   1.000000
  397       -3.038943   1.000000
  398       -3.034876   1.000000
  399       -3.032360   1.000000
  400       -3.030102   1.000000
  401       -3.028605   1.000000
  402       -3.027878   1.000000
  403       -2.993492   1.000000
  404       -2.975498   1.000000
  405       -2.970393   1.000000
  406       -2.964883   1.000000
  407       -2.962066   1.000000
  408       -2.958504   1.000000
  409       -2.956729   1.000000
  410       -2.955140   1.000000
  411       -2.953926   1.000000
  412       -2.949537   1.000000
  413       -2.947051   1.000000
  414       -2.946435   1.000000
  415       -2.936107   1.000000
  416       -2.933642   1.000000
  417       -2.932000   1.000000
  418       -2.931158   1.000000
  419       -2.930022   1.000000
  420       -2.928098   1.000000
  421       -2.923541   1.000000
  422       -2.922116   1.000000
  423       -2.919675   1.000000
  424       -2.918408   1.000000
  425       -2.917028   1.000000
  426       -2.910329   1.000000
  427       -2.908883   1.000000
  428       -2.901703   1.000000
  429       -2.895800   1.000000
  430       -2.890544   1.000000
  431       -2.889523   1.000000
  432       -2.886252   1.000000
  433       -2.886001   1.000000
  434       -2.884925   1.000000
  435       -2.884760   1.000000
  436       -2.884414   1.000000
  437       -2.884077   1.000000
  438       -2.883971   1.000000
  439       -2.883813   1.000000
  440       -2.883282   1.000000
  441       -2.882982   1.000000
  442       -2.880033   1.000000
  443       -2.878273   1.000000
  444       -2.877812   1.000000
  445       -2.849538   1.000000
  446       -2.841572   1.000000
  447       -2.840030   1.000000
  448       -2.830319   1.000000
  449       -2.828779   1.000000
  450       -2.825572   1.000000
  451       -2.822112   1.000000
  452       -2.820673   1.000000
  453       -2.818414   1.000000
  454       -2.816298   1.000000
  455       -2.814287   1.000000
  456       -2.813871   1.000000
  457       -2.812575   1.000000
  458       -2.812015   1.000000
  459       -2.811425   1.000000
  460       -2.810869   1.000000
  461       -2.810750   1.000000
  462       -2.810499   1.000000
  463       -2.810436   1.000000
  464       -2.809852   1.000000
  465       -2.809816   1.000000
  466       -2.790175   1.000000
  467       -2.777057   1.000000
  468       -2.763805   1.000000
  469       -2.762313   1.000000
  470       -2.759682   1.000000
  471       -2.758783   1.000000
  472       -2.754261   1.000000
  473       -2.746915   1.000000
  474       -2.745679   1.000000
  475       -2.737971   1.000000
  476       -2.730289   1.000000
  477       -2.729037   1.000000
  478       -2.727554   1.000000
  479       -2.727071   1.000000
  480       -2.726167   1.000000
  481       -2.724583   1.000000
  482       -2.724007   1.000000
  483       -2.723165   1.000000
  484       -2.722873   1.000000
  485       -2.721533   1.000000
  486       -2.720174   1.000000
  487       -2.719177   1.000000
  488       -2.713611   1.000000
  489       -2.713294   1.000000
  490       -2.710539   1.000000
  491       -2.708139   1.000000
  492       -2.705537   1.000000
  493       -2.704940   1.000000
  494       -2.704421   1.000000
  495       -2.703493   1.000000
  496       -2.702938   1.000000
  497       -2.702907   1.000000
  498       -2.701393   1.000000
  499       -2.698358   1.000000
  500       -2.697052   1.000000
  501       -2.696984   1.000000
  502       -2.687096   1.000000
  503       -2.685563   1.000000
  504       -2.675119   1.000000
  505       -2.673438   1.000000
  506       -2.670220   1.000000
  507       -2.665774   1.000000
  508       -2.654102   1.000000
  509       -2.645639   1.000000
  510       -2.639866   1.000000
  511       -2.638573   1.000000
  512       -2.635926   1.000000
  513       -2.634527   1.000000
  514       -2.633501   1.000000
  515       -2.632066   1.000000
  516       -2.630426   1.000000
  517       -2.627253   1.000000
  518       -2.626937   1.000000
  519       -2.615363   1.000000
  520       -2.613428   1.000000
  521       -2.599869   1.000000
  522       -2.599046   1.000000
  523       -2.596382   1.000000
  524       -2.594386   1.000000
  525       -2.587855   1.000000
  526       -2.566605   1.000000
  527       -2.564834   1.000000
  528       -2.556669   1.000000
  529       -2.556558   1.000000
  530       -2.551776   1.000000
  531       -2.551636   1.000000
  532       -2.547006   1.000000
  533       -2.544177   1.000000
  534       -2.543202   1.000000
  535       -2.542123   1.000000
  536       -2.541216   1.000000
  537       -2.540822   1.000000
  538       -2.540079   1.000000
  539       -2.539812   1.000000
  540       -2.538748   1.000000
  541       -2.535429   1.000000
  542       -2.535050   1.000000
  543       -2.532249   1.000000
  544       -2.530656   1.000000
  545       -2.527457   1.000000
  546       -2.517281   1.000000
  547       -2.506615   1.000000
  548       -2.506193   1.000000
  549       -2.504323   1.000000
  550       -2.503092   1.000000
  551       -2.501609   1.000000
  552       -2.496683   1.000000
  553       -2.495256   1.000000
  554       -2.493993   1.000000
  555       -2.492231   1.000000
  556       -2.491997   1.000000
  557       -2.490709   1.000000
  558       -2.483082   1.000000
  559       -2.482490   1.000000
  560       -2.481624   1.000000
  561       -2.477525   1.000000
  562       -2.476925   1.000000
  563       -2.474780   1.000000
  564       -2.467503   1.000000
  565       -2.466670   1.000000
  566       -2.466003   1.000000
  567       -2.465447   1.000000
  568       -2.465004   1.000000
  569       -2.464815   1.000000
  570       -2.464118   1.000000
  571       -2.463479   1.000000
  572       -2.462434   1.000000
  573       -2.459459   1.000000
  574       -2.458995   1.000000
  575       -2.454237   1.000000
  576       -2.444485   1.000000
  577       -2.442310   1.000000
  578       -2.440352   1.000000
  579       -2.438835   1.000000
  580       -2.432679   1.000000
  581       -2.428835   1.000000
  582       -2.426165   1.000000
  583       -2.424029   1.000000
  584       -2.421335   1.000000
  585       -2.418903   1.000000
  586       -2.417548   1.000000
  587       -2.415635   1.000000
  588       -2.413017   1.000000
  589       -2.403497   1.000000
  590       -2.400748   1.000000
  591       -2.399429   1.000000
  592       -2.394463   1.000000
  593       -2.393604   1.000000
  594       -2.391061   1.000000
  595       -2.389395   1.000000
  596       -2.384516   1.000000
  597       -2.380061   1.000000
  598       -2.377830   1.000000
  599       -2.376403   1.000000
  600       -2.375388   1.000000
  601       -2.374650   1.000000
  602       -2.374086   1.000000
  603       -2.373722   1.000000
  604       -2.373337   1.000000
  605       -2.371011   1.000000
  606       -2.370838   1.000000
  607       -2.369571   1.000000
  608       -2.369340   1.000000
  609       -2.369014   1.000000
  610       -2.368332   1.000000
  611       -2.368301   1.000000
  612       -2.363549   1.000000
  613       -2.363220   1.000000
  614       -2.352867   1.000000
  615       -2.345299   1.000000
  616       -2.339795   1.000000
  617       -2.328650   1.000000
  618       -2.319138   1.000000
  619       -2.312106   1.000000
  620       -2.309986   1.000000
  621       -2.305771   1.000000
  622       -2.302442   1.000000
  623       -2.299109   1.000000
  624       -2.298408   1.000000
  625       -2.297693   1.000000
  626       -2.287292   1.000000
  627       -2.284199   1.000000
  628       -2.279316   1.000000
  629       -2.276718   1.000000
  630       -2.274424   1.000000
  631       -2.271946   1.000000
  632       -2.271061   1.000000
  633       -2.270981   1.000000
  634       -2.270551   1.000000
  635       -2.269990   1.000000
  636       -2.269664   1.000000
  637       -2.269241   1.000000
  638       -2.267777   1.000000
  639       -2.265922   1.000000
  640       -2.262290   1.000000
  641       -2.260288   1.000000
  642       -2.253075   1.000000
  643       -2.251255   1.000000
  644       -2.248253   1.000000
  645       -2.246401   1.000000
  646       -2.241815   1.000000
  647       -2.237303   1.000000
  648       -2.236719   1.000000
  649       -2.234565   1.000000
  650       -2.232442   1.000000
  651       -2.226632   1.000000
  652       -2.226471   1.000000
  653       -2.220524   1.000000
  654       -2.218969   1.000000
  655       -2.218619   1.000000
  656       -2.215076   1.000000
  657       -2.214178   1.000000
  658       -2.213882   1.000000
  659       -2.211990   1.000000
  660       -2.211083   1.000000
  661       -2.209405   1.000000
  662       -2.208117   1.000000
  663       -2.207990   1.000000
  664       -2.206175   1.000000
  665       -2.205863   1.000000
  666       -2.203337   1.000000
  667       -2.202344   1.000000
  668       -2.202243   1.000000
  669       -2.201336   1.000000
  670       -2.197461   1.000000
  671       -2.196872   1.000000
  672       -2.194720   1.000000
  673       -2.192570   1.000000
  674       -2.180712   1.000000
  675       -2.176949   1.000000
  676       -2.170297   1.000000
  677       -2.166103   1.000000
  678       -2.163743   1.000000
  679       -2.162282   1.000000
  680       -2.161465   1.000000
  681       -2.158881   1.000000
  682       -2.156652   1.000000
  683       -2.153599   1.000000
  684       -2.152810   1.000000
  685       -2.152500   1.000000
  686       -2.147827   1.000000
  687       -2.146835   1.000000
  688       -2.138702   1.000000
  689       -2.131663   1.000000
  690       -2.123094   1.000000
  691       -2.115872   1.000000
  692       -2.115789   1.000000
  693       -2.114464   1.000000
  694       -2.113094   1.000000
  695       -2.111983   1.000000
  696       -2.108819   1.000000
  697       -2.108201   1.000000
  698       -2.106898   1.000000
  699       -2.104929   1.000000
  700       -2.103851   1.000000
  701       -2.103392   1.000000
  702       -2.103083   1.000000
  703       -2.102758   1.000000
  704       -2.101300   1.000000
  705       -2.100710   1.000000
  706       -2.099305   1.000000
  707       -2.098821   1.000000
  708       -2.098359   1.000000
  709       -2.098185   1.000000
  710       -2.097782   1.000000
  711       -2.097513   1.000000
  712       -2.097256   1.000000
  713       -2.096123   1.000000
  714       -2.095350   1.000000
  715       -2.094748   1.000000
  716       -2.094115   1.000000
  717       -2.084593   1.000000
  718       -2.080150   1.000000
  719       -2.079626   1.000000
  720       -2.078647   1.000000
  721       -2.078308   1.000000
  722       -2.078035   1.000000
  723       -2.077641   1.000000
  724       -2.063334   1.000000
  725       -2.053430   1.000000
  726       -2.047947   1.000000
  727       -2.036665   1.000000
  728       -2.034506   1.000000
  729       -2.030380   1.000000
  730       -2.029546   1.000000
  731       -2.025732   1.000000
  732       -2.024917   1.000000
  733       -2.019804   1.000000
  734       -2.019366   1.000000
  735       -2.019223   1.000000
  736       -2.018695   1.000000
  737       -2.018554   1.000000
  738       -2.018090   1.000000
  739       -2.017370   1.000000
  740       -2.014672   1.000000
  741       -2.010532   1.000000
  742       -1.997030   1.000000
  743       -1.995830   1.000000
  744       -1.992654   1.000000
  745       -1.987420   1.000000
  746       -1.983813   1.000000
  747       -1.982761   1.000000
  748       -1.982245   1.000000
  749       -1.981400   1.000000
  750       -1.980814   1.000000
  751       -1.979703   1.000000
  752       -1.977627   1.000000
  753       -1.974249   1.000000
  754       -1.970729   1.000000
  755       -1.956616   1.000000
  756       -1.955346   1.000000
  757       -1.951924   1.000000
  758       -1.948336   1.000000
  759       -1.944616   1.000000
  760       -1.936751   1.000000
  761       -1.933285   1.000000
  762       -1.930836   1.000000
  763       -1.927686   1.000000
  764       -1.924157   1.000000
  765       -1.923801   1.000000
  766       -1.922012   1.000000
  767       -1.921239   1.000000
  768       -1.921045   1.000000
  769       -1.920562   1.000000
  770       -1.920083   1.000000
  771       -1.918695   1.000000
  772       -1.918508   1.000000
  773       -1.918048   1.000000
  774       -1.917758   1.000000
  775       -1.917200   1.000000
  776       -1.916335   1.000000
  777       -1.912371   1.000000
  778       -1.905004   1.000000
  779       -1.904777   1.000000
  780       -1.897039   1.000000
  781       -1.894752   1.000000
  782       -1.888672   1.000000
  783       -1.886203   1.000000
  784       -1.883964   1.000000
  785       -1.882249   1.000000
  786       -1.880508   1.000000
  787       -1.879740   1.000000
  788       -1.877662   1.000000
  789       -1.876608   1.000000
  790       -1.874844   1.000000
  791       -1.873109   1.000000
  792       -1.866827   1.000000
  793       -1.864155   1.000000
  794       -1.855049   1.000000
  795       -1.852862   1.000000
  796       -1.851553   1.000000
  797       -1.848417   1.000000
  798       -1.844704   1.000000
  799       -1.842850   1.000000
  800       -1.840812   1.000000
  801       -1.838801   1.000000
  802       -1.835688   1.000000
  803       -1.834898   1.000000
  804       -1.834099   1.000000
  805       -1.830348   1.000000
  806       -1.823068   1.000000
  807       -1.819744   1.000000
  808       -1.816055   1.000000
  809       -1.812025   1.000000
  810       -1.806845   1.000000
  811       -1.805988   1.000000
  812       -1.802120   1.000000
  813       -1.799674   1.000000
  814       -1.797540   1.000000
  815       -1.796976   1.000000
  816       -1.793310   1.000000
  817       -1.785066   1.000000
  818       -1.783585   1.000000
  819       -1.779278   1.000000
  820       -1.778889   1.000000
  821       -1.776166   1.000000
  822       -1.773676   1.000000
  823       -1.772813   1.000000
  824       -1.772272   1.000000
  825       -1.769177   1.000000
  826       -1.768898   1.000000
  827       -1.761816   1.000000
  828       -1.761296   1.000000
  829       -1.757410   1.000000
  830       -1.757213   1.000000
  831       -1.756166   1.000000
  832       -1.754452   1.000000
  833       -1.754330   1.000000
  834       -1.752187   1.000000
  835       -1.751722   1.000000
  836       -1.750749   1.000000
  837       -1.750132   1.000000
  838       -1.749691   1.000000
  839       -1.748901   1.000000
  840       -1.746647   1.000000
  841       -1.745168   1.000000
  842       -1.744407   1.000000
  843       -1.743280   1.000000
  844       -1.742882   1.000000
  845       -1.741095   1.000000
  846       -1.739482   1.000000
  847       -1.737783   1.000000
  848       -1.730802   1.000000
  849       -1.730452   1.000000
  850       -1.727845   1.000000
  851       -1.723098   1.000000
  852       -1.722634   1.000000
  853       -1.720670   1.000000
  854       -1.714515   1.000000
  855       -1.712721   1.000000
  856       -1.706991   1.000000
  857       -1.706846   1.000000
  858       -1.704275   1.000000
  859       -1.700787   1.000000
  860       -1.694459   1.000000
  861       -1.691028   1.000000
  862       -1.687556   1.000000
  863       -1.679802   1.000000
  864       -1.675458   1.000000
  865       -1.672430   1.000000
  866       -1.671068   1.000000
  867       -1.669613   1.000000
  868       -1.668137   1.000000
  869       -1.664442   1.000000
  870       -1.657210   1.000000
  871       -1.644689   1.000000
  872       -1.634667   1.000000
  873       -1.634219   1.000000
  874       -1.632214   1.000000
  875       -1.631311   1.000000
  876       -1.629952   1.000000
  877       -1.626651   1.000000
  878       -1.626129   1.000000
  879       -1.623721   1.000000
  880       -1.622057   1.000000
  881       -1.621818   1.000000
  882       -1.619770   1.000000
  883       -1.618645   1.000000
  884       -1.606841   1.000000
  885       -1.606395   1.000000
  886       -1.602613   1.000000
  887       -1.592524   1.000000
  888       -1.592188   1.000000
  889       -1.584089   1.000000
  890       -1.580974   1.000000
  891       -1.575372   1.000000
  892       -1.572822   1.000000
  893       -1.572194   1.000000
  894       -1.558389   1.000000
  895       -1.551116   1.000000
  896       -1.528911   1.000000
  897       -1.523418   1.000000
  898       -1.509833   1.000000
  899       -1.504890   1.000000
  900       -1.503822   1.000000
  901       -1.502289   1.000000