 254 254   0   0
  0.3019211E+02  0.1718057E-08  0.1718057E-08  0.3000000E-08  0.5000000E-15
  1.000000000000000E-004
  CAR 
 NiAl                                    
      5.39081198    -21.44203968  301      1.80849716      1.00000000
    -21.442  0.0000E+00  0.0000E+00
    -21.353  0.0000E+00  0.0000E+00
    -21.263  0.0000E+00  0.0000E+00
    -21.174  0.0000E+00  0.0000E+00
    -21.084  0.0000E+00  0.0000E+00
    -20.995  0.0000E+00  0.0000E+00
    -20.905  0.0000E+00  0.0000E+00
    -20.816  0.0000E+00  0.0000E+00
    -20.726  0.0000E+00  0.0000E+00
    -20.637  0.0000E+00  0.0000E+00
    -20.548  0.0000E+00  0.0000E+00
    -20.458  0.2852E-09  0.2551E-10
    -20.369  0.3873E-03  0.3464E-04
    -20.279  0.1198E+01  0.1072E+00
    -20.190  0.1716E+02  0.1642E+01
    -20.100  0.3997E+01  0.1999E+01
    -20.011  0.6293E-02  0.2000E+01
    -19.922  0.2515E-07  0.2000E+01
    -19.832  0.0000E+00  0.2000E+01
    -19.743  0.0000E+00  0.2000E+01
    -19.653  0.0000E+00  0.2000E+01
    -19.564  0.0000E+00  0.2000E+01
    -19.474  0.0000E+00  0.2000E+01
    -19.385  0.0000E+00  0.2000E+01
    -19.295  0.0000E+00  0.2000E+01
    -19.206  0.0000E+00  0.2000E+01
    -19.117  0.0000E+00  0.2000E+01
    -19.027  0.0000E+00  0.2000E+01
    -18.938  0.0000E+00  0.2000E+01
    -18.848  0.0000E+00  0.2000E+01
    -18.759  0.0000E+00  0.2000E+01
    -18.669  0.0000E+00  0.2000E+01
    -18.580  0.0000E+00  0.2000E+01
    -18.490  0.0000E+00  0.2000E+01
    -18.401  0.0000E+00  0.2000E+01
    -18.312  0.0000E+00  0.2000E+01
    -18.222  0.0000E+00  0.2000E+01
    -18.133  0.0000E+00  0.2000E+01
    -18.043  0.0000E+00  0.2000E+01
    -17.954  0.0000E+00  0.2000E+01
    -17.864  0.0000E+00  0.2000E+01
    -17.775  0.0000E+00  0.2000E+01
    -17.685  0.0000E+00  0.2000E+01
    -17.596  0.0000E+00  0.2000E+01
    -17.507  0.0000E+00  0.2000E+01
    -17.417  0.0000E+00  0.2000E+01
    -17.328  0.0000E+00  0.2000E+01
    -17.238  0.0000E+00  0.2000E+01
    -17.149  0.0000E+00  0.2000E+01
    -17.059  0.0000E+00  0.2000E+01
    -16.970  0.0000E+00  0.2000E+01
    -16.880  0.0000E+00  0.2000E+01
    -16.791  0.0000E+00  0.2000E+01
    -16.702  0.0000E+00  0.2000E+01
    -16.612  0.0000E+00  0.2000E+01
    -16.523  0.0000E+00  0.2000E+01
    -16.433  0.0000E+00  0.2000E+01
    -16.344  0.0000E+00  0.2000E+01
    -16.254  0.0000E+00  0.2000E+01
    -16.165  0.0000E+00  0.2000E+01
    -16.075  0.0000E+00  0.2000E+01
    -15.986  0.0000E+00  0.2000E+01
    -15.897  0.0000E+00  0.2000E+01
    -15.807  0.0000E+00  0.2000E+01
    -15.718  0.0000E+00  0.2000E+01
    -15.628  0.0000E+00  0.2000E+01
    -15.539  0.0000E+00  0.2000E+01
    -15.449  0.0000E+00  0.2000E+01
    -15.360  0.0000E+00  0.2000E+01
    -15.270  0.0000E+00  0.2000E+01
    -15.181  0.0000E+00  0.2000E+01
    -15.092  0.0000E+00  0.2000E+01
    -15.002  0.0000E+00  0.2000E+01
    -14.913  0.0000E+00  0.2000E+01
    -14.823  0.0000E+00  0.2000E+01
    -14.734  0.0000E+00  0.2000E+01
    -14.644  0.0000E+00  0.2000E+01
    -14.555  0.0000E+00  0.2000E+01
    -14.465  0.0000E+00  0.2000E+01
    -14.376  0.0000E+00  0.2000E+01
    -14.287  0.0000E+00  0.2000E+01
    -14.197  0.0000E+00  0.2000E+01
    -14.108  0.0000E+00  0.2000E+01
    -14.018  0.0000E+00  0.2000E+01
    -13.929  0.0000E+00  0.2000E+01
    -13.839  0.0000E+00  0.2000E+01
    -13.750  0.0000E+00  0.2000E+01
    -13.661  0.0000E+00  0.2000E+01
    -13.571  0.0000E+00  0.2000E+01
    -13.482  0.0000E+00  0.2000E+01
    -13.392  0.0000E+00  0.2000E+01
    -13.303  0.0000E+00  0.2000E+01
    -13.213  0.0000E+00  0.2000E+01
    -13.124  0.0000E+00  0.2000E+01
    -13.034  0.0000E+00  0.2000E+01
    -12.945  0.0000E+00  0.2000E+01
    -12.856  0.0000E+00  0.2000E+01
    -12.766  0.0000E+00  0.2000E+01
    -12.677  0.0000E+00  0.2000E+01
    -12.587  0.0000E+00  0.2000E+01
    -12.498  0.0000E+00  0.2000E+01
    -12.408  0.0000E+00  0.2000E+01
    -12.319  0.0000E+00  0.2000E+01
    -12.229  0.0000E+00  0.2000E+01
    -12.140  0.0000E+00  0.2000E+01
    -12.051  0.0000E+00  0.2000E+01
    -11.961  0.0000E+00  0.2000E+01
    -11.872  0.0000E+00  0.2000E+01
    -11.782  0.0000E+00  0.2000E+01
    -11.693  0.0000E+00  0.2000E+01
    -11.603  0.0000E+00  0.2000E+01
    -11.514  0.0000E+00  0.2000E+01
    -11.424  0.0000E+00  0.2000E+01
    -11.335  0.0000E+00  0.2000E+01
    -11.246  0.0000E+00  0.2000E+01
    -11.156  0.0000E+00  0.2000E+01
    -11.067  0.0000E+00  0.2000E+01
    -10.977  0.0000E+00  0.2000E+01
    -10.888  0.0000E+00  0.2000E+01
    -10.798  0.0000E+00  0.2000E+01
    -10.709  0.0000E+00  0.2000E+01
    -10.619  0.0000E+00  0.2000E+01
    -10.530  0.0000E+00  0.2000E+01
    -10.441  0.0000E+00  0.2000E+01
    -10.351  0.0000E+00  0.2000E+01
    -10.262  0.0000E+00  0.2000E+01
    -10.172  0.0000E+00  0.2000E+01
    -10.083  0.0000E+00  0.2000E+01
     -9.993  0.0000E+00  0.2000E+01
     -9.904  0.0000E+00  0.2000E+01
     -9.814  0.0000E+00  0.2000E+01
     -9.725  0.0000E+00  0.2000E+01
     -9.636  0.0000E+00  0.2000E+01
     -9.546  0.0000E+00  0.2000E+01
     -9.457  0.0000E+00  0.2000E+01
     -9.367  0.4692E-12  0.2000E+01
     -9.278  0.3586E-05  0.2000E+01
     -9.188  0.5799E-01  0.2005E+01
     -9.099  0.3218E+01  0.2293E+01
     -9.009  0.3109E+01  0.2571E+01
     -8.920  0.2305E+02  0.4633E+01
     -8.831  0.9738E+01  0.5504E+01
     -8.741  0.3550E+01  0.5821E+01
     -8.652  0.1679E+02  0.7323E+01
     -8.562  0.6247E+02  0.1291E+02
     -8.473  0.1812E+02  0.1453E+02
     -8.383  0.2579E+02  0.1684E+02
     -8.294  0.6016E+01  0.1738E+02
     -8.204  0.2655E+02  0.1975E+02
     -8.115  0.1175E+02  0.2080E+02
     -8.026  0.2943E+02  0.2343E+02
     -7.936  0.5362E+02  0.2823E+02
     -7.847  0.4721E+02  0.3245E+02
     -7.757  0.5246E+00  0.3250E+02
     -7.668  0.3712E+01  0.3283E+02
     -7.578  0.9088E+02  0.4096E+02
     -7.489  0.4141E+02  0.4467E+02
     -7.400  0.2618E+02  0.4701E+02
     -7.310  0.9021E+01  0.4781E+02
     -7.221  0.3096E+02  0.5058E+02
     -7.131  0.2446E+02  0.5277E+02
     -7.042  0.4615E+02  0.5690E+02
     -6.952  0.5800E+02  0.6209E+02
     -6.863  0.7624E+02  0.6890E+02
     -6.773  0.3374E+02  0.7192E+02
     -6.684  0.3603E+02  0.7515E+02
     -6.595  0.8382E+02  0.8264E+02
     -6.505  0.5164E+02  0.8726E+02
     -6.416  0.2691E+02  0.8967E+02
     -6.326  0.3739E+01  0.9000E+02
     -6.237  0.2821E+01  0.9025E+02
     -6.147  0.3032E+02  0.9297E+02
     -6.058  0.1230E+03  0.1040E+03
     -5.968  0.7326E+02  0.1105E+03
     -5.879  0.7682E+02  0.1174E+03
     -5.790  0.2293E+02  0.1194E+03
     -5.700  0.4589E+02  0.1235E+03
     -5.611  0.1016E+03  0.1326E+03
     -5.521  0.6578E+02  0.1385E+03
     -5.432  0.2749E+02  0.1410E+03
     -5.342  0.1670E+02  0.1425E+03
     -5.253  0.7966E+02  0.1496E+03
     -5.163  0.2943E+02  0.1522E+03
     -5.074  0.9304E+02  0.1605E+03
     -4.985  0.6903E+02  0.1667E+03
     -4.895  0.5756E+02  0.1719E+03
     -4.806  0.1263E+02  0.1730E+03
     -4.716  0.5918E+02  0.1783E+03
     -4.627  0.1288E+03  0.1898E+03
     -4.537  0.7381E+02  0.1964E+03
     -4.448  0.8362E+02  0.2039E+03
     -4.358  0.2942E+02  0.2065E+03
     -4.269  0.6772E+02  0.2126E+03
     -4.180  0.7614E+02  0.2194E+03
     -4.090  0.1390E+03  0.2318E+03
     -4.001  0.9857E+02  0.2406E+03
     -3.911  0.3977E+02  0.2442E+03
     -3.822  0.6445E+02  0.2500E+03
     -3.732  0.7271E+02  0.2565E+03
     -3.643  0.9581E+02  0.2650E+03
     -3.553  0.4720E+02  0.2693E+03
     -3.464  0.7119E+02  0.2756E+03
     -3.375  0.2037E+02  0.2774E+03
     -3.285  0.9792E+01  0.2783E+03
     -3.196  0.7823E+02  0.2853E+03
     -3.106  0.8363E+02  0.2928E+03
     -3.017  0.1182E+03  0.3034E+03
     -2.927  0.7452E+02  0.3100E+03
     -2.838  0.1293E+03  0.3216E+03
     -2.748  0.1630E+03  0.3362E+03
     -2.659  0.1438E+03  0.3490E+03
     -2.570  0.5058E+01  0.3495E+03
     -2.480  0.3274E+01  0.3498E+03
     -2.391  0.4418E+02  0.3537E+03
     -2.301  0.9449E+02  0.3622E+03
     -2.212  0.1342E+03  0.3742E+03
     -2.122  0.5582E+02  0.3792E+03
     -2.033  0.1002E+03  0.3882E+03
     -1.944  0.3750E+02  0.3915E+03
     -1.854  0.9366E+02  0.3999E+03
     -1.765  0.1363E+03  0.4121E+03
     -1.675  0.1083E+03  0.4218E+03
     -1.586  0.3285E+02  0.4247E+03
     -1.496  0.7813E+02  0.4317E+03
     -1.407  0.6121E+02  0.4372E+03
     -1.317  0.1496E+03  0.4505E+03
     -1.228  0.1280E+03  0.4620E+03
     -1.139  0.1172E+03  0.4725E+03
     -1.049  0.6799E+02  0.4786E+03
     -0.960  0.7556E+02  0.4853E+03
     -0.870  0.9120E+02  0.4935E+03
     -0.781  0.1385E+03  0.5059E+03
     -0.691  0.7117E+02  0.5122E+03
     -0.602  0.4693E+02  0.5164E+03
     -0.512  0.4814E+02  0.5207E+03
     -0.423  0.1562E+03  0.5347E+03
     -0.334  0.1806E+03  0.5509E+03
     -0.244  0.8470E+02  0.5584E+03
     -0.155  0.1324E+03  0.5703E+03
     -0.065  0.4400E+02  0.5742E+03
      0.024  0.2843E+02  0.5768E+03
      0.114  0.1234E+03  0.5878E+03
      0.203  0.6614E+02  0.5937E+03
      0.293  0.1020E+03  0.6028E+03
      0.382  0.7752E+02  0.6098E+03
      0.471  0.9043E+02  0.6179E+03
      0.561  0.1462E+03  0.6309E+03
      0.650  0.6160E+02  0.6364E+03
      0.740  0.5448E+02  0.6413E+03
      0.829  0.4113E+02  0.6450E+03
      0.919  0.7377E+02  0.6516E+03
      1.008  0.2433E+03  0.6733E+03
      1.098  0.1706E+03  0.6886E+03
      1.187  0.1018E+03  0.6977E+03
      1.276  0.7874E+02  0.7048E+03
      1.366  0.5992E+02  0.7101E+03
      1.455  0.8629E+02  0.7178E+03
      1.545  0.1118E+03  0.7278E+03
      1.634  0.1586E+03  0.7420E+03
      1.724  0.1858E+03  0.7586E+03
      1.813  0.8437E+02  0.7662E+03
      1.903  0.2485E+02  0.7684E+03
      1.992  0.1401E+03  0.7809E+03
      2.081  0.1464E+03  0.7940E+03
      2.171  0.7053E+02  0.8003E+03
      2.260  0.8294E+02  0.8078E+03
      2.350  0.4958E+02  0.8122E+03
      2.439  0.1095E+03  0.8220E+03
      2.529  0.1140E+03  0.8322E+03
      2.618  0.1295E+03  0.8438E+03
      2.708  0.1263E+03  0.8551E+03
      2.797  0.6797E+02  0.8612E+03
      2.886  0.8368E+02  0.8686E+03
      2.976  0.3154E+03  0.8968E+03
      3.065  0.2002E+03  0.9148E+03
      3.155  0.5203E+02  0.9194E+03
      3.244  0.7444E+02  0.9261E+03
      3.334  0.1112E+03  0.9360E+03
      3.423  0.1388E+03  0.9484E+03
      3.513  0.1438E+03  0.9613E+03
      3.602  0.7545E+02  0.9680E+03
      3.691  0.9891E+02  0.9769E+03
      3.781  0.9693E+02  0.9855E+03
      3.870  0.6487E+02  0.9914E+03
      3.960  0.1479E+03  0.1005E+04
      4.049  0.1728E+03  0.1020E+04
      4.139  0.1052E+03  0.1029E+04
      4.228  0.2787E+02  0.1032E+04
      4.317  0.7207E+00  0.1032E+04
      4.407  0.1663E-03  0.1032E+04
      4.496  0.1032E-09  0.1032E+04
      4.586  0.0000E+00  0.1032E+04
      4.675  0.0000E+00  0.1032E+04
      4.765  0.0000E+00  0.1032E+04
      4.854  0.0000E+00  0.1032E+04
      4.944  0.0000E+00  0.1032E+04
      5.033  0.0000E+00  0.1032E+04
      5.122  0.0000E+00  0.1032E+04
      5.212  0.0000E+00  0.1032E+04
      5.301  0.0000E+00  0.1032E+04
      5.391  0.0000E+00  0.1032E+04
