 vasp.5.4.4.18Apr17-6-g9f103f2a35 (build May 02 2017 15:33:50) complex          
  
 executed on Intel-16.0.3.210-OMP date 2018.08.08  19:34:03
 running on    6 total cores
 distrk:  each k-point on    6 cores,    1 groups
 distr:  one band on NCORES_PER_BAND=   1 cores,    6 groups


--------------------------------------------------------------------------------------------------------


 INCAR:
 POTCAR:    PAW Al_GW 19Mar2012                   
 POTCAR:    PAW_PBE N 08Apr2002                   

 ----------------------------------------------------------------------------- 
|                                                                             |
|           W    W    AA    RRRRR   N    N  II  N    N   GGGG   !!!           |
|           W    W   A  A   R    R  NN   N  II  NN   N  G    G  !!!           |
|           W    W  A    A  R    R  N N  N  II  N N  N  G       !!!           |
|           W WW W  AAAAAA  RRRRR   N  N N  II  N  N N  G  GGG   !            |
|           WW  WW  A    A  R   R   N   NN  II  N   NN  G    G                |
|           W    W  A    A  R    R  N    N  II  N    N   GGGG   !!!           |
|                                                                             |
|      For optimal performance we recommend to set                            |
|        NCORE= 4 - approx SQRT( number of cores)                             |
|      NCORE specifies how many cores store one orbital (NPAR=cpu/NCORE).     |
|      This setting can  greatly improve the performance of VASP for DFT.     |
|      The default,   NCORE=1            might be grossly inefficient         |
|      on modern multi-core architectures or massively parallel machines.     |
|      Do your own testing !!!!                                               |
|      Unfortunately you need to use the default for GW and RPA calculations. |
|      (for HF NCORE is supported but not extensively tested yet)             |
|                                                                             |
 ----------------------------------------------------------------------------- 

 POTCAR:    PAW Al_GW 19Mar2012                   
   VRHFIN =Al: s2p1                                                             
   LEXCH  = PE                                                                  
   EATOM  =    53.5387 eV,    3.9350 Ry                                         
                                                                                
   TITEL  = PAW Al_GW 19Mar2012                                                 
   LULTRA =        F    use ultrasoft PP ?                                      
   IUNSCR =        1    unscreen: 0-lin 1-nonlin 2-no                           
   RPACOR =    1.500    partial core radius                                     
   POMASS =   26.982; ZVAL   =    3.000    mass and valenz                      
   RCORE  =    2.000    outmost cutoff radius                                   
   RWIGS  =    2.000; RWIGS  =    1.058    wigner-seitz radius (au A)           
   ENMAX  =  240.300; ENMIN  =  180.225 eV                                      
   ICORE  =        3    local potential                                         
   LCOR   =        T    correct aug charges                                     
   LPAW   =        T    paw PP                                                  
   EAUG   =  482.059                                                            
   DEXC   =    0.000                                                            
   RMAX   =    2.051    core radius for proj-oper                               
   RAUG   =    1.300    factor for augmentation sphere                          
   RDEP   =    2.096    radius for radial grids                                 
   RDEPT  =    1.856    core radius for aug-charge                              
                                                                                
   Atomic configuration                                                         
    7 entries                                                                   
     n  l   j            E        occ.                                          
     1  0  0.50     -1511.1048   2.0000                                         
     2  0  0.50      -108.1629   2.0000                                         
     2  1  1.50       -69.6402   6.0000                                         
     3  0  0.50        -7.7528   2.0000                                         
     3  1  1.50        -2.7121   1.0000                                         
     3  2  2.50        -2.7212   0.0000                                         
     4  3  2.50        -2.7212   0.0000                                         
   Description                                                                  
     l       E           TYP  RCUT    TYP  RCUT                                 
     0     -7.7528455     23  1.900                                             
     0     68.0291300     23  1.900                                             
     1     -2.7120682     23  1.900                                             
     1     68.0291300     23  1.900                                             
     2     -1.3605826     23  1.900                                             
     2     81.6349560     23  1.900                                             
     3     74.8320430     23  2.000                                             
  local pseudopotential read in
  partial core-charges read in
  partial kinetic energy density read in
  kinetic energy density of atom read in
  atomic valenz-charges read in
  non local Contribution for L=           0  read in
    real space projection operators read in
  non local Contribution for L=           0  read in
    real space projection operators read in
  non local Contribution for L=           1  read in
    real space projection operators read in
  non local Contribution for L=           1  read in
    real space projection operators read in
  non local Contribution for L=           2  read in
    real space projection operators read in
  non local Contribution for L=           2  read in
    real space projection operators read in
    PAW grid and wavefunctions read in
 
   number of l-projection  operators is LMAX  =           6
   number of lm-projection operators is LMMAX =          18
 
 POTCAR:    PAW_PBE N 08Apr2002                   
   VRHFIN =N: s2p3                                                              
   LEXCH  = PE                                                                  
   EATOM  =   264.5486 eV,   19.4438 Ry                                         
                                                                                
   TITEL  = PAW_PBE N 08Apr2002                                                 
   LULTRA =        F    use ultrasoft PP ?                                      
   IUNSCR =        1    unscreen: 0-lin 1-nonlin 2-no                           
   RPACOR =    1.200    partial core radius                                     
   POMASS =   14.001; ZVAL   =    5.000    mass and valenz                      
   RCORE  =    1.500    outmost cutoff radius                                   
   RWIGS  =    1.400; RWIGS  =    0.741    wigner-seitz radius (au A)           
   ENMAX  =  400.000; ENMIN  =  300.000 eV                                      
   ICORE  =        2    local potential                                         
   LCOR   =        T    correct aug charges                                     
   LPAW   =        T    paw PP                                                  
   EAUG   =  627.112                                                            
   DEXC   =    0.000                                                            
   RMAX   =    1.529    core radius for proj-oper                               
   RAUG   =    1.300    factor for augmentation sphere                          
   RDEP   =    1.514    radius for radial grids                                 
   RDEPT  =    1.338    core radius for aug-charge                              
                                                                                
   Atomic configuration                                                         
    4 entries                                                                   
     n  l   j            E        occ.                                          
     1  0  0.50      -384.7179   2.0000                                         
     2  0  0.50       -18.5828   2.0000                                         
     2  1  0.50        -7.0898   3.0000                                         
     3  2  1.50        -6.8029   0.0000                                         
   Description                                                                  
     l       E           TYP  RCUT    TYP  RCUT                                 
     0    -18.5828119     23  1.200                                             
     0    -13.5018863     23  1.200                                             
     1     -7.0897853     23  1.500                                             
     1      9.5240782     23  1.500                                             
     2     -6.8029130      7  1.500                                             
  local pseudopotential read in
  partial core-charges read in
  partial kinetic energy density read in
  atomic valenz-charges read in
  non local Contribution for L=           0  read in
    real space projection operators read in
  non local Contribution for L=           0  read in
    real space projection operators read in
  non local Contribution for L=           1  read in
    real space projection operators read in
  non local Contribution for L=           1  read in
    real space projection operators read in
    PAW grid and wavefunctions read in
 
   number of l-projection  operators is LMAX  =           4
   number of lm-projection operators is LMMAX =           8
 
 Optimization of the real space projectors (new method)

 maximal supplied QI-value         = 18.90
 optimisation between [QCUT,QGAM] = [  8.69, 17.57] = [ 21.16, 86.49] Ry 
 Optimized for a Real-space Cutoff    1.59 Angstroem

   l    n(q)    QCUT    max X(q) W(low)/X(q) W(high)/X(q)  e(spline) 
   0      8     8.693    11.519    0.12E-03    0.31E-04    0.21E-06
   0      8     8.693     5.834    0.89E-04    0.32E-04    0.16E-06
   1      8     8.693    10.132    0.25E-03    0.39E-03    0.25E-06
   1      8     8.693     3.004    0.16E-03    0.27E-03    0.22E-06
   2      7     8.693     3.169    0.39E-03    0.93E-03    0.44E-06
   2      7     8.693     1.605    0.70E-04    0.91E-04    0.19E-06
 Optimization of the real space projectors (new method)

 maximal supplied QI-value         = 25.13
 optimisation between [QCUT,QGAM] = [  8.80, 17.59] = [ 21.67, 86.68] Ry 
 Optimized for a Real-space Cutoff    2.14 Angstroem

   l    n(q)    QCUT    max X(q) W(low)/X(q) W(high)/X(q)  e(spline) 
   0     11     8.797    79.467    0.70E-04    0.19E-04    0.19E-05
   0     11     8.797    66.151    0.68E-04    0.18E-04    0.19E-05
   1     11     8.797     6.738    0.26E-03    0.11E-02    0.73E-05
   1     11     8.797     5.013    0.25E-03    0.11E-02    0.72E-05
  PAW Al_GW 19Mar2012                   :
 energy of atom  1       EATOM=  -53.5387
 kinetic energy error for atom=    0.0011 (will be added to EATOM!!)
  PAW_PBE N 08Apr2002                   :
 energy of atom  2       EATOM= -264.5486
 kinetic energy error for atom=    0.6882 (will be added to EATOM!!)
 
 
 POSCAR: New structure                           
  positions in cartesian coordinates
  No initial velocities read in
 exchange correlation table for  LEXCH =        8
   RHO(1)=    0.500       N(1)  =     2000
   RHO(2)=  100.500       N(2)  =     4000
 


--------------------------------------------------------------------------------------------------------


 ion  position               nearest neighbor table
   1  0.444  0.444  0.079-
   2  0.444  0.778  0.079-
   3  0.444  0.111  0.079-
   4  0.778  0.444  0.079-
   5  0.778  0.778  0.079-
   6  0.778  0.111  0.079-
   7  0.111  0.444  0.079-
   8  0.111  0.778  0.079-
   9  0.111  0.111  0.079-
  10  0.556  0.556  0.157-
  11  0.556  0.889  0.157-
  12  0.556  0.222  0.157-
  13  0.889  0.556  0.157-
  14  0.889  0.889  0.157-
  15  0.889  0.222  0.157-
  16  0.222  0.556  0.157-
  17  0.222  0.889  0.157-
  18  0.222  0.222  0.157-
  19  0.667  0.667  0.234-
  20  0.667  0.000  0.234-
  21  0.667  0.333  0.234-
  22  0.000  0.667  0.234-
  23  0.000  0.000  0.234-
  24  0.000  0.333  0.234-
  25  0.333  0.667  0.234-
  26  0.333  0.000  0.234-
  27  0.333  0.333  0.234-
  28  0.778  0.778  0.312-
  29  0.778  0.111  0.312-
  30  0.778  0.444  0.312-
  31  0.111  0.778  0.312-
  32  0.111  0.111  0.312-
  33  0.111  0.444  0.312-
  34  0.444  0.778  0.312-
  35  0.444  0.111  0.312-
  36  0.444  0.444  0.312-
  37  0.889  0.889  0.390-
  38  0.889  0.222  0.390-
  39  0.889  0.556  0.390-
  40  0.222  0.889  0.390-
  41  0.222  0.222  0.390-
  42  0.222  0.556  0.390-
  43  0.556  0.889  0.390-
  44  0.556  0.222  0.390-
  45  0.556  0.556  0.390-
  46  0.000  0.000  0.466-
  47  0.000  0.333  0.466-
  48  0.000  0.667  0.466-
  49  0.333  0.000  0.466-
  50  0.333  0.333  0.466-
  51  0.333  0.667  0.466-
  52  0.667  0.000  0.466-
  53  0.667  0.333  0.466-
  54  0.667  0.667  0.466-
  55  0.111  0.111  0.545-
  56  0.111  0.444  0.545-
  57  0.111  0.778  0.545-
  58  0.444  0.111  0.545-
  59  0.444  0.444  0.545-
  60  0.444  0.778  0.545-
  61  0.778  0.111  0.545-
  62  0.778  0.444  0.545-
  63  0.778  0.778  0.545-
  64  0.278  0.278  0.079-
  65  0.278  0.611  0.079-
  66  0.278  0.944  0.079-
  67  0.611  0.278  0.079-
  68  0.611  0.611  0.079-
  69  0.611  0.944  0.079-
  70  0.944  0.278  0.079-
  71  0.944  0.611  0.079-
  72  0.944  0.944  0.079-
  73  0.389  0.389  0.157-
  74  0.389  0.722  0.157-
  75  0.389  0.056  0.157-
  76  0.722  0.389  0.157-
  77  0.722  0.722  0.157-
  78  0.722  0.056  0.157-
  79  0.056  0.389  0.157-
  80  0.056  0.722  0.157-
  81  0.056  0.056  0.157-
  82  0.500  0.500  0.234-
  83  0.500  0.833  0.234-
  84  0.500  0.167  0.234-
  85  0.833  0.500  0.234-
  86  0.833  0.833  0.234-
  87  0.833  0.167  0.234-
  88  0.167  0.500  0.234-
  89  0.167  0.833  0.234-
  90  0.167  0.167  0.234-
  91  0.611  0.611  0.312-
  92  0.611  0.944  0.312-
  93  0.611  0.278  0.312-
  94  0.944  0.611  0.312-
  95  0.944  0.944  0.312-
  96  0.944  0.278  0.312-
  97  0.278  0.611  0.312-
  98  0.278  0.944  0.312-
  99  0.278  0.278  0.312-
 100  0.722  0.722  0.390-
 101  0.722  0.056  0.390-
 102  0.722  0.389  0.390-
 103  0.056  0.722  0.390-
 104  0.056  0.056  0.390-
 105  0.056  0.389  0.390-
 106  0.389  0.722  0.390-
 107  0.389  0.056  0.390-
 108  0.389  0.389  0.390-
 109  0.833  0.833  0.466-
 110  0.833  0.167  0.466-
 111  0.833  0.500  0.466-
 112  0.167  0.833  0.466-
 113  0.167  0.167  0.466-
 114  0.167  0.500  0.466-
 115  0.500  0.833  0.466-
 116  0.500  0.167  0.466-
 117  0.500  0.500  0.466-
 118  0.944  0.944  0.545-
 119  0.944  0.278  0.545-
 120  0.944  0.611  0.545-
 121  0.278  0.944  0.545-
 122  0.278  0.278  0.545-
 123  0.278  0.611  0.545-
 124  0.611  0.944  0.545-
 125  0.611  0.278  0.545-
 126  0.611  0.611  0.545-
 127  0.278  0.444  0.079-
 128  0.278  0.778  0.079-
 129  0.278  0.111  0.079-
 130  0.611  0.444  0.079-
 131  0.611  0.778  0.079-
 132  0.611  0.111  0.079-
 133  0.944  0.444  0.079-
 134  0.944  0.778  0.079-
 135  0.944  0.111  0.079-
 136  0.389  0.556  0.157-
 137  0.389  0.889  0.157-
 138  0.389  0.222  0.157-
 139  0.722  0.556  0.157-
 140  0.722  0.889  0.157-
 141  0.722  0.222  0.157-
 142  0.056  0.556  0.157-
 143  0.056  0.889  0.157-
 144  0.056  0.222  0.157-
 145  0.500  0.667  0.234-
 146  0.500  0.000  0.234-
 147  0.500  0.333  0.234-
 148  0.833  0.667  0.234-
 149  0.833  0.000  0.234-
 150  0.833  0.333  0.234-
 151  0.167  0.667  0.234-
 152  0.167  0.000  0.234-
 153  0.167  0.333  0.234-
 154  0.611  0.778  0.312-
 155  0.611  0.111  0.312-
 156  0.611  0.444  0.312-
 157  0.944  0.778  0.312-
 158  0.944  0.111  0.312-
 159  0.944  0.444  0.312-
 160  0.278  0.778  0.312-
 161  0.278  0.111  0.312-
 162  0.278  0.444  0.312-
 163  0.722  0.889  0.390-
 164  0.722  0.222  0.390-
 165  0.722  0.556  0.390-
 166  0.056  0.889  0.390-
 167  0.056  0.222  0.390-
 168  0.056  0.556  0.390-
 169  0.389  0.889  0.390-
 170  0.389  0.222  0.390-
 171  0.389  0.556  0.390-
 172  0.833  0.000  0.466-
 173  0.833  0.333  0.466-
 174  0.833  0.667  0.466-
 175  0.167  0.000  0.466-
 176  0.167  0.333  0.466-
 177  0.167  0.667  0.466-
 178  0.500  0.000  0.466-
 179  0.500  0.333  0.466-
 180  0.500  0.667  0.466-
 181  0.944  0.111  0.545-
 182  0.944  0.444  0.545-
 183  0.944  0.778  0.545-
 184  0.278  0.111  0.545-
 185  0.278  0.444  0.545-
 186  0.278  0.778  0.545-
 187  0.611  0.111  0.545-
 188  0.611  0.444  0.545-
 189  0.611  0.778  0.545-
 190  0.444  0.278  0.079-
 191  0.444  0.611  0.079-
 192  0.444  0.944  0.079-
 193  0.778  0.278  0.079-
 194  0.778  0.611  0.079-
 195  0.778  0.944  0.079-
 196  0.111  0.278  0.079-
 197  0.111  0.611  0.079-
 198  0.111  0.944  0.079-
 199  0.556  0.389  0.157-
 200  0.556  0.722  0.157-
 201  0.556  0.056  0.157-
 202  0.889  0.389  0.157-
 203  0.889  0.722  0.157-
 204  0.889  0.056  0.157-
 205  0.222  0.389  0.157-
 206  0.222  0.722  0.157-
 207  0.222  0.056  0.157-
 208  0.667  0.500  0.234-
 209  0.667  0.833  0.234-
 210  0.667  0.167  0.234-
 211  1.000  0.500  0.234-
 212  1.000  0.833  0.234-
 213  1.000  0.167  0.234-
 214  0.333  0.500  0.234-
 215  0.333  0.833  0.234-
 216  0.333  0.167  0.234-
 217  0.778  0.611  0.312-
 218  0.778  0.944  0.312-
 219  0.778  0.278  0.312-
 220  0.111  0.611  0.312-
 221  0.111  0.944  0.312-
 222  0.111  0.278  0.312-
 223  0.444  0.611  0.312-
 224  0.444  0.944  0.312-
 225  0.444  0.278  0.312-
 226  0.889  0.722  0.390-
 227  0.889  0.056  0.390-
 228  0.889  0.389  0.390-
 229  0.222  0.722  0.390-
 230  0.222  0.056  0.390-
 231  0.222  0.389  0.390-
 232  0.556  0.722  0.390-
 233  0.556  0.056  0.390-
 234  0.556  0.389  0.390-
 235  1.000  0.833  0.466-
 236  1.000  0.167  0.466-
 237  1.000  0.500  0.466-
 238  0.333  0.833  0.466-
 239  0.333  0.167  0.466-
 240  0.333  0.500  0.466-
 241  0.667  0.833  0.466-
 242  0.667  0.167  0.466-
 243  0.667  0.500  0.466-
 244  0.111  0.944  0.545-
 245  0.111  0.278  0.545-
 246  0.111  0.611  0.545-
 247  0.444  0.944  0.545-
 248  0.444  0.278  0.545-
 249  0.444  0.611  0.545-
 250  0.778  0.944  0.545-
 251  0.778  0.278  0.545-
 252  0.778  0.611  0.545-
 253  0.340  0.487  0.668- 254 1.25
 254  0.382  0.402  0.668- 253 1.25
 
  LATTYP: Found a hexagonal cell.
 ALAT       =    17.1805734625
 C/A-ratio  =     1.7461582447
  
  Lattice vectors:
  
 A1 = (   0.0000000000,  -8.5902867312,  14.8788130701)
 A2 = (   0.0000000000,  17.1805734625,   0.0000000000)
 A3 = ( -30.0000000000,   0.0000000000,   0.0000000000)


Analysis of symmetry for initial positions (statically):
=====================================================================
 Subroutine PRICEL returns:
 Original cell was already a primitive cell.
 

 Routine SETGRP: Setting up the symmetry group for a 
 hexagonal supercell.


 Subroutine GETGRP returns: Found  2 space group operations
 (whereof  1 operations were pure point group operations)
 out of a pool of 24 trial point group operations.


The static configuration has the point symmetry C_1 .
 The point group associated with its full space group is C_1h.


Analysis of symmetry for dynamics (positions and initial velocities):
=====================================================================
 Subroutine PRICEL returns:
 Original cell was already a primitive cell.
 

 Routine SETGRP: Setting up the symmetry group for a 
 hexagonal supercell.


 Subroutine GETGRP returns: Found  2 space group operations
 (whereof  1 operations were pure point group operations)
 out of a pool of 24 trial point group operations.


The dynamic configuration has the point symmetry C_1 .
 The point group associated with its full space group is C_1h.


 Subroutine INISYM returns: Found  2 space group operations
 (whereof  1 operations are pure point group operations),
 and found     1 'primitive' translations

 
 
 KPOINTS: Automatic generation                    

Automatic generation of k-mesh.
Space group operators:
 irot       det(A)        alpha          n_x          n_y          n_z        tau_x        tau_y        tau_z
    1     1.000000     0.000000     1.000000     0.000000     0.000000     0.000000     0.000000     0.000000
    2    -1.000000   180.000000     0.000000     1.000000     0.000000    -0.833333     0.000000     0.000000
 
 Subroutine IBZKPT returns following result:
 ===========================================
 
 Found      3 irreducible k-points:
 
 Following reciprocal coordinates:
            Coordinates               Weight
  0.000000  0.000000  0.000000      1.000000
  0.500000  0.000000  0.000000      2.000000
  0.000000  0.500000  0.000000      1.000000
 
 Following cartesian coordinates:
            Coordinates               Weight
  0.000000  0.000000  0.000000      1.000000
  0.000000 -0.029103  0.016802      2.000000
  0.000000  0.000000 -0.033605      1.000000
 


--------------------------------------------------------------------------------------------------------




 Dimension of arrays:
   k-points           NKPTS =      3   k-points in BZ     NKDIM =      3   number of bands    NBANDS=    516
   number of dos      NEDOS =    301   number of ions     NIONS =    254
   non local maximal  LDIM  =      6   non local SUM 2l+1 LMDIM =     18
   total plane-waves  NPLWV = 819200
   max r-space proj   IRMAX =   4449   max aug-charges    IRDMAX=   4357
   dimension x,y,z NGX =    80 NGY =   80 NGZ =  128
   dimension x,y,z NGXF=   160 NGYF=  160 NGZF=  256
   support grid    NGXF=   160 NGYF=  160 NGZF=  256
   ions per type =             252   2
   NGX,Y,Z   is equivalent  to a cutoff of   7.74,  7.74,  7.09 a.u.
   NGXF,Y,Z  is equivalent  to a cutoff of  15.48, 15.48, 14.19 a.u.

 SYSTEM =  NiAl                                    
 POSCAR =  New structure                           

 Startparameter for this run:
   NWRITE =      2    write-flag & timer
   PREC   = normal    normal or accurate (medium, high low for compatibility)
   ISTART =      0    job   : 0-new  1-cont  2-samecut
   ICHARG =      2    charge: 1-file 2-atom 10-const
   ISPIN  =      1    spin polarized calculation?
   LNONCOLLINEAR =      F non collinear calculations
   LSORBIT =      F    spin-orbit coupling
   INIWAV =      1    electr: 0-lowe 1-rand  2-diag
   LASPH  =      F    aspherical Exc in radial PAW
   METAGGA=      F    non-selfconsistent MetaGGA calc.

 Electronic Relaxation 1
   ENCUT  =  300.0 eV  22.05 Ry    4.70 a.u.  24.26 24.26 42.37*2*pi/ulx,y,z
   ENINI  =  300.0     initial cutoff
   ENAUG  =  627.1 eV  augmentation charge cutoff
   NELM   =     60;   NELMIN=  6; NELMDL= -5     # of ELM steps 
   EDIFF  = 0.5E-05   stopping-criterion for ELM
   LREAL  =      T    real-space projection
   NLSPLINE    = F    spline interpolate recip. space projectors
   LCOMPAT=      F    compatible to vasp.4.4
   GGA_COMPAT  = T    GGA compatible to vasp.4.4-vasp.4.6
   LMAXPAW     = -100 max onsite density
   LMAXMIX     =    2 max onsite mixed and CHGCAR
   VOSKOWN=      0    Vosko Wilk Nusair interpolation
   ROPT   =   -0.00050  -0.00050
 Ionic relaxation
   EDIFFG = 0.5E-04   stopping-criterion for IOM
   NSW    =      0    number of steps for IOM
   NBLOCK =      1;   KBLOCK =      1    inner block; outer block 
   IBRION =     -1    ionic relax: 0-MD 1-quasi-New 2-CG
   NFREE  =      0    steps in history (QN), initial steepest desc. (CG)
   ISIF   =      0    stress and relaxation
   IWAVPR =     10    prediction:  0-non 1-charg 2-wave 3-comb
   ISYM   =      2    0-nonsym 1-usesym 2-fastsym
   LCORR  =      T    Harris-Foulkes like correction to forces

   POTIM  = 0.5000    time-step for ionic-motion
   TEIN   =    0.0    initial temperature
   TEBEG  =    0.0;   TEEND  =   0.0 temperature during run
   SMASS  =  -3.00    Nose mass-parameter (am)
   estimated Nose-frequenzy (Omega)   =  0.10E-29 period in steps =****** mass=  -0.675E-26a.u.
   SCALEE = 1.0000    scale energy and forces
   NPACO  =    256;   APACO  = 16.0  distance and # of slots for P.C.
   PSTRESS=    0.0 pullay stress

  Mass of Ions in am
   POMASS =  26.98 14.00
  Ionic Valenz
   ZVAL   =   3.00  5.00
  Atomic Wigner-Seitz radii
   RWIGS  =  -1.00 -1.00
  virtual crystal weights 
   VCA    =   1.00  1.00
   NELECT =     766.0000    total number of electrons
   NUPDOWN=      -1.0000    fix difference up-down

 DOS related values:
   EMIN   =  10.00;   EMAX   =-10.00  energy-range for DOS
   EFERMI =   0.00
   ISMEAR =     0;   SIGMA  =   0.05  broadening in eV -4-tet -1-fermi 0-gaus

 Electronic relaxation 2 (details)
   IALGO  =     38    algorithm
   LDIAG  =      T    sub-space diagonalisation (order eigenvalues)
   LSUBROT=      F    optimize rotation matrix (better conditioning)
   TURBO    =      0    0=normal 1=particle mesh
   IRESTART =      0    0=no restart 2=restart with 2 vectors
   NREBOOT  =      0    no. of reboots
   NMIN     =      0    reboot dimension
   EREF     =   0.00    reference energy to select bands
   IMIX   =      4    mixing-type and parameters
     AMIX     =   0.40;   BMIX     =  1.00
     AMIX_MAG =   1.60;   BMIX_MAG =  1.00
     AMIN     =   0.10
     WC   =   100.;   INIMIX=   1;  MIXPRE=   1;  MAXMIX= -45

 Intra band minimization:
   WEIMIN = 0.0000     energy-eigenvalue tresh-hold
   EBREAK =  0.24E-08  absolut break condition
   DEPER  =   0.30     relativ break condition  

   TIME   =   0.40     timestep for ELM

  volume/ion in A,a.u.               =      30.19       203.75
  Fermi-wavevector in a.u.,A,eV,Ry     =   0.759583  1.435404  7.850108  0.576967
  Thomas-Fermi vector in A             =   1.858410
 
 Write flags
   LWAVE        =      F    write WAVECAR
   LDOWNSAMPLE  =      F    k-point downsampling of WAVECAR
   LCHARG       =      F    write CHGCAR
   LVTOT        =      F    write LOCPOT, total local potential
   LVHAR        =      F    write LOCPOT, Hartree potential only
   LELF         =      F    write electronic localiz. function (ELF)
   LORBIT       =      0    0 simple, 1 ext, 2 COOP (PROOUT), +10 PAW based schemes


 Dipole corrections
   LMONO  =      F    monopole corrections only (constant potential shift)
   LDIPOL =      F    correct potential (dipole corrections)
   IDIPOL =      0    1-x, 2-y, 3-z, 4-all directions 
   EPSILON=  1.0000000 bulk dielectric constant

 Exchange correlation treatment:
   GGA     =    --    GGA type
   LEXCH   =     8    internal setting for exchange type
   VOSKOWN=      0    Vosko Wilk Nusair interpolation
   LHFCALC =     F    Hartree Fock is set to
   LHFONE  =     F    Hartree Fock one center treatment
   AEXX    =    0.0000 exact exchange contribution

 Linear response parameters
   LEPSILON=     F    determine dielectric tensor
   LRPA    =     F    only Hartree local field effects (RPA)
   LNABLA  =     F    use nabla operator in PAW spheres
   LVEL    =     F    velocity operator in full k-point grid
   LINTERFAST=   F  fast interpolation
   KINTER  =     0    interpolate to denser k-point grid
   CSHIFT  =0.1000    complex shift for real part using Kramers Kronig
   OMEGAMAX=  -1.0    maximum frequency
   DEG_THRESHOLD= 0.2000000E-02 threshold for treating states as degnerate
   RTIME   =   -0.100 relaxation time in fs
  (WPLASMAI=    0.000 imaginary part of plasma frequency in eV, 0.658/RTIME)
   DFIELD  = 0.0000000 0.0000000 0.0000000 field for delta impulse in time
 
 Orbital magnetization related:
   ORBITALMAG=     F  switch on orbital magnetization
   LCHIMAG   =     F  perturbation theory with respect to B field
   DQ        =  0.001000  dq finite difference perturbation B field
   LLRAUG    =     F  two centre corrections for induced B field



--------------------------------------------------------------------------------------------------------


 Static calculation
 charge density and potential will be updated during run
 non-spin polarized calculation
 Variant of blocked Davidson
 Davidson routine will perform the subspace rotation
 perform sub-space diagonalisation
    after iterative eigenvector-optimisation
 modified Broyden-mixing scheme, WC =      100.0
 initial mixing is a Kerker type mixing with AMIX =  0.4000 and BMIX =      1.0000
 Hartree-type preconditioning will be used
 using additional bands          133
 real space projection scheme for non local part
 use partial core corrections
 calculate Harris-corrections to forces 
   (improved forces if not selfconsistent)
 use gradient corrections 
 use of overlap-Matrix (Vanderbilt PP)
 Gauss-broadening in eV      SIGMA  =   0.05


--------------------------------------------------------------------------------------------------------


  energy-cutoff  :      300.00
  volume of cell :     7668.80
      direct lattice vectors                 reciprocal lattice vectors
     0.000000000-17.180573462  0.000000000     0.000000000 -0.058205275  0.033604831
     0.000000000 -8.590286731-14.878813070     0.000000000  0.000000000 -0.067209662
    30.000000000  0.000000000  0.000000000     0.033333333  0.000000000  0.000000000

  length of vectors
    17.180573462 17.180573462 30.000000000     0.067209662  0.067209662  0.033333333


 
 k-points in units of 2pi/SCALE and weight: Automatic generation                    
   0.00000000  0.00000000  0.00000000       0.250
   0.00000000 -0.02910264  0.01680242       0.500
   0.00000000  0.00000000 -0.03360483       0.250
 
 k-points in reciprocal lattice and weights: Automatic generation                    
   0.00000000  0.00000000  0.00000000       0.250
   0.50000000  0.00000000  0.00000000       0.500
   0.00000000  0.50000000  0.00000000       0.250
 
 position of ions in fractional coordinates (direct lattice) 
   0.44444456  0.44444473  0.07873467
   0.44444419  0.77777777  0.07873467
   0.44444468  0.11111101  0.07873467
   0.77777744  0.44444473  0.07873467
   0.77777765  0.77777777  0.07873467
   0.77777756  0.11111101  0.07873467
   0.11111110  0.44444473  0.07873467
   0.11111131  0.77777777  0.07873467
   0.11111122  0.11111101  0.07873467
   0.55555520  0.55555574  0.15702600
   0.55555541  0.88888878  0.15702600
   0.55555591  0.22222203  0.15702600
   0.88888866  0.55555574  0.15702600
   0.88888887  0.88888878  0.15702600
   0.88888878  0.22222203  0.15702600
   0.22222232  0.55555574  0.15702600
   0.22222253  0.88888878  0.15702600
   0.22222245  0.22222203  0.15702600
   0.66666642  0.66666675  0.23375733
   0.66666692  0.00000000  0.23375733
   0.66666655  0.33333304  0.23375733
   0.00000008  0.66666675  0.23375733
   0.00000000  0.00000000  0.23375733
   0.00000021  0.33333304  0.23375733
   0.33333354  0.66666675  0.23375733
   0.33333346  0.00000000  0.23375733
   0.33333367  0.33333304  0.23375733
   0.77777765  0.77777777  0.31173067
   0.77777756  0.11111101  0.31173067
   0.77777744  0.44444473  0.31173067
   0.11111131  0.77777777  0.31173067
   0.11111122  0.11111101  0.31173067
   0.11111110  0.44444473  0.31173067
   0.44444419  0.77777777  0.31173067
   0.44444468  0.11111101  0.31173067
   0.44444456  0.44444473  0.31173067
   0.88888887  0.88888878  0.38970400
   0.88888878  0.22222203  0.38970400
   0.88888866  0.55555574  0.38970400
   0.22222253  0.88888878  0.38970400
   0.22222245  0.22222203  0.38970400
   0.22222232  0.55555574  0.38970400
   0.55555541  0.88888878  0.38970400
   0.55555591  0.22222203  0.38970400
   0.55555520  0.55555574  0.38970400
   0.00000000  0.00000000  0.46643533
   0.00000021  0.33333304  0.46643533
   0.00000008  0.66666675  0.46643533
   0.33333346  0.00000000  0.46643533
   0.33333367  0.33333304  0.46643533
   0.33333354  0.66666675  0.46643533
   0.66666692  0.00000000  0.46643533
   0.66666655  0.33333304  0.46643533
   0.66666642  0.66666675  0.46643533
   0.11111122  0.11111101  0.54472667
   0.11111110  0.44444473  0.54472667
   0.11111131  0.77777777  0.54472667
   0.44444468  0.11111101  0.54472667
   0.44444456  0.44444473  0.54472667
   0.44444419  0.77777777  0.54472667
   0.77777756  0.11111101  0.54472667
   0.77777744  0.44444473  0.54472667
   0.77777765  0.77777777  0.54472667
   0.27777777  0.27777753  0.07873467
   0.27777764  0.61111125  0.07873467
   0.27777785  0.94444429  0.07873467
   0.61111123  0.27777753  0.07873467
   0.61111110  0.61111125  0.07873467
   0.61111131  0.94444429  0.07873467
   0.94444469  0.27777753  0.07873467
   0.94444456  0.61111125  0.07873467
   0.94444477  0.94444429  0.07873467
   0.38888865  0.38888922  0.15702600
   0.38888886  0.72222226  0.15702600
   0.38888878  0.05555551  0.15702600
   0.72222211  0.38888922  0.15702600
   0.72222232  0.72222226  0.15702600
   0.72222224  0.05555551  0.15702600
   0.05555519  0.38888922  0.15702600
   0.05555540  0.72222226  0.15702600
   0.05555532  0.05555551  0.15702600
   0.49999988  0.50000023  0.23375733
   0.50000009  0.83333327  0.23375733
   0.50000000  0.16666652  0.23375733
   0.83333334  0.50000023  0.23375733
   0.83333355  0.83333327  0.23375733
   0.83333346  0.16666652  0.23375733
   0.16666642  0.50000023  0.23375733
   0.16666663  0.83333327  0.23375733
   0.16666654  0.16666652  0.23375733
   0.61111110  0.61111125  0.31173067
   0.61111131  0.94444429  0.31173067
   0.61111123  0.27777753  0.31173067
   0.94444456  0.61111125  0.31173067
   0.94444477  0.94444429  0.31173067
   0.94444469  0.27777753  0.31173067
   0.27777764  0.61111125  0.31173067
   0.27777785  0.94444429  0.31173067
   0.27777777  0.27777753  0.31173067
   0.72222232  0.72222226  0.38970400
   0.72222224  0.05555551  0.38970400
   0.72222211  0.38888922  0.38970400
   0.05555540  0.72222226  0.38970400
   0.05555532  0.05555551  0.38970400
   0.05555519  0.38888922  0.38970400
   0.38888886  0.72222226  0.38970400
   0.38888878  0.05555551  0.38970400
   0.38888865  0.38888922  0.38970400
   0.83333355  0.83333327  0.46643533
   0.83333346  0.16666652  0.46643533
   0.83333334  0.50000023  0.46643533
   0.16666663  0.83333327  0.46643533
   0.16666654  0.16666652  0.46643533
   0.16666642  0.50000023  0.46643533
   0.50000009  0.83333327  0.46643533
   0.50000000  0.16666652  0.46643533
   0.49999988  0.50000023  0.46643533
   0.94444477  0.94444429  0.54472667
   0.94444469  0.27777753  0.54472667
   0.94444456  0.61111125  0.54472667
   0.27777785  0.94444429  0.54472667
   0.27777777  0.27777753  0.54472667
   0.27777764  0.61111125  0.54472667
   0.61111131  0.94444429  0.54472667
   0.61111123  0.27777753  0.54472667
   0.61111110  0.61111125  0.54472667
   0.27777783  0.44444473  0.07873467
   0.27777804  0.77777777  0.07873467
   0.27777795  0.11111101  0.07873467
   0.61111071  0.44444473  0.07873467
   0.61111092  0.77777777  0.07873467
   0.61111141  0.11111101  0.07873467
   0.94444417  0.44444473  0.07873467
   0.94444438  0.77777777  0.07873467
   0.94444429  0.11111101  0.07873467
   0.38888905  0.55555574  0.15702600
   0.38888868  0.88888878  0.15702600
   0.38888918  0.22222203  0.15702600
   0.72222193  0.55555574  0.15702600
   0.72222214  0.88888878  0.15702600
   0.72222205  0.22222203  0.15702600
   0.05555559  0.55555574  0.15702600
   0.05555580  0.88888878  0.15702600
   0.05555572  0.22222203  0.15702600
   0.49999969  0.66666675  0.23375733
   0.50000019  0.00000000  0.23375733
   0.50000040  0.33333304  0.23375733
   0.83333315  0.66666675  0.23375733
   0.83333307  0.00000000  0.23375733
   0.83333328  0.33333304  0.23375733
   0.16666681  0.66666675  0.23375733
   0.16666673  0.00000000  0.23375733
   0.16666694  0.33333304  0.23375733
   0.61111092  0.77777777  0.31173067
   0.61111141  0.11111101  0.31173067
   0.61111071  0.44444473  0.31173067
   0.94444438  0.77777777  0.31173067
   0.94444429  0.11111101  0.31173067
   0.94444417  0.44444473  0.31173067
   0.27777804  0.77777777  0.31173067
   0.27777795  0.11111101  0.31173067
   0.27777783  0.44444473  0.31173067
   0.72222214  0.88888878  0.38970400
   0.72222205  0.22222203  0.38970400
   0.72222193  0.55555574  0.38970400
   0.05555580  0.88888878  0.38970400
   0.05555572  0.22222203  0.38970400
   0.05555559  0.55555574  0.38970400
   0.38888868  0.88888878  0.38970400
   0.38888918  0.22222203  0.38970400
   0.38888905  0.55555574  0.38970400
   0.83333307  0.00000000  0.46643533
   0.83333328  0.33333304  0.46643533
   0.83333315  0.66666675  0.46643533
   0.16666673  0.00000000  0.46643533
   0.16666694  0.33333304  0.46643533
   0.16666681  0.66666675  0.46643533
   0.50000019  0.00000000  0.46643533
   0.50000040  0.33333304  0.46643533
   0.49999969  0.66666675  0.46643533
   0.94444429  0.11111101  0.54472667
   0.94444417  0.44444473  0.54472667
   0.94444438  0.77777777  0.54472667
   0.27777795  0.11111101  0.54472667
   0.27777783  0.44444473  0.54472667
   0.27777804  0.77777777  0.54472667
   0.61111141  0.11111101  0.54472667
   0.61111071  0.44444473  0.54472667
   0.61111092  0.77777777  0.54472667
   0.44444450  0.27777753  0.07873467
   0.44444437  0.61111125  0.07873467
   0.44444458  0.94444429  0.07873467
   0.77777796  0.27777753  0.07873467
   0.77777783  0.61111125  0.07873467
   0.77777804  0.94444429  0.07873467
   0.11111104  0.27777753  0.07873467
   0.11111091  0.61111125  0.07873467
   0.11111112  0.94444429  0.07873467
   0.55555538  0.38888922  0.15702600
   0.55555559  0.72222226  0.15702600
   0.55555551  0.05555551  0.15702600
   0.88888884  0.38888922  0.15702600
   0.88888905  0.72222226  0.15702600
   0.88888897  0.05555551  0.15702600
   0.22222192  0.38888922  0.15702600
   0.22222213  0.72222226  0.15702600
   0.22222205  0.05555551  0.15702600
   0.66666661  0.50000023  0.23375733
   0.66666682  0.83333327  0.23375733
   0.66666673  0.16666652  0.23375733
   0.99999969  0.50000023  0.23375733
   0.99999990  0.83333327  0.23375733
   0.99999981  0.16666652  0.23375733
   0.33333315  0.50000023  0.23375733
   0.33333336  0.83333327  0.23375733
   0.33333327  0.16666652  0.23375733
   0.77777783  0.61111125  0.31173067
   0.77777804  0.94444429  0.31173067
   0.77777796  0.27777753  0.31173067
   0.11111091  0.61111125  0.31173067
   0.11111112  0.94444429  0.31173067
   0.11111104  0.27777753  0.31173067
   0.44444437  0.61111125  0.31173067
   0.44444458  0.94444429  0.31173067
   0.44444450  0.27777753  0.31173067
   0.88888905  0.72222226  0.38970400
   0.88888897  0.05555551  0.38970400
   0.88888884  0.38888922  0.38970400
   0.22222213  0.72222226  0.38970400
   0.22222205  0.05555551  0.38970400
   0.22222192  0.38888922  0.38970400
   0.55555559  0.72222226  0.38970400
   0.55555551  0.05555551  0.38970400
   0.55555538  0.38888922  0.38970400
   0.99999990  0.83333327  0.46643533
   0.99999981  0.16666652  0.46643533
   0.99999969  0.50000023  0.46643533
   0.33333336  0.83333327  0.46643533
   0.33333327  0.16666652  0.46643533
   0.33333315  0.50000023  0.46643533
   0.66666682  0.83333327  0.46643533
   0.66666673  0.16666652  0.46643533
   0.66666661  0.50000023  0.46643533
   0.11111112  0.94444429  0.54472667
   0.11111104  0.27777753  0.54472667
   0.11111091  0.61111125  0.54472667
   0.44444458  0.94444429  0.54472667
   0.44444450  0.27777753  0.54472667
   0.44444437  0.61111125  0.54472667
   0.77777804  0.94444429  0.54472667
   0.77777796  0.27777753  0.54472667
   0.77777783  0.61111125  0.54472667
   0.34003429  0.48659795  0.66800000
   0.38217494  0.40231704  0.66800000
 
 position of ions in cartesian coordinates  (Angst):
   2.36204000-11.45372000 -6.61281000
   2.36204000-14.31714000-11.57241000
   2.36204000 -8.59029000 -1.65320000
   2.36204000-17.18057000 -6.61281000
   2.36204000-20.04400000-11.57241000
   2.36204000-14.31714000 -1.65320000
   2.36204000 -5.72686000 -6.61281000
   2.36204000 -8.59029000-11.57241000
   2.36204000 -2.86343000 -1.65320000
   4.71078000-14.31714000 -8.26601000
   4.71078000-17.18057000-13.22561000
   4.71078000-11.45372000 -3.30640000
   4.71078000-20.04400000 -8.26601000
   4.71078000-22.90743000-13.22561000
   4.71078000-17.18057000 -3.30640000
   4.71078000 -8.59029000 -8.26601000
   4.71078000-11.45372000-13.22561000
   4.71078000 -5.72686000 -3.30640000
   7.01272000-17.18057000 -9.91921000
   7.01272000-11.45372000  0.00000000
   7.01272000-14.31714000 -4.95960000
   7.01272000 -5.72686000 -9.91921000
   7.01272000  0.00000000  0.00000000
   7.01272000 -2.86343000 -4.95960000
   7.01272000-11.45372000 -9.91921000
   7.01272000 -5.72686000  0.00000000
   7.01272000 -8.59029000 -4.95960000
   9.35192000-20.04400000-11.57241000
   9.35192000-14.31714000 -1.65320000
   9.35192000-17.18057000 -6.61281000
   9.35192000 -8.59029000-11.57241000
   9.35192000 -2.86343000 -1.65320000
   9.35192000 -5.72686000 -6.61281000
   9.35192000-14.31714000-11.57241000
   9.35192000 -8.59029000 -1.65320000
   9.35192000-11.45372000 -6.61281000
  11.69112000-22.90743000-13.22561000
  11.69112000-17.18057000 -3.30640000
  11.69112000-20.04400000 -8.26601000
  11.69112000-11.45372000-13.22561000
  11.69112000 -5.72686000 -3.30640000
  11.69112000 -8.59029000 -8.26601000
  11.69112000-17.18057000-13.22561000
  11.69112000-11.45372000 -3.30640000
  11.69112000-14.31714000 -8.26601000
  13.99306000  0.00000000  0.00000000
  13.99306000 -2.86343000 -4.95960000
  13.99306000 -5.72686000 -9.91921000
  13.99306000 -5.72686000  0.00000000
  13.99306000 -8.59029000 -4.95960000
  13.99306000-11.45372000 -9.91921000
  13.99306000-11.45372000  0.00000000
  13.99306000-14.31714000 -4.95960000
  13.99306000-17.18057000 -9.91921000
  16.34180000 -2.86343000 -1.65320000
  16.34180000 -5.72686000 -6.61281000
  16.34180000 -8.59029000-11.57241000
  16.34180000 -8.59029000 -1.65320000
  16.34180000-11.45372000 -6.61281000
  16.34180000-14.31714000-11.57241000
  16.34180000-14.31714000 -1.65320000
  16.34180000-17.18057000 -6.61281000
  16.34180000-20.04400000-11.57241000
   2.36204000 -7.15857000 -4.13300000
   2.36204000-10.02200000 -9.09261000
   2.36204000-12.88543000-14.05221000
   2.36204000-12.88543000 -4.13300000
   2.36204000-15.74886000 -9.09261000
   2.36204000-18.61229000-14.05221000
   2.36204000-18.61229000 -4.13300000
   2.36204000-21.47572000 -9.09261000
   2.36204000-24.33915000-14.05221000
   4.71078000-10.02200000 -5.78621000
   4.71078000-12.88543000-10.74581000
   4.71078000 -7.15857000 -0.82660000
   4.71078000-15.74886000 -5.78621000
   4.71078000-18.61229000-10.74581000
   4.71078000-12.88543000 -0.82660000
   4.71078000 -4.29514000 -5.78621000
   4.71078000 -7.15857000-10.74581000
   4.71078000 -1.43171000 -0.82660000
   7.01272000-12.88543000 -7.43941000
   7.01272000-15.74886000-12.39901000
   7.01272000-10.02200000 -2.47980000
   7.01272000-18.61229000 -7.43941000
   7.01272000-21.47572000-12.39901000
   7.01272000-15.74886000 -2.47980000
   7.01272000 -7.15857000 -7.43941000
   7.01272000-10.02200000-12.39901000
   7.01272000 -4.29514000 -2.47980000
   9.35192000-15.74886000 -9.09261000
   9.35192000-18.61229000-14.05221000
   9.35192000-12.88543000 -4.13300000
   9.35192000-21.47572000 -9.09261000
   9.35192000-24.33915000-14.05221000
   9.35192000-18.61229000 -4.13300000
   9.35192000-10.02200000 -9.09261000
   9.35192000-12.88543000-14.05221000
   9.35192000 -7.15857000 -4.13300000
  11.69112000-18.61229000-10.74581000
  11.69112000-12.88543000 -0.82660000
  11.69112000-15.74886000 -5.78621000
  11.69112000 -7.15857000-10.74581000
  11.69112000 -1.43171000 -0.82660000
  11.69112000 -4.29514000 -5.78621000
  11.69112000-12.88543000-10.74581000
  11.69112000 -7.15857000 -0.82660000
  11.69112000-10.02200000 -5.78621000
  13.99306000-21.47572000-12.39901000
  13.99306000-15.74886000 -2.47980000
  13.99306000-18.61229000 -7.43941000
  13.99306000-10.02200000-12.39901000
  13.99306000 -4.29514000 -2.47980000
  13.99306000 -7.15857000 -7.43941000
  13.99306000-15.74886000-12.39901000
  13.99306000-10.02200000 -2.47980000
  13.99306000-12.88543000 -7.43941000
  16.34180000-24.33915000-14.05221000
  16.34180000-18.61229000 -4.13300000
  16.34180000-21.47572000 -9.09261000
  16.34180000-12.88543000-14.05221000
  16.34180000 -7.15857000 -4.13300000
  16.34180000-10.02200000 -9.09261000
  16.34180000-18.61229000-14.05221000
  16.34180000-12.88543000 -4.13300000
  16.34180000-15.74886000 -9.09261000
   2.36204000 -8.59029000 -6.61281000
   2.36204000-11.45372000-11.57241000
   2.36204000 -5.72686000 -1.65320000
   2.36204000-14.31714000 -6.61281000
   2.36204000-17.18057000-11.57241000
   2.36204000-11.45372000 -1.65320000
   2.36204000-20.04400000 -6.61281000
   2.36204000-22.90743000-11.57241000
   2.36204000-17.18057000 -1.65320000
   4.71078000-11.45372000 -8.26601000
   4.71078000-14.31714000-13.22561000
   4.71078000 -8.59029000 -3.30640000
   4.71078000-17.18057000 -8.26601000
   4.71078000-20.04400000-13.22561000
   4.71078000-14.31714000 -3.30640000
   4.71078000 -5.72686000 -8.26601000
   4.71078000 -8.59029000-13.22561000
   4.71078000 -2.86343000 -3.30640000
   7.01272000-14.31714000 -9.91921000
   7.01272000 -8.59029000  0.00000000
   7.01272000-11.45372000 -4.95960000
   7.01272000-20.04400000 -9.91921000
   7.01272000-14.31714000  0.00000000
   7.01272000-17.18057000 -4.95960000
   7.01272000 -8.59029000 -9.91921000
   7.01272000 -2.86343000  0.00000000
   7.01272000 -5.72686000 -4.95960000
   9.35192000-17.18057000-11.57241000
   9.35192000-11.45372000 -1.65320000
   9.35192000-14.31714000 -6.61281000
   9.35192000-22.90743000-11.57241000
   9.35192000-17.18057000 -1.65320000
   9.35192000-20.04400000 -6.61281000
   9.35192000-11.45372000-11.57241000
   9.35192000 -5.72686000 -1.65320000
   9.35192000 -8.59029000 -6.61281000
  11.69112000-20.04400000-13.22561000
  11.69112000-14.31714000 -3.30640000
  11.69112000-17.18057000 -8.26601000
  11.69112000 -8.59029000-13.22561000
  11.69112000 -2.86343000 -3.30640000
  11.69112000 -5.72686000 -8.26601000
  11.69112000-14.31714000-13.22561000
  11.69112000 -8.59029000 -3.30640000
  11.69112000-11.45372000 -8.26601000
  13.99306000-14.31714000  0.00000000
  13.99306000-17.18057000 -4.95960000
  13.99306000-20.04400000 -9.91921000
  13.99306000 -2.86343000  0.00000000
  13.99306000 -5.72686000 -4.95960000
  13.99306000 -8.59029000 -9.91921000
  13.99306000 -8.59029000  0.00000000
  13.99306000-11.45372000 -4.95960000
  13.99306000-14.31714000 -9.91921000
  16.34180000-17.18057000 -1.65320000
  16.34180000-20.04400000 -6.61281000
  16.34180000-22.90743000-11.57241000
  16.34180000 -5.72686000 -1.65320000
  16.34180000 -8.59029000 -6.61281000
  16.34180000-11.45372000-11.57241000
  16.34180000-11.45372000 -1.65320000
  16.34180000-14.31714000 -6.61281000
  16.34180000-17.18057000-11.57241000
   2.36204000-10.02200000 -4.13300000
   2.36204000-12.88543000 -9.09261000
   2.36204000-15.74886000-14.05221000
   2.36204000-15.74886000 -4.13300000
   2.36204000-18.61229000 -9.09261000
   2.36204000-21.47572000-14.05221000
   2.36204000 -4.29514000 -4.13300000
   2.36204000 -7.15857000 -9.09261000
   2.36204000-10.02200000-14.05221000
   4.71078000-12.88543000 -5.78621000
   4.71078000-15.74886000-10.74581000
   4.71078000-10.02200000 -0.82660000
   4.71078000-18.61229000 -5.78621000
   4.71078000-21.47572000-10.74581000
   4.71078000-15.74886000 -0.82660000
   4.71078000 -7.15857000 -5.78621000
   4.71078000-10.02200000-10.74581000
   4.71078000 -4.29514000 -0.82660000
   7.01272000-15.74886000 -7.43941000
   7.01272000-18.61229000-12.39901000
   7.01272000-12.88543000 -2.47980000
   7.01272000-21.47571346 -7.43941000
   7.01272000-24.33914346-12.39901000
   7.01272000-18.61228346 -2.47980000
   7.01272000-10.02200000 -7.43941000
   7.01272000-12.88543000-12.39901000
   7.01272000 -7.15857000 -2.47980000
   9.35192000-18.61229000 -9.09261000
   9.35192000-21.47572000-14.05221000
   9.35192000-15.74886000 -4.13300000
   9.35192000 -7.15857000 -9.09261000
   9.35192000-10.02200000-14.05221000
   9.35192000 -4.29514000 -4.13300000
   9.35192000-12.88543000 -9.09261000
   9.35192000-15.74886000-14.05221000
   9.35192000-10.02200000 -4.13300000
  11.69112000-21.47572000-10.74581000
  11.69112000-15.74886000 -0.82660000
  11.69112000-18.61229000 -5.78621000
  11.69112000-10.02200000-10.74581000
  11.69112000 -4.29514000 -0.82660000
  11.69112000 -7.15857000 -5.78621000
  11.69112000-15.74886000-10.74581000
  11.69112000-10.02200000 -0.82660000
  11.69112000-12.88543000 -5.78621000
  13.99306000-24.33914346-12.39901000
  13.99306000-18.61228346 -2.47980000
  13.99306000-21.47571346 -7.43941000
  13.99306000-12.88543000-12.39901000
  13.99306000 -7.15857000 -2.47980000
  13.99306000-10.02200000 -7.43941000
  13.99306000-18.61229000-12.39901000
  13.99306000-12.88543000 -2.47980000
  13.99306000-15.74886000 -7.43941000
  16.34180000-10.02200000-14.05221000
  16.34180000 -4.29514000 -4.13300000
  16.34180000 -7.15857000 -9.09261000
  16.34180000-15.74886000-14.05221000
  16.34180000-10.02200000 -4.13300000
  16.34180000-12.88543000 -9.09261000
  16.34180000-21.47572000-14.05221000
  16.34180000-15.74886000 -4.13300000
  16.34180000-18.61229000 -9.09261000
  20.04000000-10.02200000 -7.24000000
  20.04000000-10.02200333 -5.98600000
 


--------------------------------------------------------------------------------------------------------


 k-point  1 :   0.0000 0.0000 0.0000  plane waves:   90499
 k-point  2 :   0.5000 0.0000 0.0000  plane waves:   90530
 k-point  3 :   0.0000 0.5000 0.0000  plane waves:   90530

 maximum and minimum number of plane-waves per node :     90530    90499

 maximum number of plane-waves:     90530
 maximum index in each direction: 
   IXMAX=   24   IYMAX=   24   IZMAX=   42
   IXMIN=  -24   IYMIN=  -24   IZMIN=  -42


 serial   3D FFT for wavefunctions
 parallel 3D FFT for charge:
    minimum data exchange during FFTs selected (reduces bandwidth)


 total amount of memory used by VASP MPI-rank0   652183. kBytes
=======================================================================

   base      :      30000. kBytes
   nonlr-proj:      89962. kBytes
   fftplans  :      40601. kBytes
   grid      :      95147. kBytes
   one-center:       3950. kBytes
   wavefun   :     392523. kBytes
 
     INWAV:  cpu time    0.0000: real time    0.0001
 Broyden mixing: mesh for mixing (old mesh)
   NGX = 49   NGY = 49   NGZ = 85
  (NGX  =160   NGY  =160   NGZ  =256)
  gives a total of 204085 points

 initial charge density was supplied:
 charge density of overlapping atoms calculated
 number of electron     766.0000000 magnetization 
 keeping initial charge density in first step


--------------------------------------------------------------------------------------------------------


 Maximum index for non-local projection operator         4284
 Maximum index for augmentation-charges          758 (set IRDMAX)


--------------------------------------------------------------------------------------------------------


 First call to EWALD:  gamma=   0.090
 Maximum number of real-space cells 3x 3x 2
 Maximum number of reciprocal cells 2x 2x 4

    FEWALD:  cpu time    0.0349: real time    0.0410


----------------------------------------- Iteration    1(   1)  ---------------------------------------


    POTLOK:  cpu time    0.8261: real time    0.8330
    SETDIJ:  cpu time    0.1044: real time    0.1174
     EDDAV:  cpu time   18.2888: real time   21.0136
       DOS:  cpu time    0.0014: real time    0.0014
    --------------------------------------------
      LOOP:  cpu time   19.2230: real time   21.9811

 eigenvalue-minimisations  :  3120
 total energy-change (2. order) : 0.2130486E+04  (-0.1839751E+05)
 number of electron     766.0000000 magnetization 
 augmentation part      766.0000000 magnetization 

 Free energy of the ion-electron system (eV)
  ---------------------------------------------------
  alpha Z        PSCENC =       505.22967617
  Ewald energy   TEWEN  =     86696.52073400
  -Hartree energ DENC   =   -100772.04038677
  -exchange      EXHF   =         0.00000000
  -V(xc)+E(xc)   XCENC  =     -6606.51388123
  PAW double counting   =     17092.30507181    -9042.14386232
  entropy T*S    EENTRO =        -0.05609039
  eigenvalues    EBANDS =       237.98320856
  atomic energy  EATOM  =     14019.20197576
  Solvation  Ediel_sol  =         0.00000000
  ---------------------------------------------------
  free energy    TOTEN  =      2130.48644559 eV

  energy without entropy =     2130.54253598  energy(sigma->0) =     2130.51449078


--------------------------------------------------------------------------------------------------------




----------------------------------------- Iteration    1(   2)  ---------------------------------------


     EDDAV:  cpu time   22.8702: real time   26.1457
       DOS:  cpu time    0.0013: real time    0.0013
    --------------------------------------------
      LOOP:  cpu time   22.8728: real time   26.1498

 eigenvalue-minimisations  :  4224
 total energy-change (2. order) :-0.2874959E+04  (-0.2711137E+04)
 number of electron     766.0000000 magnetization 
 augmentation part      766.0000000 magnetization 

 Free energy of the ion-electron system (eV)
  ---------------------------------------------------
  alpha Z        PSCENC =       505.22967617
  Ewald energy   TEWEN  =     86696.52073400
  -Hartree energ DENC   =   -100772.04038677
  -exchange      EXHF   =         0.00000000
  -V(xc)+E(xc)   XCENC  =     -6606.51388123
  PAW double counting   =     17092.30507181    -9042.14386232
  entropy T*S    EENTRO =        -0.10379946
  eigenvalues    EBANDS =     -2636.92841774
  atomic energy  EATOM  =     14019.20197576
  Solvation  Ediel_sol  =         0.00000000
  ---------------------------------------------------
  free energy    TOTEN  =      -744.47288978 eV

  energy without entropy =     -744.36909032  energy(sigma->0) =     -744.42099005


--------------------------------------------------------------------------------------------------------




----------------------------------------- Iteration    1(   3)  ---------------------------------------


     EDDAV:  cpu time   24.1823: real time   27.4763
       DOS:  cpu time    0.0013: real time    0.0013
    --------------------------------------------
      LOOP:  cpu time   24.1849: real time   27.4804

 eigenvalue-minimisations  :  4500
 total energy-change (2. order) :-0.2103229E+03  (-0.2019879E+03)
 number of electron     766.0000000 magnetization 
 augmentation part      766.0000000 magnetization 

 Free energy of the ion-electron system (eV)
  ---------------------------------------------------
  alpha Z        PSCENC =       505.22967617
  Ewald energy   TEWEN  =     86696.52073400
  -Hartree energ DENC   =   -100772.04038677
  -exchange      EXHF   =         0.00000000
  -V(xc)+E(xc)   XCENC  =     -6606.51388123
  PAW double counting   =     17092.30507181    -9042.14386232
  entropy T*S    EENTRO =        -0.23250203
  eigenvalues    EBANDS =     -2847.12263378
  atomic energy  EATOM  =     14019.20197576
  Solvation  Ediel_sol  =         0.00000000
  ---------------------------------------------------
  free energy    TOTEN  =      -954.79580839 eV

  energy without entropy =     -954.56330637  energy(sigma->0) =     -954.67955738


--------------------------------------------------------------------------------------------------------




----------------------------------------- Iteration    1(   4)  ---------------------------------------


     EDDAV:  cpu time   23.5767: real time   26.8199
       DOS:  cpu time    0.0017: real time    0.0017
    --------------------------------------------
      LOOP:  cpu time   23.5796: real time   26.8248

 eigenvalue-minimisations  :  4356
 total energy-change (2. order) :-0.7417281E+01  (-0.7258283E+01)
 number of electron     766.0000000 magnetization 
 augmentation part      766.0000000 magnetization 

 Free energy of the ion-electron system (eV)
  ---------------------------------------------------
  alpha Z        PSCENC =       505.22967617
  Ewald energy   TEWEN  =     86696.52073400
  -Hartree energ DENC   =   -100772.04038677
  -exchange      EXHF   =         0.00000000
  -V(xc)+E(xc)   XCENC  =     -6606.51388123
  PAW double counting   =     17092.30507181    -9042.14386232
  entropy T*S    EENTRO =        -0.25787696
  eigenvalues    EBANDS =     -2854.51453981
  atomic energy  EATOM  =     14019.20197576
  Solvation  Ediel_sol  =         0.00000000
  ---------------------------------------------------
  free energy    TOTEN  =      -962.21308936 eV

  energy without entropy =     -961.95521240  energy(sigma->0) =     -962.08415088


--------------------------------------------------------------------------------------------------------




----------------------------------------- Iteration    1(   5)  ---------------------------------------


     EDDAV:  cpu time   26.2630: real time   29.8090
       DOS:  cpu time    0.0027: real time    0.0027
    CHARGE:  cpu time    1.6875: real time    1.7642
    MIXING:  cpu time    0.0267: real time    0.0267
    --------------------------------------------
      LOOP:  cpu time   27.9814: real time   31.6056

 eigenvalue-minimisations  :  5004
 total energy-change (2. order) :-0.4271258E+00  (-0.4255650E+00)
 number of electron     766.0000005 magnetization 
 augmentation part      -10.0082058 magnetization 

 Broyden mixing:
  rms(total) = 0.18637E+01    rms(broyden)= 0.18627E+01
  rms(prec ) = 0.26180E+01
  weight for this iteration     100.00

 Free energy of the ion-electron system (eV)
  ---------------------------------------------------
  alpha Z        PSCENC =       505.22967617
  Ewald energy   TEWEN  =     86696.52073400
  -Hartree energ DENC   =   -100772.04038677
  -exchange      EXHF   =         0.00000000
  -V(xc)+E(xc)   XCENC  =     -6606.51388123
  PAW double counting   =     17092.30507181    -9042.14386232
  entropy T*S    EENTRO =        -0.25956565
  eigenvalues    EBANDS =     -2854.93997691
  atomic energy  EATOM  =     14019.20197576
  Solvation  Ediel_sol  =         0.00000000
  ---------------------------------------------------
  free energy    TOTEN  =      -962.64021514 eV

  energy without entropy =     -962.38064949  energy(sigma->0) =     -962.51043232


--------------------------------------------------------------------------------------------------------




----------------------------------------- Iteration    1(   6)  ---------------------------------------


    POTLOK:  cpu time    0.7919: real time    0.7920
    SETDIJ:  cpu time    0.1069: real time    0.1069
     EDDAV:  cpu time   23.9635: real time   27.3017
       DOS:  cpu time    0.0025: real time    0.0025
    CHARGE:  cpu time    1.6709: real time    1.7030
    MIXING:  cpu time    0.0278: real time    0.0280
    --------------------------------------------
      LOOP:  cpu time   26.5650: real time   29.9366

 eigenvalue-minimisations  :  4464
 total energy-change (2. order) :-0.1519701E+02  (-0.1897963E+02)
 number of electron     766.0000007 magnetization 
 augmentation part       -9.9696175 magnetization 

 Broyden mixing:
  rms(total) = 0.18635E+01    rms(broyden)= 0.18635E+01
  rms(prec ) = 0.41916E+01
  weight for this iteration     100.00

 eigenvalues of (default mixing * dielectric matrix)
  average eigenvalue GAMMA=   0.7560
  0.7560

 Free energy of the ion-electron system (eV)
  ---------------------------------------------------
  alpha Z        PSCENC =       505.22967617
  Ewald energy   TEWEN  =     86696.52073400
  -Hartree energ DENC   =   -101693.26213197
  -exchange      EXHF   =         0.00000000
  -V(xc)+E(xc)   XCENC  =     -6596.51732236
  PAW double counting   =     19029.56473156   -10980.71583317
  entropy T*S    EENTRO =        -0.16863536
  eigenvalues    EBANDS =     -1957.69042220
  atomic energy  EATOM  =     14019.20197576
  Solvation  Ediel_sol  =         0.00000000
  ---------------------------------------------------
  free energy    TOTEN  =      -977.83722757 eV

  energy without entropy =     -977.66859221  energy(sigma->0) =     -977.75290989


--------------------------------------------------------------------------------------------------------




----------------------------------------- Iteration    1(   7)  ---------------------------------------


    POTLOK:  cpu time    0.7897: real time    0.7905
    SETDIJ:  cpu time    0.1066: real time    0.1066
     EDDAV:  cpu time   22.0019: real time   25.1289
       DOS:  cpu time    0.0041: real time    0.0041
    CHARGE:  cpu time    1.7070: real time    1.7397
    MIXING:  cpu time    0.0293: real time    0.0293
    --------------------------------------------
      LOOP:  cpu time   24.6402: real time   27.8019

 eigenvalue-minimisations  :  3996
 total energy-change (2. order) : 0.4044133E+02  (-0.1314729E+02)
 number of electron     766.0000006 magnetization 
 augmentation part      -10.0084904 magnetization 

 Broyden mixing:
  rms(total) = 0.96080E+00    rms(broyden)= 0.96080E+00
  rms(prec ) = 0.12213E+01
  weight for this iteration     100.00

 eigenvalues of (default mixing * dielectric matrix)
  average eigenvalue GAMMA=   1.1796
  2.0469  0.3123

 Free energy of the ion-electron system (eV)
  ---------------------------------------------------
  alpha Z        PSCENC =       505.22967617
  Ewald energy   TEWEN  =     86696.52073400
  -Hartree energ DENC   =   -101170.27868331
  -exchange      EXHF   =         0.00000000
  -V(xc)+E(xc)   XCENC  =     -6594.40691531
  PAW double counting   =     19404.92458284   -11356.19325948
  entropy T*S    EENTRO =        -0.04950364
  eigenvalues    EBANDS =     -2442.34450292
  atomic energy  EATOM  =     14019.20197576
  Solvation  Ediel_sol  =         0.00000000
  ---------------------------------------------------
  free energy    TOTEN  =      -937.39589588 eV

  energy without entropy =     -937.34639224  energy(sigma->0) =     -937.37114406


--------------------------------------------------------------------------------------------------------




----------------------------------------- Iteration    1(   8)  ---------------------------------------


    POTLOK:  cpu time    0.8020: real time    0.8021
    SETDIJ:  cpu time    0.1081: real time    0.1081
     EDDAV:  cpu time   21.3879: real time   24.3826
       DOS:  cpu time    0.0024: real time    0.0024
    CHARGE:  cpu time    1.6891: real time    1.7217
    MIXING:  cpu time    0.0295: real time    0.0295
    --------------------------------------------
      LOOP:  cpu time   24.0208: real time   27.0493

 eigenvalue-minimisations  :  3840
 total energy-change (2. order) : 0.2506400E+00  (-0.4602814E+01)
 number of electron     766.0000005 magnetization 
 augmentation part      -10.1722889 magnetization 

 Broyden mixing:
  rms(total) = 0.45939E+00    rms(broyden)= 0.45939E+00
  rms(prec ) = 0.59425E+00
  weight for this iteration     100.00

 eigenvalues of (default mixing * dielectric matrix)
  average eigenvalue GAMMA=   1.1578
  2.4922  0.6865  0.2946

 Free energy of the ion-electron system (eV)
  ---------------------------------------------------
  alpha Z        PSCENC =       505.22967617
  Ewald energy   TEWEN  =     86696.52073400
  -Hartree energ DENC   =   -101336.24394201
  -exchange      EXHF   =         0.00000000
  -V(xc)+E(xc)   XCENC  =     -6585.03534181
  PAW double counting   =     20919.09779689   -12871.20896928
  entropy T*S    EENTRO =        -0.05687898
  eigenvalues    EBANDS =     -2284.65030659
  atomic energy  EATOM  =     14019.20197576
  Solvation  Ediel_sol  =         0.00000000
  ---------------------------------------------------
  free energy    TOTEN  =      -937.14525586 eV

  energy without entropy =     -937.08837688  energy(sigma->0) =     -937.11681637


--------------------------------------------------------------------------------------------------------




----------------------------------------- Iteration    1(   9)  ---------------------------------------


    POTLOK:  cpu time    0.7947: real time    0.7947
    SETDIJ:  cpu time    0.1064: real time    0.1064
     EDDAV:  cpu time   20.8573: real time   23.8236
       DOS:  cpu time    0.0016: real time    0.0016
    CHARGE:  cpu time    1.6804: real time    1.7127
    MIXING:  cpu time    0.0323: real time    0.0323
    --------------------------------------------
      LOOP:  cpu time   23.4743: real time   26.4740

 eigenvalue-minimisations  :  3720
 total energy-change (2. order) : 0.2049479E+01  (-0.5157641E+00)
 number of electron     766.0000005 magnetization 
 augmentation part      -10.2349838 magnetization 

 Broyden mixing:
  rms(total) = 0.11401E+00    rms(broyden)= 0.11400E+00
  rms(prec ) = 0.17328E+00
  weight for this iteration     100.00

 eigenvalues of (default mixing * dielectric matrix)
  average eigenvalue GAMMA=   1.2213
  2.4243  1.4954  0.2967  0.6687

 Free energy of the ion-electron system (eV)
  ---------------------------------------------------
  alpha Z        PSCENC =       505.22967617
  Ewald energy   TEWEN  =     86696.52073400
  -Hartree energ DENC   =   -101511.10690273
  -exchange      EXHF   =         0.00000000
  -V(xc)+E(xc)   XCENC  =     -6577.05277051
  PAW double counting   =     22158.80677674   -14111.91013072
  entropy T*S    EENTRO =        -0.05495635
  eigenvalues    EBANDS =     -2114.73017962
  atomic energy  EATOM  =     14019.20197576
  Solvation  Ediel_sol  =         0.00000000
  ---------------------------------------------------
  free energy    TOTEN  =      -935.09577726 eV

  energy without entropy =     -935.04082091  energy(sigma->0) =     -935.06829908


--------------------------------------------------------------------------------------------------------




----------------------------------------- Iteration    1(  10)  ---------------------------------------


    POTLOK:  cpu time    0.8045: real time    0.8045
    SETDIJ:  cpu time    0.1080: real time    0.1080
     EDDAV:  cpu time   22.8442: real time   25.9544
       DOS:  cpu time    0.0021: real time    0.0021
    CHARGE:  cpu time    1.6705: real time    1.7027
    MIXING:  cpu time    0.0332: real time    0.0334
    --------------------------------------------
      LOOP:  cpu time   25.4642: real time   28.6080

 eigenvalue-minimisations  :  4188
 total energy-change (2. order) :-0.1195072E-01  (-0.1333568E+00)
 number of electron     766.0000006 magnetization 
 augmentation part      -10.2453348 magnetization 

 Broyden mixing:
  rms(total) = 0.10254E+00    rms(broyden)= 0.10253E+00
  rms(prec ) = 0.31605E+00
  weight for this iteration     100.00

 eigenvalues of (default mixing * dielectric matrix)
  average eigenvalue GAMMA=   1.1298
  2.3936  1.7359  0.2961  0.6116  0.6116

 Free energy of the ion-electron system (eV)
  ---------------------------------------------------
  alpha Z        PSCENC =       505.22967617
  Ewald energy   TEWEN  =     86696.52073400
  -Hartree energ DENC   =   -101570.41360397
  -exchange      EXHF   =         0.00000000
  -V(xc)+E(xc)   XCENC  =     -6576.19122130
  PAW double counting   =     22184.87316089   -14138.35212178
  entropy T*S    EENTRO =        -0.05519240
  eigenvalues    EBANDS =     -2055.92113536
  atomic energy  EATOM  =     14019.20197576
  Solvation  Ediel_sol  =         0.00000000
  ---------------------------------------------------
  free energy    TOTEN  =      -935.10772798 eV

  energy without entropy =     -935.05253559  energy(sigma->0) =     -935.08013178


--------------------------------------------------------------------------------------------------------




----------------------------------------- Iteration    1(  11)  ---------------------------------------


    POTLOK:  cpu time    0.7975: real time    0.7975
    SETDIJ:  cpu time    0.1061: real time    0.1061
     EDDAV:  cpu time   21.9347: real time   25.0009
       DOS:  cpu time    0.0012: real time    0.0012
    CHARGE:  cpu time    1.6696: real time    1.7022
    MIXING:  cpu time    0.0338: real time    0.0338
    --------------------------------------------
      LOOP:  cpu time   24.5445: real time   27.6444

 eigenvalue-minimisations  :  3960
 total energy-change (2. order) : 0.1142702E+00  (-0.1976949E-01)
 number of electron     766.0000006 magnetization 
 augmentation part      -10.2486148 magnetization 

 Broyden mixing:
  rms(total) = 0.64076E-01    rms(broyden)= 0.64072E-01
  rms(prec ) = 0.10367E+00
  weight for this iteration     100.00

 eigenvalues of (default mixing * dielectric matrix)
  average eigenvalue GAMMA=   1.0821
  2.2588  2.2588  0.7694  0.7694  0.2962  0.1401

 Free energy of the ion-electron system (eV)
  ---------------------------------------------------
  alpha Z        PSCENC =       505.22967617
  Ewald energy   TEWEN  =     86696.52073400
  -Hartree energ DENC   =   -101579.43389075
  -exchange      EXHF   =         0.00000000
  -V(xc)+E(xc)   XCENC  =     -6576.04320658
  PAW double counting   =     22188.71715199   -14142.25378604
  entropy T*S    EENTRO =        -0.05516671
  eigenvalues    EBANDS =     -2046.87694567
  atomic energy  EATOM  =     14019.20197576
  Solvation  Ediel_sol  =         0.00000000
  ---------------------------------------------------
  free energy    TOTEN  =      -934.99345782 eV

  energy without entropy =     -934.93829111  energy(sigma->0) =     -934.96587447


--------------------------------------------------------------------------------------------------------




----------------------------------------- Iteration    1(  12)  ---------------------------------------


    POTLOK:  cpu time    0.8040: real time    0.8044
    SETDIJ:  cpu time    0.1065: real time    0.1065
     EDDAV:  cpu time   21.4151: real time   24.3673
       DOS:  cpu time    0.0024: real time    0.0024
    CHARGE:  cpu time    1.6825: real time    1.7154
    MIXING:  cpu time    0.0355: real time    0.0355
    --------------------------------------------
      LOOP:  cpu time   24.0477: real time   27.0341

 eigenvalue-minimisations  :  3828
 total energy-change (2. order) : 0.5084456E-01  (-0.8254903E-02)
 number of electron     766.0000006 magnetization 
 augmentation part      -10.2506336 magnetization 

 Broyden mixing:
  rms(total) = 0.38800E-01    rms(broyden)= 0.38798E-01
  rms(prec ) = 0.56992E-01
  weight for this iteration     100.00

 eigenvalues of (default mixing * dielectric matrix)
  average eigenvalue GAMMA=   1.2196
  2.6294  2.6294  1.0764  1.0764  0.6897  0.2964  0.1395

 Free energy of the ion-electron system (eV)
  ---------------------------------------------------
  alpha Z        PSCENC =       505.22967617
  Ewald energy   TEWEN  =     86696.52073400
  -Hartree energ DENC   =   -101618.72993241
  -exchange      EXHF   =         0.00000000
  -V(xc)+E(xc)   XCENC  =     -6575.39687131
  PAW double counting   =     22206.29810975   -14160.06011454
  entropy T*S    EENTRO =        -0.05523299
  eigenvalues    EBANDS =     -2007.95095769
  atomic energy  EATOM  =     14019.20197576
  Solvation  Ediel_sol  =         0.00000000
  ---------------------------------------------------
  free energy    TOTEN  =      -934.94261326 eV

  energy without entropy =     -934.88738027  energy(sigma->0) =     -934.91499677


--------------------------------------------------------------------------------------------------------




----------------------------------------- Iteration    1(  13)  ---------------------------------------


    POTLOK:  cpu time    0.8058: real time    0.8061
    SETDIJ:  cpu time    0.1067: real time    0.1067
     EDDAV:  cpu time   21.5544: real time   24.5617
       DOS:  cpu time    0.0024: real time    0.0024
    CHARGE:  cpu time    1.6665: real time    1.6995
    MIXING:  cpu time    0.0364: real time    0.0364
    --------------------------------------------
      LOOP:  cpu time   24.1740: real time   27.2156

 eigenvalue-minimisations  :  3888
 total energy-change (2. order) : 0.2797273E-01  (-0.6507236E-02)
 number of electron     766.0000006 magnetization 
 augmentation part      -10.2478011 magnetization 

 Broyden mixing:
  rms(total) = 0.18219E-01    rms(broyden)= 0.18214E-01
  rms(prec ) = 0.31028E-01
  weight for this iteration     100.00

 eigenvalues of (default mixing * dielectric matrix)
  average eigenvalue GAMMA=   1.2406
  2.9569  2.6520  0.2963  1.1332  1.1332  0.7052  0.9082  0.1395

 Free energy of the ion-electron system (eV)
  ---------------------------------------------------
  alpha Z        PSCENC =       505.22967617
  Ewald energy   TEWEN  =     86696.52073400
  -Hartree energ DENC   =   -101666.74632447
  -exchange      EXHF   =         0.00000000
  -V(xc)+E(xc)   XCENC  =     -6574.79137455
  PAW double counting   =     22204.96823262   -14158.88184908
  entropy T*S    EENTRO =        -0.05535125
  eigenvalues    EBANDS =     -1960.36035974
  atomic energy  EATOM  =     14019.20197576
  Solvation  Ediel_sol  =         0.00000000
  ---------------------------------------------------
  free energy    TOTEN  =      -934.91464054 eV

  energy without entropy =     -934.85928929  energy(sigma->0) =     -934.88696491


--------------------------------------------------------------------------------------------------------




----------------------------------------- Iteration    1(  14)  ---------------------------------------


    POTLOK:  cpu time    0.8074: real time    0.8078
    SETDIJ:  cpu time    0.1066: real time    0.1067
     EDDAV:  cpu time   22.0604: real time   25.1185
       DOS:  cpu time    0.0015: real time    0.0015
    CHARGE:  cpu time    1.6868: real time    1.7194
    MIXING:  cpu time    0.0391: real time    0.0391
    --------------------------------------------
      LOOP:  cpu time   24.7037: real time   27.7960

 eigenvalue-minimisations  :  3996
 total energy-change (2. order) :-0.1971550E-02  (-0.1494423E-02)
 number of electron     766.0000006 magnetization 
 augmentation part      -10.2465253 magnetization 

 Broyden mixing:
  rms(total) = 0.14313E-01    rms(broyden)= 0.14309E-01
  rms(prec ) = 0.22757E-01
  weight for this iteration     100.00

 eigenvalues of (default mixing * dielectric matrix)
  average eigenvalue GAMMA=   1.3259
  3.5867  2.5763  1.7956  1.1181  1.1181  0.2964  0.6988  0.6041  0.1395

 Free energy of the ion-electron system (eV)
  ---------------------------------------------------
  alpha Z        PSCENC =       505.22967617
  Ewald energy   TEWEN  =     86696.52073400
  -Hartree energ DENC   =   -101684.60028062
  -exchange      EXHF   =         0.00000000
  -V(xc)+E(xc)   XCENC  =     -6574.62736835
  PAW double counting   =     22201.09941549   -14155.00721741
  entropy T*S    EENTRO =        -0.05539723
  eigenvalues    EBANDS =     -1942.67814989
  atomic energy  EATOM  =     14019.20197576
  Solvation  Ediel_sol  =         0.00000000
  ---------------------------------------------------
  free energy    TOTEN  =      -934.91661209 eV

  energy without entropy =     -934.86121486  energy(sigma->0) =     -934.88891347


--------------------------------------------------------------------------------------------------------




----------------------------------------- Iteration    1(  15)  ---------------------------------------


    POTLOK:  cpu time    0.8159: real time    0.8161
    SETDIJ:  cpu time    0.1081: real time    0.1081
     EDDAV:  cpu time   20.1105: real time   22.9681
       DOS:  cpu time    0.0021: real time    0.0021
    CHARGE:  cpu time    1.6771: real time    1.7100
    MIXING:  cpu time    0.0403: real time    0.0403
    --------------------------------------------
      LOOP:  cpu time   22.7557: real time   25.6476

 eigenvalue-minimisations  :  3540
 total energy-change (2. order) :-0.8804402E-02  (-0.7481881E-03)
 number of electron     766.0000006 magnetization 
 augmentation part      -10.2459030 magnetization 

 Broyden mixing:
  rms(total) = 0.99109E-02    rms(broyden)= 0.99091E-02
  rms(prec ) = 0.14927E-01
  weight for this iteration     100.00

 eigenvalues of (default mixing * dielectric matrix)
  average eigenvalue GAMMA=   1.4360
  4.3631  2.7513  2.4052  1.1770  1.1770  0.8518  0.6975  0.2963  0.5017  0.1395

 Free energy of the ion-electron system (eV)
  ---------------------------------------------------
  alpha Z        PSCENC =       505.22967617
  Ewald energy   TEWEN  =     86696.52073400
  -Hartree energ DENC   =   -101701.84326512
  -exchange      EXHF   =         0.00000000
  -V(xc)+E(xc)   XCENC  =     -6574.52404361
  PAW double counting   =     22195.94359436   -14149.79410048
  entropy T*S    EENTRO =        -0.05548666
  eigenvalues    EBANDS =     -1925.60450090
  atomic energy  EATOM  =     14019.20197576
  Solvation  Ediel_sol  =         0.00000000
  ---------------------------------------------------
  free energy    TOTEN  =      -934.92541649 eV

  energy without entropy =     -934.86992983  energy(sigma->0) =     -934.89767316


--------------------------------------------------------------------------------------------------------




----------------------------------------- Iteration    1(  16)  ---------------------------------------


    POTLOK:  cpu time    0.8230: real time    0.8233
    SETDIJ:  cpu time    0.1078: real time    0.1078
     EDDAV:  cpu time   19.8047: real time   22.6446
       DOS:  cpu time    0.0012: real time    0.0012
    CHARGE:  cpu time    1.6818: real time    1.7146
    MIXING:  cpu time    0.0428: real time    0.0428
    --------------------------------------------
      LOOP:  cpu time   22.4629: real time   25.3371

 eigenvalue-minimisations  :  3468
 total energy-change (2. order) :-0.9098178E-02  (-0.3105498E-03)
 number of electron     766.0000006 magnetization 
 augmentation part      -10.2455683 magnetization 

 Broyden mixing:
  rms(total) = 0.52460E-02    rms(broyden)= 0.52444E-02
  rms(prec ) = 0.79961E-02
  weight for this iteration     100.00

 eigenvalues of (default mixing * dielectric matrix)
  average eigenvalue GAMMA=   1.4684
  4.8231  3.0744  2.4535  1.3698  1.0292  1.0292  0.2963  0.7023  0.7418  0.1395
  0.4933

 Free energy of the ion-electron system (eV)
  ---------------------------------------------------
  alpha Z        PSCENC =       505.22967617
  Ewald energy   TEWEN  =     86696.52073400
  -Hartree energ DENC   =   -101714.73390851
  -exchange      EXHF   =         0.00000000
  -V(xc)+E(xc)   XCENC  =     -6574.49050049
  PAW double counting   =     22190.46362297   -14144.24807563
  entropy T*S    EENTRO =        -0.05552589
  eigenvalues    EBANDS =     -1912.82251304
  atomic energy  EATOM  =     14019.20197576
  Solvation  Ediel_sol  =         0.00000000
  ---------------------------------------------------
  free energy    TOTEN  =      -934.93451467 eV

  energy without entropy =     -934.87898877  energy(sigma->0) =     -934.90675172


--------------------------------------------------------------------------------------------------------




----------------------------------------- Iteration    1(  17)  ---------------------------------------


    POTLOK:  cpu time    0.8350: real time    0.8353
    SETDIJ:  cpu time    0.1075: real time    0.1075
     EDDAV:  cpu time   21.3375: real time   24.2741
       DOS:  cpu time    0.0155: real time    0.0155
    CHARGE:  cpu time    1.6896: real time    1.7223
    MIXING:  cpu time    0.0450: real time    0.0450
    --------------------------------------------
[...]
     11.69112     -8.59029     -8.26601         0.002696     -0.001240      0.000656
     11.69112    -17.18057    -13.22561         0.001629     -0.000029     -0.000336
     11.69112    -11.45372     -3.30640         0.001143      0.000815     -0.001223
     11.69112    -14.31714     -8.26601         0.000622     -0.000879      0.000350
     13.99306      0.00000      0.00000        -0.000759     -0.000144     -0.000002
     13.99306     -2.86343     -4.95960        -0.001690     -0.000954      0.000206
     13.99306     -5.72686     -9.91921        -0.000888     -0.000207     -0.000666
     13.99306     -5.72686      0.00000        -0.001270     -0.000433     -0.000822
     13.99306     -8.59029     -4.95960        -0.002531      0.000730     -0.001185
     13.99306    -11.45372     -9.91921        -0.000488     -0.000387      0.001513
     13.99306    -11.45372      0.00000        -0.001014     -0.000168     -0.000611
     13.99306    -14.31714     -4.95960        -0.001370     -0.001125     -0.000232
     13.99306    -17.18057     -9.91921        -0.001105     -0.000052     -0.000293
     16.34180     -2.86343     -1.65320        -0.000929      0.000049     -0.000014
     16.34180     -5.72686     -6.61281         0.000793      0.000476     -0.000453
     16.34180     -8.59029    -11.57241         0.000113     -0.000148      0.000197
     16.34180     -8.59029     -1.65320        -0.000249      0.000521      0.000032
     16.34180    -11.45372     -6.61281        -0.028959     -0.009715      0.001779
     16.34180    -14.31714    -11.57241        -0.000610      0.000323      0.000484
     16.34180    -14.31714     -1.65320        -0.000654      0.000393     -0.000491
     16.34180    -17.18057     -6.61281        -0.001080      0.001440     -0.000050
     16.34180    -20.04400    -11.57241        -0.000695     -0.000094     -0.000107
      2.36204     -7.15857     -4.13300         0.000208     -0.000737     -0.001482
      2.36204    -10.02200     -9.09261        -0.001923     -0.000000      0.001853
      2.36204    -12.88543    -14.05221        -0.000844     -0.000436     -0.000195
      2.36204    -12.88543     -4.13300         0.000208      0.000737     -0.001482
      2.36204    -15.74886     -9.09261         0.000780     -0.001317     -0.001255
      2.36204    -18.61229    -14.05221        -0.000414     -0.000000     -0.000447
      2.36204    -18.61229     -4.13300        -0.000470     -0.000000      0.000050
      2.36204    -21.47572     -9.09261         0.000780      0.001317     -0.001255
      2.36204    -24.33915    -14.05221        -0.000844      0.000436     -0.000195
      4.71078    -10.02200     -5.78621        -0.003918     -0.000000     -0.000901
      4.71078    -12.88543    -10.74581        -0.000375      0.000108     -0.000831
      4.71078     -7.15857     -0.82660        -0.001822     -0.000238      0.001038
      4.71078    -15.74886     -5.78621        -0.000811     -0.000840      0.000174
      4.71078    -18.61229    -10.74581        -0.001268     -0.000000      0.000227
      4.71078    -12.88543     -0.82660        -0.001822      0.000238      0.001038
      4.71078     -4.29514     -5.78621        -0.000811      0.000840      0.000174
      4.71078     -7.15857    -10.74581        -0.000375     -0.000108     -0.000831
      4.71078     -1.43171     -0.82660        -0.001152     -0.000000      0.000419
      7.01272    -12.88543     -7.43941         0.000202      0.001833      0.000743
      7.01272    -15.74886    -12.39901         0.000975     -0.000114      0.000568
      7.01272    -10.02200     -2.47980         0.000175     -0.000000     -0.001045
      7.01272    -18.61229     -7.43941         0.001082     -0.000000      0.000835
      7.01272    -21.47572    -12.39901         0.000975      0.000114      0.000568
      7.01272    -15.74886     -2.47980         0.000641     -0.000171      0.000538
      7.01272     -7.15857     -7.43941         0.000202     -0.001833      0.000743
      7.01272    -10.02200    -12.39901         0.001117     -0.000000     -0.000589
      7.01272     -4.29514     -2.47980         0.000641      0.000171      0.000538
      9.35192    -15.74886     -9.09261         0.001140     -0.000464     -0.000069
      9.35192    -18.61229    -14.05221         0.000200     -0.000000     -0.000690
      9.35192    -12.88543     -4.13300        -0.000021      0.001533     -0.001078
      9.35192    -21.47572     -9.09261         0.001140      0.000464     -0.000069
      9.35192    -24.33915    -14.05221         0.001066     -0.000081      0.000387
      9.35192    -18.61229     -4.13300         0.001355     -0.000000     -0.000066
      9.35192    -10.02200     -9.09261         0.002229     -0.000000      0.002549
      9.35192    -12.88543    -14.05221         0.001066      0.000081      0.000387
      9.35192     -7.15857     -4.13300        -0.000021     -0.001533     -0.001078
     11.69112    -18.61229    -10.74581         0.001419     -0.000000     -0.000641
     11.69112    -12.88543     -0.82660         0.001931      0.000285     -0.000853
     11.69112    -15.74886     -5.78621         0.001409     -0.000443     -0.000368
     11.69112     -7.15857    -10.74581         0.001252      0.000376     -0.001054
     11.69112     -1.43171     -0.82660         0.001246     -0.000000     -0.000054
     11.69112     -4.29514     -5.78621         0.001409      0.000443     -0.000368
     11.69112    -12.88543    -10.74581         0.001252     -0.000376     -0.001054
     11.69112     -7.15857     -0.82660         0.001931     -0.000285     -0.000853
     11.69112    -10.02200     -5.78621        -0.000283     -0.000000      0.000229
     13.99306    -21.47572    -12.39901        -0.001220     -0.000007      0.000266
     13.99306    -15.74886     -2.47980        -0.001066      0.000020     -0.000078
     13.99306    -18.61229     -7.43941        -0.001309     -0.000000      0.000184
     13.99306    -10.02200    -12.39901        -0.000331     -0.000000      0.000025
     13.99306     -4.29514     -2.47980        -0.001066     -0.000020     -0.000078
     13.99306     -7.15857     -7.43941         0.000751     -0.002227      0.001580
     13.99306    -15.74886    -12.39901        -0.001220      0.000007      0.000266
     13.99306    -10.02200     -2.47980        -0.001893     -0.000000      0.002534
     13.99306    -12.88543     -7.43941         0.000751      0.002227      0.001580
     16.34180    -24.33915    -14.05221        -0.001142     -0.000398      0.000111
     16.34180    -18.61229     -4.13300        -0.001417     -0.000000      0.000338
     16.34180    -21.47572     -9.09261        -0.000218     -0.000393      0.000124
     16.34180    -12.88543    -14.05221        -0.001142      0.000398      0.000111
     16.34180     -7.15857     -4.13300         0.002466     -0.000621      0.000133
     16.34180    -10.02200     -9.09261         0.017363     -0.000000      0.003364
     16.34180    -18.61229    -14.05221        -0.000395     -0.000000     -0.000380
     16.34180    -12.88543     -4.13300         0.002466      0.000621      0.000133
     16.34180    -15.74886     -9.09261        -0.000218      0.000393      0.000124
      2.36204     -8.59029     -6.61281        -0.003199     -0.001711      0.000174
      2.36204    -11.45372    -11.57241         0.000206     -0.000038     -0.000590
      2.36204     -5.72686     -1.65320        -0.000390      0.000068      0.001223
      2.36204    -14.31714     -6.61281         0.000673      0.000993      0.000886
      2.36204    -17.18057    -11.57241        -0.000716      0.000107      0.000732
      2.36204    -11.45372     -1.65320         0.000695     -0.000718      0.001515
      2.36204    -20.04400     -6.61281        -0.000448      0.001071      0.000046
      2.36204    -22.90743    -11.57241        -0.000025      0.000414     -0.001042
      2.36204    -17.18057     -1.65320        -0.000621      0.000391      0.000038
      4.71078    -11.45372     -8.26601        -0.002285      0.001226      0.001813
      4.71078    -14.31714    -13.22561        -0.001948      0.000041     -0.000185
      4.71078     -8.59029     -3.30640        -0.000679     -0.000380     -0.001768
      4.71078    -17.18057     -8.26601        -0.000947     -0.000676      0.000172
      4.71078    -20.04400    -13.22561        -0.001378     -0.000098     -0.000726
      4.71078    -14.31714     -3.30640        -0.000541     -0.000687      0.000401
      4.71078     -5.72686     -8.26601         0.000219     -0.000707      0.000632
      4.71078     -8.59029    -13.22561        -0.001355      0.000119     -0.000030
      4.71078     -2.86343     -3.30640        -0.001458     -0.000319      0.000232
      7.01272    -14.31714     -9.91921         0.001547     -0.000591     -0.000671
      7.01272     -8.59029      0.00000         0.000129     -0.000166      0.000196
      7.01272    -11.45372     -4.95960         0.000374      0.001629     -0.001755
      7.01272    -20.04400     -9.91921         0.000234     -0.000828     -0.000771
      7.01272    -14.31714      0.00000         0.000906      0.000253     -0.000245
      7.01272    -17.18057     -4.95960         0.000735      0.000040     -0.000411
      7.01272     -8.59029     -9.91921         0.000643     -0.001071      0.001593
      7.01272     -2.86343      0.00000         0.000685      0.000369     -0.000107
      7.01272     -5.72686     -4.95960         0.000920     -0.000479     -0.000824
      9.35192    -17.18057    -11.57241         0.000854      0.000307      0.000529
      9.35192    -11.45372     -1.65320         0.000917     -0.000741      0.000928
      9.35192    -14.31714     -6.61281         0.000613      0.000702     -0.000216
      9.35192    -22.90743    -11.57241         0.001558     -0.000090      0.000061
      9.35192    -17.18057     -1.65320         0.000709      0.000272     -0.000466
      9.35192    -20.04400     -6.61281         0.001415     -0.000002     -0.000016
      9.35192    -11.45372    -11.57241         0.000628     -0.000574     -0.000941
      9.35192     -5.72686     -1.65320         0.001476      0.000005      0.000315
      9.35192     -8.59029     -6.61281         0.004375     -0.000484     -0.000123
     11.69112    -20.04400    -13.22561         0.001629      0.000029     -0.000336
     11.69112    -14.31714     -3.30640         0.001139     -0.000441      0.000908
     11.69112    -17.18057     -8.26601         0.000616      0.000810      0.000614
     11.69112     -8.59029    -13.22561         0.001458      0.000169      0.000950
     11.69112     -2.86343     -3.30640         0.001332     -0.000633     -0.000023
     11.69112     -5.72686     -8.26601         0.000622      0.000879      0.000350
     11.69112    -14.31714    -13.22561         0.000899      0.000665      0.000935
     11.69112     -8.59029     -3.30640         0.001143     -0.000815     -0.001223
     11.69112    -11.45372     -8.26601         0.002696      0.001240      0.000656
     13.99306    -14.31714      0.00000        -0.001270      0.000433     -0.000822
     13.99306    -17.18057     -4.95960        -0.001690      0.000954      0.000206
     13.99306    -20.04400     -9.91921        -0.001105      0.000052     -0.000293
     13.99306     -2.86343      0.00000        -0.000759      0.000144     -0.000002
     13.99306     -5.72686     -4.95960        -0.001370      0.001125     -0.000232
     13.99306     -8.59029     -9.91921        -0.000488      0.000387      0.001513
     13.99306     -8.59029      0.00000        -0.001014      0.000168     -0.000611
     13.99306    -11.45372     -4.95960        -0.002531     -0.000730     -0.001185
     13.99306    -14.31714     -9.91921        -0.000888      0.000207     -0.000666
     16.34180    -17.18057     -1.65320        -0.000929     -0.000049     -0.000014
     16.34180    -20.04400     -6.61281        -0.001080     -0.001440     -0.000050
     16.34180    -22.90743    -11.57241        -0.000610     -0.000323      0.000484
     16.34180     -5.72686     -1.65320        -0.000654     -0.000393     -0.000491
     16.34180     -8.59029     -6.61281        -0.028959      0.009715      0.001779
     16.34180    -11.45372    -11.57241         0.000113      0.000148      0.000197
     16.34180    -11.45372     -1.65320        -0.000249     -0.000521      0.000032
     16.34180    -14.31714     -6.61281         0.000793     -0.000476     -0.000453
     16.34180    -17.18057    -11.57241        -0.000695      0.000094     -0.000107
      2.36204    -10.02200     -4.13300        -0.000710     -0.000000     -0.003026
      2.36204    -12.88543     -9.09261         0.000724      0.001954      0.000923
      2.36204    -15.74886    -14.05221        -0.001097      0.000533     -0.000708
      2.36204    -15.74886     -4.13300         0.000413     -0.000667      0.000741
      2.36204    -18.61229     -9.09261        -0.000531     -0.000000     -0.000257
      2.36204    -21.47572    -14.05221        -0.001097     -0.000533     -0.000708
      2.36204     -4.29514     -4.13300         0.000413      0.000667      0.000741
      2.36204     -7.15857     -9.09261         0.000724     -0.001954      0.000923
      2.36204    -10.02200    -14.05221        -0.000535     -0.000000      0.000025
      4.71078    -12.88543     -5.78621        -0.001677      0.002275     -0.000220
      4.71078    -15.74886    -10.74581        -0.001500     -0.000803     -0.000667
      4.71078    -10.02200     -0.82660        -0.000033     -0.000000      0.001318
      4.71078    -18.61229     -5.78621        -0.001524     -0.000000     -0.000592
      4.71078    -21.47572    -10.74581        -0.001500      0.000803     -0.000667
      4.71078    -15.74886     -0.82660        -0.001356      0.000126      0.000016
      4.71078     -7.15857     -5.78621        -0.001677     -0.002275     -0.000220
      4.71078    -10.02200    -10.74581        -0.000739     -0.000000      0.000515
      4.71078     -4.29514     -0.82660        -0.001356     -0.000126      0.000016
      7.01272    -15.74886     -7.43941         0.000778     -0.000426     -0.000196
      7.01272    -18.61229    -12.39901         0.001111     -0.000000     -0.000507
      7.01272    -12.88543     -2.47980         0.001107     -0.000553      0.000687
      7.01272    -21.47571     -7.43941         0.000778      0.000426     -0.000196
      7.01272    -24.33914    -12.39901         0.000096     -0.000009     -0.000247
      7.01272    -18.61228     -2.47980         0.000602     -0.000000      0.000181
      7.01272    -10.02200     -7.43941         0.001513     -0.000000      0.000232
      7.01272    -12.88543    -12.39901         0.000096      0.000009     -0.000247
      7.01272     -7.15857     -2.47980         0.001107      0.000553      0.000687
      9.35192    -18.61229     -9.09261         0.002262     -0.000000      0.000231
      9.35192    -21.47572    -14.05221         0.000965     -0.000016     -0.000929
      9.35192    -15.74886     -4.13300         0.001005     -0.000668      0.000023
      9.35192     -7.15857     -9.09261        -0.000613     -0.000847      0.001065
      9.35192    -10.02200    -14.05221         0.000513     -0.000000      0.000341
      9.35192     -4.29514     -4.13300         0.001005      0.000668      0.000023
      9.35192    -12.88543     -9.09261        -0.000613      0.000847      0.001065
      9.35192    -15.74886    -14.05221         0.000965      0.000016     -0.000929
      9.35192    -10.02200     -4.13300         0.001548     -0.000000     -0.002230
     11.69112    -21.47572    -10.74581         0.001416     -0.000443      0.000057
     11.69112    -15.74886     -0.82660         0.001137      0.000248     -0.000609
     11.69112    -18.61229     -5.78621         0.000921     -0.000000     -0.000388
     11.69112    -10.02200    -10.74581        -0.000471     -0.000000      0.000155
     11.69112     -4.29514     -0.82660         0.001137     -0.000248     -0.000609
     11.69112     -7.15857     -5.78621         0.002333     -0.001134     -0.000818
     11.69112    -15.74886    -10.74581         0.001416      0.000443      0.000057
     11.69112    -10.02200     -0.82660         0.001795     -0.000000     -0.000010
     11.69112    -12.88543     -5.78621         0.002333      0.001134     -0.000818
     13.99306    -24.33914    -12.39901        -0.000902     -0.000474      0.000845
     13.99306    -18.61228     -2.47980        -0.001097     -0.000000      0.000222
     13.99306    -21.47571     -7.43941        -0.000130     -0.000142      0.000718
     13.99306    -12.88543    -12.39901        -0.000902      0.000474      0.000845
     13.99306     -7.15857     -2.47980        -0.000918      0.000572      0.000945
     13.99306    -10.02200     -7.43941        -0.014560     -0.000000     -0.001125
     13.99306    -18.61229    -12.39901        -0.001098     -0.000000      0.000487
     13.99306    -12.88543     -2.47980        -0.000918     -0.000572      0.000945
     13.99306    -15.74886     -7.43941        -0.000130      0.000142      0.000718
     16.34180    -10.02200    -14.05221        -0.000557     -0.000000      0.000020
     16.34180     -4.29514     -4.13300        -0.000072     -0.000366     -0.000054
     16.34180     -7.15857     -9.09261         0.001942      0.000994     -0.000094
     16.34180    -15.74886    -14.05221        -0.001079     -0.000390     -0.000016
     16.34180    -10.02200     -4.13300         0.017251     -0.000000     -0.006045
     16.34180    -12.88543     -9.09261         0.001942     -0.000994     -0.000094
     16.34180    -21.47572    -14.05221        -0.001079      0.000390     -0.000016
     16.34180    -15.74886     -4.13300        -0.000072      0.000366     -0.000054
     16.34180    -18.61229     -9.09261        -0.001201     -0.000000     -0.000246
     20.04000    -10.02200     -7.24000         0.014002      0.000000     10.913871
     20.04000    -10.02200     -5.98600         0.009034      0.000000    -10.916118
 -----------------------------------------------------------------------------------
    total drift:                                0.111746      0.000266      0.000719


--------------------------------------------------------------------------------------------------------



  FREE ENERGIE OF THE ION-ELECTRON SYSTEM (eV)
  ---------------------------------------------------
  free  energy   TOTEN  =      -934.94688265 eV

  energy  without entropy=     -934.89133666  energy(sigma->0) =     -934.91910966
 


--------------------------------------------------------------------------------------------------------


    POTLOK:  cpu time    0.9285: real time    0.9427


--------------------------------------------------------------------------------------------------------


     LOOP+:  cpu time  634.0431: real time  715.4450
    4ORBIT:  cpu time    0.0000: real time    0.0000

 total amount of memory used by VASP MPI-rank0   652183. kBytes
=======================================================================

   base      :      30000. kBytes
   nonlr-proj:      89962. kBytes
   fftplans  :      40601. kBytes
   grid      :      95147. kBytes
   one-center:       3950. kBytes
   wavefun   :     392523. kBytes
 
  
  
 General timing and accounting informations for this job:
 ========================================================
  
                  Total CPU time used (sec):      650.621
                            User time (sec):      109.396
                          System time (sec):      541.225
                         Elapsed time (sec):      735.132
  
                   Maximum memory used (kb):     1001508.
                   Average memory used (kb):           0.
  
                          Minor page faults:     24548726
                          Major page faults:           47
                 Voluntary context switches:        16650
