 254 254   0   0
  0.2268316E+02  0.1514622E-08  0.1514622E-08  0.2900000E-08  0.5000000E-15
  1.000000000000000E-004
  CAR 
 NiAl                                    
      5.81841401    -19.89710053  301     -0.60279886      1.00000000
    -19.897  0.0000E+00  0.0000E+00
    -19.811  0.0000E+00  0.0000E+00
    -19.726  0.0000E+00  0.0000E+00
    -19.640  0.0000E+00  0.0000E+00
    -19.554  0.0000E+00  0.0000E+00
    -19.469  0.0000E+00  0.0000E+00
    -19.383  0.0000E+00  0.0000E+00
    -19.297  0.0000E+00  0.0000E+00
    -19.211  0.0000E+00  0.0000E+00
    -19.126  0.0000E+00  0.0000E+00
    -19.040  0.0000E+00  0.0000E+00
    -18.954  0.1889E-08  0.1619E-09
    -18.868  0.8412E-03  0.7210E-04
    -18.783  0.1427E+01  0.1224E+00
    -18.697  0.1748E+02  0.1621E+01
    -18.611  0.4410E+01  0.1999E+01
    -18.526  0.1111E-01  0.2000E+01
    -18.440  0.1181E-06  0.2000E+01
    -18.354  0.5181E-14  0.2000E+01
    -18.268  0.0000E+00  0.2000E+01
    -18.183  0.0000E+00  0.2000E+01
    -18.097  0.0000E+00  0.2000E+01
    -18.011  0.0000E+00  0.2000E+01
    -17.926  0.0000E+00  0.2000E+01
    -17.840  0.0000E+00  0.2000E+01
    -17.754  0.0000E+00  0.2000E+01
    -17.668  0.0000E+00  0.2000E+01
    -17.583  0.0000E+00  0.2000E+01
    -17.497  0.0000E+00  0.2000E+01
    -17.411  0.0000E+00  0.2000E+01
    -17.326  0.0000E+00  0.2000E+01
    -17.240  0.0000E+00  0.2000E+01
    -17.154  0.0000E+00  0.2000E+01
    -17.068  0.0000E+00  0.2000E+01
    -16.983  0.0000E+00  0.2000E+01
    -16.897  0.0000E+00  0.2000E+01
    -16.811  0.0000E+00  0.2000E+01
    -16.726  0.0000E+00  0.2000E+01
    -16.640  0.0000E+00  0.2000E+01
    -16.554  0.0000E+00  0.2000E+01
    -16.468  0.0000E+00  0.2000E+01
    -16.383  0.0000E+00  0.2000E+01
    -16.297  0.0000E+00  0.2000E+01
    -16.211  0.0000E+00  0.2000E+01
    -16.125  0.0000E+00  0.2000E+01
    -16.040  0.0000E+00  0.2000E+01
    -15.954  0.0000E+00  0.2000E+01
    -15.868  0.0000E+00  0.2000E+01
    -15.783  0.0000E+00  0.2000E+01
    -15.697  0.0000E+00  0.2000E+01
    -15.611  0.0000E+00  0.2000E+01
    -15.525  0.0000E+00  0.2000E+01
    -15.440  0.0000E+00  0.2000E+01
    -15.354  0.0000E+00  0.2000E+01
    -15.268  0.0000E+00  0.2000E+01
    -15.183  0.0000E+00  0.2000E+01
    -15.097  0.0000E+00  0.2000E+01
    -15.011  0.0000E+00  0.2000E+01
    -14.925  0.0000E+00  0.2000E+01
    -14.840  0.0000E+00  0.2000E+01
    -14.754  0.0000E+00  0.2000E+01
    -14.668  0.0000E+00  0.2000E+01
    -14.583  0.0000E+00  0.2000E+01
    -14.497  0.0000E+00  0.2000E+01
    -14.411  0.0000E+00  0.2000E+01
    -14.325  0.0000E+00  0.2000E+01
    -14.240  0.0000E+00  0.2000E+01
    -14.154  0.0000E+00  0.2000E+01
    -14.068  0.0000E+00  0.2000E+01
    -13.983  0.0000E+00  0.2000E+01
    -13.897  0.0000E+00  0.2000E+01
    -13.811  0.0000E+00  0.2000E+01
    -13.725  0.0000E+00  0.2000E+01
    -13.640  0.0000E+00  0.2000E+01
    -13.554  0.0000E+00  0.2000E+01
    -13.468  0.0000E+00  0.2000E+01
    -13.383  0.0000E+00  0.2000E+01
    -13.297  0.0000E+00  0.2000E+01
    -13.211  0.0000E+00  0.2000E+01
    -13.125  0.0000E+00  0.2000E+01
    -13.040  0.0000E+00  0.2000E+01
    -12.954  0.0000E+00  0.2000E+01
    -12.868  0.0000E+00  0.2000E+01
    -12.782  0.0000E+00  0.2000E+01
    -12.697  0.0000E+00  0.2000E+01
    -12.611  0.0000E+00  0.2000E+01
    -12.525  0.0000E+00  0.2000E+01
    -12.440  0.0000E+00  0.2000E+01
    -12.354  0.0000E+00  0.2000E+01
    -12.268  0.0000E+00  0.2000E+01
    -12.182  0.0000E+00  0.2000E+01
    -12.097  0.0000E+00  0.2000E+01
    -12.011  0.0000E+00  0.2000E+01
    -11.925  0.0000E+00  0.2000E+01
    -11.840  0.0000E+00  0.2000E+01
    -11.754  0.0000E+00  0.2000E+01
    -11.668  0.0000E+00  0.2000E+01
    -11.582  0.0000E+00  0.2000E+01
    -11.497  0.0000E+00  0.2000E+01
    -11.411  0.0000E+00  0.2000E+01
    -11.325  0.0000E+00  0.2000E+01
    -11.240  0.5278E-13  0.2000E+01
    -11.154  0.7135E-06  0.2000E+01
    -11.068  0.3245E-01  0.2003E+01
    -10.982  0.6630E+01  0.2571E+01
    -10.897  0.1593E+02  0.3937E+01
    -10.811  0.7366E+00  0.4000E+01
    -10.725  0.2156E-03  0.4000E+01
    -10.640  0.2318E-09  0.4000E+01
    -10.554  0.0000E+00  0.4000E+01
    -10.468  0.0000E+00  0.4000E+01
    -10.382  0.0000E+00  0.4000E+01
    -10.297  0.0000E+00  0.4000E+01
    -10.211  0.0000E+00  0.4000E+01
    -10.125  0.0000E+00  0.4000E+01
    -10.039  0.0000E+00  0.4000E+01
     -9.954  0.0000E+00  0.4000E+01
     -9.868  0.0000E+00  0.4000E+01
     -9.782  0.0000E+00  0.4000E+01
     -9.697  0.0000E+00  0.4000E+01
     -9.611  0.0000E+00  0.4000E+01
     -9.525  0.0000E+00  0.4000E+01
     -9.439  0.0000E+00  0.4000E+01
     -9.354  0.1758E-12  0.4000E+01
     -9.268  0.1084E-05  0.4000E+01
     -9.182  0.2290E-01  0.4002E+01
     -9.097  0.2354E+01  0.4204E+01
     -9.011  0.3373E+01  0.4493E+01
     -8.925  0.1004E+01  0.4579E+01
     -8.839  0.2311E+02  0.6560E+01
     -8.754  0.1090E+02  0.7495E+01
     -8.668  0.6892E-01  0.7501E+01
     -8.582  0.1477E+01  0.7627E+01
     -8.497  0.4262E+01  0.7992E+01
     -8.411  0.1486E+02  0.9266E+01
     -8.325  0.4001E+02  0.1270E+02
     -8.239  0.1685E+02  0.1414E+02
     -8.154  0.2583E+02  0.1635E+02
     -8.068  0.7517E+01  0.1700E+02
     -7.982  0.1811E+00  0.1701E+02
     -7.897  0.1475E+02  0.1828E+02
     -7.811  0.1973E+02  0.1997E+02
     -7.725  0.6642E+01  0.2054E+02
     -7.639  0.2939E+02  0.2306E+02
     -7.554  0.3273E+02  0.2586E+02
     -7.468  0.7243E+02  0.3207E+02
     -7.382  0.4997E+01  0.3250E+02
     -7.296  0.3786E-02  0.3250E+02
     -7.211  0.6974E+00  0.3256E+02
     -7.125  0.2988E+02  0.3512E+02
     -7.039  0.8575E+02  0.4247E+02
     -6.954  0.2489E+02  0.4460E+02
     -6.868  0.2476E+02  0.4673E+02
     -6.782  0.9177E+01  0.4751E+02
     -6.696  0.1560E+02  0.4885E+02
     -6.611  0.2551E+02  0.5104E+02
     -6.525  0.3394E+02  0.5395E+02
     -6.439  0.3834E+02  0.5723E+02
     -6.354  0.6501E+02  0.6281E+02
     -6.268  0.6704E+02  0.6855E+02
     -6.182  0.7824E+01  0.6922E+02
     -6.096  0.4758E+02  0.7330E+02
     -6.011  0.4809E+02  0.7742E+02
     -5.925  0.1084E+03  0.8672E+02
     -5.839  0.3777E+02  0.8996E+02
     -5.754  0.9479E+00  0.9004E+02
     -5.668  0.5055E+01  0.9047E+02
     -5.582  0.2349E+02  0.9248E+02
     -5.496  0.5625E+02  0.9731E+02
     -5.411  0.1307E+03  0.1085E+03
     -5.325  0.1055E+03  0.1175E+03
     -5.239  0.5441E+02  0.1222E+03
     -5.154  0.8557E+02  0.1295E+03
     -5.068  0.1162E+03  0.1395E+03
     -4.982  0.1227E+03  0.1500E+03
     -4.896  0.4954E+02  0.1543E+03
     -4.811  0.7348E+02  0.1606E+03
     -4.725  0.2979E+03  0.1861E+03
     -4.639  0.1725E+03  0.2009E+03
     -4.554  0.2338E+03  0.2209E+03
     -4.468  0.2355E+03  0.2411E+03
     -4.382  0.2926E+03  0.2662E+03
     -4.296  0.2940E+03  0.2914E+03
     -4.211  0.2455E+03  0.3124E+03
     -4.125  0.2522E+03  0.3341E+03
     -4.039  0.3253E+03  0.3620E+03
     -3.953  0.4551E+03  0.4010E+03
     -3.868  0.5434E+03  0.4475E+03
     -3.782  0.4392E+03  0.4852E+03
     -3.696  0.4742E+03  0.5258E+03
     -3.611  0.4525E+03  0.5646E+03
     -3.525  0.3985E+03  0.5988E+03
     -3.439  0.3838E+03  0.6317E+03
     -3.353  0.3337E+03  0.6603E+03
     -3.268  0.3900E+03  0.6937E+03
     -3.182  0.5539E+03  0.7412E+03
     -3.096  0.4772E+03  0.7821E+03
     -3.011  0.3411E+03  0.8113E+03
     -2.925  0.5761E+03  0.8607E+03
     -2.839  0.5598E+03  0.9087E+03
     -2.753  0.4729E+03  0.9492E+03
     -2.668  0.5643E+03  0.9976E+03
     -2.582  0.5529E+03  0.1045E+04
     -2.496  0.6882E+03  0.1104E+04
     -2.411  0.7408E+03  0.1167E+04
     -2.325  0.8360E+03  0.1239E+04
     -2.239  0.9430E+03  0.1320E+04
     -2.153  0.7656E+03  0.1386E+04
     -2.068  0.8923E+03  0.1462E+04
     -1.982  0.8538E+03  0.1535E+04
     -1.896  0.5734E+03  0.1584E+04
     -1.811  0.5992E+03  0.1636E+04
     -1.725  0.5832E+03  0.1686E+04
     -1.639  0.5081E+03  0.1729E+04
     -1.553  0.5729E+03  0.1778E+04
     -1.468  0.7685E+03  0.1844E+04
     -1.382  0.8022E+03  0.1913E+04
     -1.296  0.5691E+03  0.1962E+04
     -1.210  0.4744E+03  0.2003E+04
     -1.125  0.7968E+03  0.2071E+04
     -1.039  0.7486E+03  0.2135E+04
     -0.953  0.9059E+03  0.2213E+04
     -0.868  0.6246E+03  0.2266E+04
     -0.782  0.7168E+03  0.2328E+04
     -0.696  0.1011E+04  0.2414E+04
     -0.610  0.1247E+04  0.2521E+04
     -0.525  0.8844E+03  0.2597E+04
     -0.439  0.5014E+03  0.2640E+04
     -0.353  0.2570E+03  0.2662E+04
     -0.268  0.1253E+03  0.2673E+04
     -0.182  0.1310E+03  0.2684E+04
     -0.096  0.1679E+03  0.2698E+04
     -0.010  0.1622E+03  0.2712E+04
      0.075  0.7593E+02  0.2719E+04
      0.161  0.5514E+02  0.2724E+04
      0.247  0.5567E+02  0.2728E+04
      0.332  0.1469E+02  0.2730E+04
      0.418  0.1381E+03  0.2741E+04
      0.504  0.8108E+02  0.2748E+04
      0.590  0.1014E+03  0.2757E+04
      0.675  0.8730E+02  0.2765E+04
      0.761  0.6828E+02  0.2770E+04
      0.847  0.1131E+03  0.2780E+04
      0.932  0.1346E+03  0.2792E+04
      1.018  0.1161E+03  0.2802E+04
      1.104  0.1048E+02  0.2802E+04
      1.190  0.2941E+02  0.2805E+04
      1.275  0.1102E+03  0.2814E+04
      1.361  0.9835E+02  0.2823E+04
      1.447  0.2514E+02  0.2825E+04
      1.532  0.4985E+02  0.2829E+04
      1.618  0.1123E+03  0.2839E+04
      1.704  0.9330E+02  0.2847E+04
      1.790  0.7874E+02  0.2854E+04
      1.875  0.7600E+02  0.2860E+04
      1.961  0.1140E+03  0.2870E+04
      2.047  0.4491E+02  0.2874E+04
      2.133  0.4602E+02  0.2878E+04
      2.218  0.9860E+02  0.2886E+04
      2.304  0.1170E+03  0.2896E+04
      2.390  0.9828E+02  0.2905E+04
      2.475  0.1601E+02  0.2906E+04
      2.561  0.5487E+02  0.2911E+04
      2.647  0.6542E+02  0.2916E+04
      2.733  0.1351E+02  0.2917E+04
      2.818  0.1190E+02  0.2919E+04
      2.904  0.5980E+02  0.2924E+04
      2.990  0.9594E+02  0.2932E+04
      3.075  0.2260E+03  0.2951E+04
      3.161  0.1379E+03  0.2963E+04
      3.247  0.3228E+02  0.2966E+04
      3.333  0.2642E+02  0.2968E+04
      3.418  0.2793E+02  0.2970E+04
      3.504  0.1309E+03  0.2982E+04
      3.590  0.2127E+02  0.2984E+04
      3.675  0.4384E+02  0.2987E+04
      3.761  0.8793E+02  0.2995E+04
      3.847  0.8736E+01  0.2996E+04
      3.933  0.2461E+02  0.2998E+04
      4.018  0.1526E+02  0.2999E+04
      4.104  0.2507E+02  0.3001E+04
      4.190  0.9703E+02  0.3009E+04
      4.275  0.2955E+02  0.3012E+04
      4.361  0.5002E+02  0.3016E+04
      4.447  0.9942E+02  0.3025E+04
      4.533  0.6426E+02  0.3030E+04
      4.618  0.3762E+02  0.3034E+04
      4.704  0.2786E+02  0.3036E+04
      4.790  0.8746E+00  0.3036E+04
      4.876  0.4291E-03  0.3036E+04
      4.961  0.9512E-09  0.3036E+04
      5.047  0.0000E+00  0.3036E+04
      5.133  0.0000E+00  0.3036E+04
      5.218  0.0000E+00  0.3036E+04
      5.304  0.0000E+00  0.3036E+04
      5.390  0.0000E+00  0.3036E+04
      5.476  0.0000E+00  0.3036E+04
      5.561  0.0000E+00  0.3036E+04
      5.647  0.0000E+00  0.3036E+04
      5.733  0.0000E+00  0.3036E+04
      5.818  0.0000E+00  0.3036E+04
