  254  254    1    1
  0.2268316E+02  0.1514622E-08  0.1514622E-08  0.2900000E-08  0.5000000E-15
  1.000000000000000E-004
  CAR 
 NiAl                                    
   2530      4   1518
 
  0.0000000E+00  0.0000000E+00  0.0000000E+00  0.2500000E+00
    1      -18.728083   1.000000
    2      -10.962253   1.000000
    3       -9.088314   1.000000
    4       -8.558896   1.000000
    5       -8.181793   1.000000
    6       -8.181743   1.000000
    7       -8.181643   1.000000
    8       -8.181509   1.000000
    9       -8.181354   1.000000
   10       -8.181152   1.000000
   11       -7.732733   1.000000
   12       -7.676900   1.000000
   13       -7.675894   1.000000
   14       -7.675796   1.000000
   15       -7.675617   1.000000
   16       -7.675517   1.000000
   17       -7.675445   1.000000
   18       -6.894410   1.000000
   19       -6.890485   1.000000
   20       -6.890399   1.000000
   21       -6.890185   1.000000
   22       -6.890073   1.000000
   23       -6.890012   1.000000
   24       -6.709060   1.000000
   25       -6.546218   1.000000
   26       -6.546069   1.000000
   27       -6.545969   1.000000
   28       -6.545877   1.000000
   29       -6.545835   1.000000
   30       -6.545783   1.000000
   31       -6.126819   1.000000
   32       -6.125834   1.000000
   33       -6.125644   1.000000
   34       -6.125595   1.000000
   35       -6.125577   1.000000
   36       -6.125466   1.000000
   37       -5.938237   1.000000
   38       -5.925161   1.000000
   39       -5.924912   1.000000
   40       -5.924873   1.000000
   41       -5.924852   1.000000
   42       -5.924756   1.000000
   43       -5.924714   1.000000
   44       -5.924643   1.000000
   45       -5.924423   1.000000
   46       -5.924194   1.000000
   47       -5.924117   1.000000
   48       -5.924024   1.000000
   49       -5.702104   1.000000
   50       -5.593912   1.000000
   51       -5.593368   1.000000
   52       -5.593327   1.000000
   53       -5.593310   1.000000
   54       -5.593221   1.000000
   55       -5.593172   1.000000
   56       -5.503068   1.000000
   57       -5.499216   1.000000
   58       -5.498621   1.000000
   59       -5.498568   1.000000
   60       -5.498553   1.000000
   61       -5.498508   1.000000
   62       -5.154013   1.000000
   63       -5.146243   1.000000
   64       -5.145951   1.000000
   65       -5.145696   1.000000
   66       -5.145660   1.000000
   67       -5.145588   1.000000
   68       -5.112514   1.000000
   69       -5.046286   1.000000
   70       -4.990640   1.000000
   71       -4.988480   1.000000
   72       -4.988247   1.000000
   73       -4.988132   1.000000
   74       -4.987993   1.000000
   75       -4.935263   1.000000
   76       -4.888448   1.000000
   77       -4.815921   1.000000
   78       -4.815799   1.000000
   79       -4.815729   1.000000
   80       -4.794504   1.000000
   81       -4.780512   1.000000
   82       -4.776511   1.000000
   83       -4.776414   1.000000
   84       -4.776359   1.000000
   85       -4.775737   1.000000
   86       -4.704981   1.000000
   87       -4.696396   1.000000
   88       -4.692952   1.000000
   89       -4.692868   1.000000
   90       -4.692775   1.000000
   91       -4.692438   1.000000
   92       -4.674867   1.000000
   93       -4.674765   1.000000
   94       -4.674698   1.000000
   95       -4.632905   1.000000
   96       -4.585215   1.000000
   97       -4.582164   1.000000
   98       -4.582090   1.000000
   99       -4.582053   1.000000
  100       -4.581966   1.000000
  101       -4.581949   1.000000
  102       -4.581837   1.000000
  103       -4.581768   1.000000
  104       -4.581741   1.000000
  105       -4.581644   1.000000
  106       -4.581487   1.000000
  107       -4.581211   1.000000
  108       -4.569302   1.000000
  109       -4.539794   1.000000
  110       -4.539511   1.000000
  111       -4.538698   1.000000
  112       -4.469377   1.000000
  113       -4.469268   1.000000
  114       -4.469087   1.000000
  115       -4.434697   1.000000
  116       -4.434318   1.000000
  117       -4.434205   1.000000
  118       -4.434047   1.000000
  119       -4.429905   1.000000
  120       -4.401627   1.000000
  121       -4.378553   1.000000
  122       -4.378459   1.000000
  123       -4.378390   1.000000
  124       -4.378310   1.000000
  125       -4.378299   1.000000
  126       -4.378236   1.000000
  127       -4.378177   1.000000
  128       -4.378137   1.000000
  129       -4.378105   1.000000
  130       -4.377984   1.000000
  131       -4.377812   1.000000
  132       -4.377699   1.000000
  133       -4.367798   1.000000
  134       -4.367721   1.000000
  135       -4.367685   1.000000
  136       -4.367467   1.000000
  137       -4.367449   1.000000
  138       -4.367402   1.000000
  139       -4.367365   1.000000
  140       -4.367310   1.000000
  141       -4.367251   1.000000
  142       -4.367218   1.000000
  143       -4.367048   1.000000
  144       -4.366952   1.000000
  145       -4.321529   1.000000
  146       -4.321042   1.000000
  147       -4.320951   1.000000
  148       -4.320810   1.000000
  149       -4.320307   1.000000
  150       -4.308580   1.000000
  151       -4.285251   1.000000
  152       -4.285099   1.000000
  153       -4.285030   1.000000
  154       -4.284925   1.000000
  155       -4.283323   1.000000
  156       -4.277783   1.000000
  157       -4.264389   1.000000
  158       -4.264285   1.000000
  159       -4.264045   1.000000
  160       -4.226622   1.000000
  161       -4.226452   1.000000
  162       -4.226409   1.000000
  163       -4.226354   1.000000
  164       -4.226306   1.000000
  165       -4.226254   1.000000
  166       -4.226190   1.000000
  167       -4.226153   1.000000
  168       -4.226074   1.000000
  169       -4.225987   1.000000
  170       -4.225896   1.000000
  171       -4.225667   1.000000
  172       -4.163637   1.000000
  173       -4.163626   1.000000
  174       -4.163449   1.000000
  175       -4.135045   1.000000
  176       -4.134903   1.000000
  177       -4.134842   1.000000
  178       -4.134694   1.000000
  179       -4.133398   1.000000
  180       -4.126952   1.000000
  181       -4.056514   1.000000
  182       -4.055983   1.000000
  183       -4.055767   1.000000
  184       -4.028911   1.000000
  185       -4.028648   1.000000
  186       -4.028583   1.000000
  187       -4.028573   1.000000
  188       -4.028422   1.000000
  189       -4.028397   1.000000
  190       -4.028337   1.000000
  191       -4.028307   1.000000
  192       -4.028225   1.000000
  193       -4.028163   1.000000
  194       -4.027954   1.000000
  195       -4.027693   1.000000
  196       -3.994556   1.000000
  197       -3.994477   1.000000
  198       -3.994331   1.000000
  199       -3.931106   1.000000
  200       -3.930841   1.000000
  201       -3.930751   1.000000
  202       -3.929514   1.000000
  203       -3.929399   1.000000
  204       -3.929337   1.000000
  205       -3.929258   1.000000
  206       -3.928617   1.000000
  207       -3.927401   1.000000
  208       -3.884211   1.000000
  209       -3.884124   1.000000
  210       -3.883985   1.000000
  211       -3.883859   1.000000
  212       -3.883804   1.000000
  213       -3.883677   1.000000
  214       -3.883661   1.000000
  215       -3.883649   1.000000
  216       -3.883530   1.000000
  217       -3.883500   1.000000
  218       -3.883464   1.000000
  219       -3.883188   1.000000
  220       -3.872369   1.000000
  221       -3.872350   1.000000
  222       -3.872296   1.000000
  223       -3.872213   1.000000
  224       -3.872098   1.000000
  225       -3.871587   1.000000
  226       -3.789725   1.000000
  227       -3.789382   1.000000
  228       -3.789329   1.000000
  229       -3.789234   1.000000
  230       -3.789146   1.000000
  231       -3.789074   1.000000
  232       -3.789036   1.000000
  233       -3.788999   1.000000
  234       -3.788944   1.000000
  235       -3.788885   1.000000
  236       -3.788549   1.000000
  237       -3.788491   1.000000
  238       -3.757699   1.000000
  239       -3.757608   1.000000
  240       -3.757576   1.000000
  241       -3.757495   1.000000
  242       -3.757200   1.000000
  243       -3.755482   1.000000
  244       -3.741917   1.000000
  245       -3.741868   1.000000
  246       -3.741538   1.000000
  247       -3.741490   1.000000
  248       -3.737972   1.000000
  249       -3.737857   1.000000
  250       -3.737754   1.000000
  251       -3.737654   1.000000
  252       -3.737567   1.000000
  253       -3.736965   1.000000
  254       -3.732116   1.000000
  255       -3.732089   1.000000
  256       -3.692182   1.000000
  257       -3.691917   1.000000
  258       -3.691896   1.000000
  259       -3.691755   1.000000
  260       -3.691734   1.000000
  261       -3.691703   1.000000
  262       -3.691680   1.000000
  263       -3.691537   1.000000
  264       -3.691520   1.000000
  265       -3.691500   1.000000
  266       -3.691424   1.000000
  267       -3.691134   1.000000
  268       -3.681391   1.000000
  269       -3.681375   1.000000
  270       -3.681182   1.000000
  271       -3.632778   1.000000
  272       -3.632679   1.000000
  273       -3.632584   1.000000
  274       -3.632468   1.000000
  275       -3.632357   1.000000
  276       -3.631913   1.000000
  277       -3.625657   1.000000
  278       -3.625590   1.000000
  279       -3.625271   1.000000
  280       -3.625225   1.000000
  281       -3.605815   1.000000
  282       -3.605776   1.000000
  283       -3.589912   1.000000
  284       -3.589828   1.000000
  285       -3.589721   1.000000
  286       -3.589600   1.000000
  287       -3.589456   1.000000
  288       -3.588607   1.000000
  289       -3.578736   1.000000
  290       -3.578710   1.000000
  291       -3.578326   1.000000
  292       -3.578253   1.000000
  293       -3.573880   1.000000
  294       -3.573852   1.000000
  295       -3.508243   1.000000
  296       -3.507992   1.000000
  297       -3.507732   1.000000
  298       -3.507708   1.000000
  299       -3.502703   1.000000
  300       -3.502479   1.000000
  301       -3.502402   1.000000
  302       -3.502377   1.000000
  303       -3.502271   1.000000
  304       -3.502198   1.000000
  305       -3.502134   1.000000
  306       -3.502010   1.000000
  307       -3.501917   1.000000
  308       -3.501900   1.000000
  309       -3.501773   1.000000
  310       -3.501481   1.000000
  311       -3.455795   1.000000
  312       -3.455706   1.000000
  313       -3.455598   1.000000
  314       -3.455499   1.000000
  315       -3.455367   1.000000
  316       -3.455254   1.000000
  317       -3.420142   1.000000
  318       -3.420110   1.000000
  319       -3.419968   1.000000
  320       -3.419863   1.000000
  321       -3.419744   1.000000
  322       -3.419641   1.000000
  323       -3.417093   1.000000
  324       -3.416824   1.000000
  325       -3.416616   1.000000
  326       -3.416467   1.000000
  327       -3.416447   1.000000
  328       -3.416396   1.000000
  329       -3.416349   1.000000
  330       -3.416289   1.000000
  331       -3.416204   1.000000
  332       -3.416114   1.000000
  333       -3.415989   1.000000
  334       -3.415897   1.000000
  335       -3.400179   1.000000
  336       -3.400079   1.000000
  337       -3.399970   1.000000
  338       -3.399903   1.000000
  339       -3.399750   1.000000
  340       -3.398894   1.000000
  341       -3.305382   1.000000
  342       -3.305249   1.000000
  343       -3.304896   1.000000
  344       -3.280108   1.000000
  345       -3.280037   1.000000
  346       -3.279911   1.000000
  347       -3.279824   1.000000
  348       -3.279629   1.000000
  349       -3.279583   1.000000
  350       -3.240352   1.000000
  351       -3.240274   1.000000
  352       -3.227174   1.000000
  353       -3.226812   1.000000
  354       -3.226655   1.000000
  355       -3.226442   1.000000
  356       -3.226404   1.000000
  357       -3.226341   1.000000
  358       -3.226222   1.000000
  359       -3.226192   1.000000
  360       -3.226127   1.000000
  361       -3.226092   1.000000
  362       -3.225942   1.000000
  363       -3.225432   1.000000
  364       -3.199826   1.000000
  365       -3.199749   1.000000
  366       -3.162209   1.000000
  367       -3.162020   1.000000
  368       -3.161955   1.000000
  369       -3.161801   1.000000
  370       -3.161556   1.000000
  371       -3.160771   1.000000
  372       -3.156601   1.000000
  373       -3.156402   1.000000
  374       -3.156284   1.000000
  375       -3.156188   1.000000
  376       -3.156088   1.000000
  377       -3.155561   1.000000
  378       -3.152748   1.000000
  379       -3.152698   1.000000
  380       -3.152476   1.000000
  381       -3.152402   1.000000
  382       -3.152292   1.000000
  383       -3.152250   1.000000
  384       -3.086344   1.000000
  385       -3.086196   1.000000
  386       -3.085924   1.000000
  387       -3.085866   1.000000
  388       -3.085817   1.000000
  389       -3.085778   1.000000
  390       -3.085677   1.000000
  391       -3.085640   1.000000
  392       -3.085621   1.000000
  393       -3.085537   1.000000
  394       -3.085443   1.000000
  395       -3.085077   1.000000
  396       -3.048956   1.000000
  397       -3.048926   1.000000
  398       -3.048752   1.000000
  399       -3.048694   1.000000
  400       -3.048610   1.000000
  401       -3.048548   1.000000
  402       -2.977062   1.000000
  403       -2.976938   1.000000
  404       -2.976907   1.000000
  405       -2.976751   1.000000
  406       -2.976626   1.000000
  407       -2.976480   1.000000
  408       -2.965608   1.000000
  409       -2.965210   1.000000
  410       -2.965081   1.000000
  411       -2.964949   1.000000
  412       -2.964569   1.000000
  413       -2.962007   1.000000
  414       -2.949328   1.000000
  415       -2.949225   1.000000
  416       -2.949168   1.000000
  417       -2.949093   1.000000
  418       -2.949055   1.000000
  419       -2.948680   1.000000
  420       -2.926932   1.000000
  421       -2.926505   1.000000
  422       -2.926480   1.000000
  423       -2.926346   1.000000
  424       -2.926103   1.000000
  425       -2.924351   1.000000
  426       -2.905339   1.000000
  427       -2.905110   1.000000
  428       -2.904844   1.000000
  429       -2.904765   1.000000
  430       -2.904744   1.000000
  431       -2.904692   1.000000
  432       -2.904660   1.000000
  433       -2.904502   1.000000
  434       -2.904481   1.000000
  435       -2.904414   1.000000
  436       -2.904412   1.000000
  437       -2.904317   1.000000
  438       -2.902295   1.000000
  439       -2.902188   1.000000
  440       -2.901935   1.000000
  441       -2.901817   1.000000
  442       -2.901594   1.000000
  443       -2.900509   1.000000
  444       -2.841442   1.000000
  445       -2.841213   1.000000
  446       -2.840869   1.000000
  447       -2.838369   1.000000
  448       -2.838202   1.000000
  449       -2.838182   1.000000
  450       -2.838056   1.000000
  451       -2.837795   1.000000
  452       -2.837201   1.000000
  453       -2.832108   1.000000
  454       -2.831977   1.000000
  455       -2.831949   1.000000
  456       -2.831865   1.000000
  457       -2.831777   1.000000
  458       -2.831717   1.000000
  459       -2.831625   1.000000
  460       -2.831609   1.000000
  461       -2.831570   1.000000
  462       -2.831467   1.000000
  463       -2.831362   1.000000
  464       -2.831141   1.000000
  465       -2.780255   1.000000
  466       -2.780234   1.000000
  467       -2.780110   1.000000
  468       -2.780083   1.000000
  469       -2.747638   1.000000
  470       -2.747519   1.000000
  471       -2.747356   1.000000
  472       -2.747273   1.000000
  473       -2.747154   1.000000
  474       -2.747091   1.000000
  475       -2.744524   1.000000
  476       -2.744496   1.000000
  477       -2.744351   1.000000
  478       -2.744237   1.000000
  479       -2.744082   1.000000
  480       -2.743554   1.000000
  481       -2.739524   1.000000
  482       -2.739390   1.000000
  483       -2.739305   1.000000
  484       -2.739157   1.000000
  485       -2.739077   1.000000
  486       -2.738989   1.000000
  487       -2.724419   1.000000
  488       -2.724345   1.000000
  489       -2.724303   1.000000
  490       -2.724129   1.000000
  491       -2.724096   1.000000
  492       -2.724047   1.000000
  493       -2.723986   1.000000
  494       -2.723948   1.000000
  495       -2.723898   1.000000
  496       -2.723845   1.000000
  497       -2.723734   1.000000
  498       -2.723683   1.000000
  499       -2.717374   1.000000
  500       -2.717362   1.000000
  501       -2.688108   1.000000
  502       -2.687746   1.000000
  503       -2.687715   1.000000
  504       -2.687672   1.000000
  505       -2.687374   1.000000
  506       -2.685108   1.000000
  507       -2.654139   1.000000
  508       -2.654048   1.000000
  509       -2.653918   1.000000
  510       -2.653852   1.000000
  511       -2.653777   1.000000
  512       -2.653555   1.000000
  513       -2.649648   1.000000
  514       -2.620086   1.000000
  515       -2.620074   1.000000
  516       -2.619893   1.000000
  517       -2.619844   1.000000
  518       -2.614956   1.000000
  519       -2.614125   1.000000
  520       -2.613934   1.000000
  521       -2.613781   1.000000
  522       -2.613711   1.000000
  523       -2.612140   1.000000
  524       -2.608534   1.000000
  525       -2.563095   1.000000
  526       -2.562659   1.000000
  527       -2.562320   1.000000
  528       -2.562229   1.000000
  529       -2.562187   1.000000
  530       -2.562108   1.000000
  531       -2.562064   1.000000
  532       -2.562004   1.000000
  533       -2.561915   1.000000
  534       -2.561902   1.000000
  535       -2.561805   1.000000
  536       -2.561604   1.000000
  537       -2.552186   1.000000
  538       -2.550856   1.000000
  539       -2.550520   1.000000
  540       -2.550392   1.000000
  541       -2.550104   1.000000
  542       -2.549459   1.000000
  543       -2.549415   1.000000
  544       -2.549282   1.000000
  545       -2.546221   1.000000
  546       -2.524557   1.000000
  547       -2.524498   1.000000
  548       -2.524441   1.000000
  549       -2.514016   1.000000
  550       -2.513912   1.000000
  551       -2.513838   1.000000
  552       -2.513730   1.000000
  553       -2.513447   1.000000
  554       -2.510278   1.000000
  555       -2.496735   1.000000
  556       -2.495893   1.000000
  557       -2.495597   1.000000
  558       -2.495478   1.000000
  559       -2.495003   1.000000
  560       -2.490302   1.000000
  561       -2.485123   1.000000
  562       -2.485046   1.000000
  563       -2.485028   1.000000
  564       -2.484913   1.000000
  565       -2.484872   1.000000
  566       -2.484819   1.000000
  567       -2.484744   1.000000
  568       -2.484707   1.000000
  569       -2.484625   1.000000
  570       -2.484617   1.000000
  571       -2.484512   1.000000
  572       -2.484321   1.000000
  573       -2.480783   1.000000
  574       -2.480562   1.000000
  575       -2.460162   1.000000
  576       -2.460022   1.000000
  577       -2.439211   1.000000
  578       -2.439043   1.000000
  579       -2.438954   1.000000
  580       -2.438838   1.000000
  581       -2.438776   1.000000
  582       -2.438651   1.000000
  583       -2.438540   1.000000
  584       -2.438438   1.000000
  585       -2.438358   1.000000
  586       -2.438317   1.000000
  587       -2.438151   1.000000
  588       -2.436603   1.000000
  589       -2.413926   1.000000
  590       -2.413617   1.000000
  591       -2.413583   1.000000
  592       -2.413477   1.000000
  593       -2.413329   1.000000
  594       -2.412559   1.000000
  595       -2.408034   1.000000
  596       -2.395991   1.000000
  597       -2.395944   1.000000
  598       -2.395724   1.000000
  599       -2.394304   1.000000
  600       -2.394264   1.000000
  601       -2.394214   1.000000
  602       -2.394132   1.000000
  603       -2.394034   1.000000
  604       -2.394010   1.000000
  605       -2.389842   1.000000
  606       -2.389798   1.000000
  607       -2.389719   1.000000
  608       -2.389665   1.000000
  609       -2.389491   1.000000
  610       -2.389442   1.000000
  611       -2.383999   1.000000
  612       -2.383777   1.000000
  613       -2.326045   1.000000
  614       -2.325808   1.000000
  615       -2.325768   1.000000
  616       -2.325136   1.000000
  617       -2.325099   1.000000
  618       -2.324996   1.000000
  619       -2.324170   1.000000
  620       -2.318050   1.000000
  621       -2.317886   1.000000
  622       -2.317266   1.000000
  623       -2.317142   1.000000
  624       -2.316989   1.000000
  625       -2.292406   1.000000
  626       -2.292256   1.000000
  627       -2.292085   1.000000
  628       -2.292019   1.000000
  629       -2.291929   1.000000
  630       -2.291877   1.000000
  631       -2.290792   1.000000
  632       -2.290584   1.000000
  633       -2.290361   1.000000
  634       -2.290281   1.000000
  635       -2.290181   1.000000
  636       -2.290050   1.000000
  637       -2.270693   1.000000
  638       -2.270462   1.000000
  639       -2.270406   1.000000
  640       -2.266468   1.000000
  641       -2.266412   1.000000
  642       -2.265906   1.000000
  643       -2.257386   1.000000
  644       -2.257166   1.000000
  645       -2.237006   1.000000
  646       -2.236889   1.000000
  647       -2.236267   1.000000
  648       -2.236159   1.000000
  649       -2.236055   1.000000
  650       -2.236013   1.000000
  651       -2.235981   1.000000
  652       -2.235861   1.000000
  653       -2.235768   1.000000
  654       -2.235717   1.000000
  655       -2.235655   1.000000
  656       -2.235583   1.000000
  657       -2.225331   1.000000
  658       -2.225161   1.000000
  659       -2.225007   1.000000
  660       -2.224881   1.000000
  661       -2.224650   1.000000
  662       -2.224466   1.000000
  663       -2.223036   1.000000
  664       -2.222818   1.000000
  665       -2.222658   1.000000
  666       -2.222574   1.000000
  667       -2.222418   1.000000
  668       -2.222318   1.000000
  669       -2.218773   1.000000
  670       -2.218093   1.000000
  671       -2.217318   1.000000
  672       -2.217289   1.000000
  673       -2.182548   1.000000
  674       -2.182360   1.000000
  675       -2.182317   1.000000
  676       -2.182239   1.000000
  677       -2.182029   1.000000
  678       -2.181717   1.000000
  679       -2.172587   1.000000
  680       -2.172480   1.000000
  681       -2.172352   1.000000
  682       -2.172144   1.000000
  683       -2.171996   1.000000
  684       -2.171900   1.000000
  685       -2.156296   1.000000
  686       -2.131046   1.000000
  687       -2.130365   1.000000
  688       -2.129104   1.000000
  689       -2.128781   1.000000
  690       -2.128701   1.000000
  691       -2.128674   1.000000
  692       -2.128638   1.000000
  693       -2.128444   1.000000
  694       -2.128390   1.000000
  695       -2.128323   1.000000
  696       -2.128171   1.000000
  697       -2.127728   1.000000
  698       -2.127114   1.000000
  699       -2.126936   1.000000
  700       -2.119857   1.000000
  701       -2.119788   1.000000
  702       -2.119530   1.000000
  703       -2.119394   1.000000
  704       -2.119283   1.000000
  705       -2.119253   1.000000
  706       -2.118695   1.000000
  707       -2.118479   1.000000
  708       -2.117839   1.000000
  709       -2.117694   1.000000
  710       -2.117611   1.000000
  711       -2.117486   1.000000
  712       -2.117380   1.000000
  713       -2.117277   1.000000
  714       -2.117115   1.000000
  715       -2.116830   1.000000
  716       -2.115533   1.000000
  717       -2.115524   1.000000
  718       -2.098895   1.000000
  719       -2.098798   1.000000
  720       -2.098590   1.000000
  721       -2.098487   1.000000
  722       -2.098362   1.000000
  723       -2.098212   1.000000
  724       -2.044595   1.000000
  725       -2.042933   1.000000
  726       -2.042101   1.000000
  727       -2.041935   1.000000
  728       -2.041532   1.000000
  729       -2.040278   1.000000
  730       -2.039016   1.000000
  731       -2.038598   1.000000
  732       -2.037942   1.000000
  733       -2.037905   1.000000
  734       -2.037893   1.000000
  735       -2.037852   1.000000
  736       -2.037804   1.000000
  737       -2.037730   1.000000
  738       -2.037613   1.000000
  739       -2.037450   1.000000
  740       -2.037302   1.000000
  741       -2.035908   1.000000
  742       -2.003035   1.000000
  743       -2.002829   1.000000
  744       -2.002718   1.000000
  745       -2.002708   1.000000
  746       -2.002422   1.000000
  747       -2.002389   1.000000
  748       -1.996527   1.000000
  749       -1.996451   1.000000
  750       -1.996370   1.000000
  751       -1.996165   1.000000
  752       -1.996058   1.000000
  753       -1.994840   1.000000
  754       -1.946695   1.000000
  755       -1.945925   1.000000
  756       -1.945687   1.000000
  757       -1.945653   1.000000
  758       -1.945444   1.000000
  759       -1.944753   1.000000
  760       -1.941453   1.000000
  761       -1.940257   1.000000
  762       -1.939406   1.000000
  763       -1.939205   1.000000
  764       -1.939133   1.000000
  765       -1.939121   1.000000
  766       -1.939087   1.000000
  767       -1.939024   1.000000
  768       -1.938969   1.000000
  769       -1.938891   1.000000
  770       -1.938805   1.000000
  771       -1.938677   1.000000
  772       -1.938208   1.000000
  773       -1.938189   1.000000
  774       -1.938127   1.000000
  775       -1.937954   1.000000
  776       -1.937857   1.000000
  777       -1.936561   1.000000
  778       -1.908649   1.000000
  779       -1.908399   1.000000
  780       -1.908297   1.000000
  781       -1.901193   1.000000
  782       -1.900898   1.000000
  783       -1.900857   1.000000
  784       -1.900837   1.000000
  785       -1.900558   1.000000
  786       -1.900409   1.000000
  787       -1.880663   1.000000
  788       -1.880489   1.000000
  789       -1.880210   1.000000
  790       -1.880207   1.000000
  791       -1.880123   1.000000
  792       -1.880080   1.000000
  793       -1.856946   1.000000
  794       -1.856828   1.000000
  795       -1.856704   1.000000
  796       -1.856556   1.000000
  797       -1.856450   1.000000
  798       -1.856280   1.000000
  799       -1.850301   1.000000
  800       -1.847676   1.000000
  801       -1.846310   1.000000
  802       -1.846062   1.000000
  803       -1.845407   1.000000
  804       -1.842265   1.000000
  805       -1.821553   1.000000
  806       -1.820143   1.000000
  807       -1.819216   1.000000
  808       -1.818813   1.000000
  809       -1.818705   1.000000
  810       -1.818634   1.000000
  811       -1.818565   1.000000
  812       -1.818514   1.000000
  813       -1.818345   1.000000
  814       -1.818276   1.000000
  815       -1.818159   1.000000
  816       -1.817469   1.000000
  817       -1.781204   1.000000
  818       -1.779378   1.000000
  819       -1.778545   1.000000
  820       -1.778295   1.000000
  821       -1.778171   1.000000
  822       -1.778093   1.000000
  823       -1.778021   1.000000
  824       -1.777953   1.000000
  825       -1.777861   1.000000
  826       -1.777819   1.000000
  827       -1.777730   1.000000
  828       -1.777503   1.000000
  829       -1.772440   1.000000
  830       -1.772182   1.000000
  831       -1.771921   1.000000
  832       -1.771781   1.000000
  833       -1.771702   1.000000
  834       -1.771547   1.000000
  835       -1.769466   1.000000
  836       -1.769373   1.000000
  837       -1.769353   1.000000
  838       -1.769202   1.000000
  839       -1.769197   1.000000
  840       -1.769041   1.000000
  841       -1.764076   1.000000
  842       -1.763850   1.000000
  843       -1.763781   1.000000
  844       -1.763699   1.000000
  845       -1.763438   1.000000
  846       -1.763031   1.000000
  847       -1.749666   1.000000
  848       -1.748752   1.000000
  849       -1.748617   1.000000
  850       -1.748515   1.000000
  851       -1.748002   1.000000
  852       -1.740662   1.000000
  853       -1.735751   1.000000
  854       -1.735691   1.000000
  855       -1.735104   1.000000
  856       -1.709956   1.000000
  857       -1.708176   1.000000
  858       -1.707087   1.000000
  859       -1.706936   1.000000
  860       -1.706292   1.000000
  861       -1.703887   1.000000
  862       -1.692853   1.000000
  863       -1.692465   1.000000
  864       -1.692189   1.000000
  865       -1.691135   1.000000
  866       -1.690780   1.000000
  867       -1.690651   1.000000
  868       -1.690567   1.000000
  869       -1.690315   1.000000
  870       -1.688225   1.000000
  871       -1.642908   1.000000
  872       -1.642776   1.000000
  873       -1.642180   1.000000
  874       -1.641961   1.000000
  875       -1.641907   1.000000
  876       -1.641840   1.000000
  877       -1.641647   1.000000
  878       -1.641615   1.000000
  879       -1.641540   1.000000
  880       -1.641477   1.000000
  881       -1.641448   1.000000
  882       -1.641350   1.000000
  883       -1.627739   1.000000
  884       -1.626103   1.000000
  885       -1.625734   1.000000
  886       -1.625641   1.000000
  887       -1.624325   1.000000
  888       -1.611262   1.000000
  889       -1.593514   1.000000
  890       -1.593382   1.000000
  891       -1.593167   1.000000
  892       -1.593095   1.000000
  893       -1.592944   1.000000
  894       -1.592887   1.000000
  895       -1.580541   1.000000
  896       -1.524276   1.000000
  897       -1.524021   1.000000
  898       -1.524010   1.000000
  899       -1.523726   1.000000
  900       -1.523610   1.000000
  901       -1.523528   1.000000