       N       E                     dE             d eps       ncg     rms          rms(c)
DAV:   1     0.182037756391E+05    0.18204E+05   -0.91690E+05 12216   0.112E+03
DAV:   2    -0.168435143324E+03   -0.18372E+05   -0.17385E+05 12864   0.399E+02
DAV:   3    -0.140275085063E+04   -0.12343E+04   -0.10181E+04 13956   0.103E+02
DAV:   4    -0.157053455754E+04   -0.16778E+03   -0.14867E+03 21816   0.380E+01
DAV:   5    -0.157706411691E+04   -0.65296E+01   -0.59942E+01 20136   0.710E+00    0.148E+02
DAV:   6    -0.183678429650E+04   -0.25972E+03   -0.32977E+03 13464   0.139E+02    0.243E+02
DAV:   7    -0.203119602813E+04   -0.19441E+03   -0.13063E+03 13296   0.157E+02    0.247E+02
DAV:   8    -0.377927107174E+04   -0.17481E+04   -0.60501E+02 15396   0.178E+02    0.383E+02
DAV:   9    -0.169459081238E+04    0.20847E+04   -0.63646E+02 16548   0.655E+01    0.202E+02
DAV:  10    -0.144730791675E+04    0.24728E+03   -0.45919E+02 15240   0.678E+01    0.162E+02
DAV:  11    -0.156080094176E+04   -0.11349E+03   -0.38303E+02 13248   0.845E+01    0.222E+02
DAV:  12    -0.139363520851E+04    0.16717E+03   -0.21603E+02 12888   0.441E+01    0.106E+02
DAV:  13    -0.136440200522E+04    0.29233E+02   -0.92385E+01 13440   0.450E+01    0.113E+02
DAV:  14    -0.133323034717E+04    0.31172E+02   -0.52487E+01 13008   0.312E+01    0.840E+01
DAV:  15    -0.133395580068E+04   -0.72545E+00   -0.31925E+01 13524   0.281E+01    0.942E+01
DAV:  16    -0.131987537063E+04    0.14080E+02   -0.27110E+01 13536   0.219E+01    0.662E+01
DAV:  17    -0.131989843347E+04   -0.23063E-01   -0.22130E+01 13128   0.224E+01    0.709E+01
DAV:  18    -0.131951280236E+04    0.38563E+00   -0.13153E+01 13128   0.175E+01    0.741E+01
DAV:  19    -0.131169490216E+04    0.78179E+01   -0.10015E+01 13248   0.152E+01    0.551E+01
DAV:  20    -0.130874870288E+04    0.29462E+01   -0.66127E+00 13428   0.113E+01    0.471E+01
DAV:  21    -0.130600737064E+04    0.27413E+01   -0.46741E+00 13560   0.104E+01    0.395E+01
DAV:  22    -0.130675216575E+04   -0.74480E+00   -0.40606E+00 13344   0.948E+00    0.415E+01
DAV:  23    -0.130831266893E+04   -0.15605E+01   -0.44747E+00 13296   0.103E+01    0.453E+01
DAV:  24    -0.130836073864E+04   -0.48070E-01   -0.49261E+00 13356   0.108E+01    0.461E+01
DAV:  25    -0.130544033598E+04    0.29204E+01   -0.35936E+00 13404   0.936E+00    0.353E+01
DAV:  26    -0.130327301825E+04    0.21673E+01   -0.23245E+00 13320   0.698E+00    0.241E+01
DAV:  27    -0.130292783718E+04    0.34518E+00   -0.15704E+00 13320   0.576E+00    0.228E+01
DAV:  28    -0.130384429672E+04   -0.91646E+00   -0.18312E+00 13296   0.638E+00    0.281E+01
DAV:  29    -0.130370639509E+04    0.13790E+00   -0.19714E+00 13296   0.664E+00    0.278E+01
DAV:  30    -0.130260333682E+04    0.11031E+01   -0.15537E+00 13272   0.566E+00    0.217E+01
DAV:  31    -0.130210789119E+04    0.49545E+00   -0.94307E-01 13272   0.425E+00    0.181E+01
DAV:  32    -0.130182981377E+04    0.27808E+00   -0.62211E-01 13272   0.317E+00    0.142E+01
DAV:  33    -0.130193282857E+04   -0.10301E+00   -0.53060E-01 13272   0.304E+00    0.155E+01
DAV:  34    -0.130165684949E+04    0.27598E+00   -0.53470E-01 13344   0.296E+00    0.112E+01
DAV:  35    -0.130139238066E+04    0.26447E+00   -0.21517E-01 13392   0.191E+00    0.709E+00
DAV:  36    -0.130133701897E+04    0.55362E-01   -0.71557E-02 13680   0.937E-01    0.572E+00
DAV:  37    -0.130137887527E+04   -0.41856E-01   -0.78091E-02 13368   0.110E+00    0.745E+00
DAV:  38    -0.130137371981E+04    0.51555E-02   -0.11704E-01 13632   0.142E+00    0.715E+00
DAV:  39    -0.130136625448E+04    0.74653E-02   -0.13433E-01 13536   0.157E+00    0.719E+00
DAV:  40    -0.130134371403E+04    0.22540E-01   -0.11360E-01 13560   0.128E+00    0.628E+00
DAV:  41    -0.130137391023E+04   -0.30196E-01   -0.89213E-02 13656   0.118E+00    0.725E+00
DAV:  42    -0.130134997170E+04    0.23939E-01   -0.52456E-02 13584   0.854E-01    0.693E+00
DAV:  43    -0.130131673517E+04    0.33237E-01   -0.18884E-02 13056   0.410E-01    0.602E+00
DAV:  44    -0.130130979804E+04    0.69371E-02   -0.79229E-03 13848   0.259E-01    0.577E+00
DAV:  45    -0.130131319484E+04   -0.33968E-02   -0.14897E-02 14148   0.490E-01    0.569E+00
DAV:  46    -0.130132579066E+04   -0.12596E-01   -0.32075E-02 13884   0.745E-01    0.604E+00
DAV:  47    -0.130132216772E+04    0.36229E-02   -0.24741E-02 13824   0.651E-01    0.602E+00
DAV:  48    -0.130131768295E+04    0.44848E-02   -0.18988E-02 13668   0.530E-01    0.584E+00
DAV:  49    -0.130129259665E+04    0.25086E-01   -0.14405E-02 13644   0.488E-01    0.486E+00
DAV:  50    -0.130127332661E+04    0.19270E-01   -0.62336E-03 13572   0.324E-01    0.395E+00
DAV:  51    -0.130124939438E+04    0.23932E-01   -0.36004E-02 21648   0.667E-01    0.185E+00
DAV:  52    -0.130125429360E+04   -0.48992E-02   -0.16492E-02 17664   0.529E-01    0.237E+00
DAV:  53    -0.130124781519E+04    0.64784E-02   -0.79994E-03 14364   0.382E-01    0.156E+00
DAV:  54    -0.130124747197E+04    0.34322E-03   -0.57375E-03 13872   0.323E-01    0.147E+00
DAV:  55    -0.130124494723E+04    0.25247E-02   -0.46100E-03 13680   0.285E-01    0.913E-01
DAV:  56    -0.130124399500E+04    0.95223E-03   -0.26977E-03 13644   0.228E-01    0.718E-01
DAV:  57    -0.130124530042E+04   -0.13054E-02   -0.24331E-03 13548   0.207E-01    0.799E-01
DAV:  58    -0.130124442254E+04    0.87788E-03   -0.19479E-03 13572   0.191E-01    0.499E-01
DAV:  59    -0.130124434360E+04    0.78935E-04   -0.84217E-04 13404   0.124E-01    0.402E-01
DAV:  60    -0.130124531838E+04   -0.97478E-03   -0.87736E-04 13452   0.125E-01
   1 F= -.13012453E+04 E0= -.13005496E+04  d E =-.139139E+01
