 253 253   0   0
  0.3031145E+02  0.1718057E-08  0.1718057E-08  0.3000000E-08  0.2000000E-15
  1.000000000000000E-004
  CAR 
 NiAl                                    
      5.06900649    -15.49107369  301      1.83103795      1.00000000
    -15.491  0.0000E+00  0.0000E+00
    -15.423  0.0000E+00  0.0000E+00
    -15.354  0.0000E+00  0.0000E+00
    -15.285  0.0000E+00  0.0000E+00
    -15.217  0.0000E+00  0.0000E+00
    -15.148  0.0000E+00  0.0000E+00
    -15.080  0.0000E+00  0.0000E+00
    -15.011  0.0000E+00  0.0000E+00
    -14.943  0.0000E+00  0.0000E+00
    -14.874  0.0000E+00  0.0000E+00
    -14.806  0.6582E-12  0.4511E-13
    -14.737  0.1173E-06  0.8037E-08
    -14.669  0.5522E-03  0.3785E-04
    -14.600  0.7874E-01  0.5434E-02
    -14.532  0.4749E+00  0.3798E-01
    -14.463  0.1724E+00  0.4979E-01
    -14.395  0.2993E-02  0.5000E-01
    -14.326  0.1682E-05  0.5000E-01
    -14.257  0.2563E-10  0.5000E-01
    -14.189  0.0000E+00  0.5000E-01
    -14.120  0.0000E+00  0.5000E-01
    -14.052  0.0000E+00  0.5000E-01
    -13.983  0.0000E+00  0.5000E-01
    -13.915  0.0000E+00  0.5000E-01
    -13.846  0.0000E+00  0.5000E-01
    -13.778  0.0000E+00  0.5000E-01
    -13.709  0.0000E+00  0.5000E-01
    -13.641  0.0000E+00  0.5000E-01
    -13.572  0.0000E+00  0.5000E-01
    -13.504  0.0000E+00  0.5000E-01
    -13.435  0.0000E+00  0.5000E-01
    -13.367  0.0000E+00  0.5000E-01
    -13.298  0.0000E+00  0.5000E-01
    -13.229  0.0000E+00  0.5000E-01
    -13.161  0.0000E+00  0.5000E-01
    -13.092  0.0000E+00  0.5000E-01
    -13.024  0.0000E+00  0.5000E-01
    -12.955  0.0000E+00  0.5000E-01
    -12.887  0.0000E+00  0.5000E-01
    -12.818  0.0000E+00  0.5000E-01
    -12.750  0.0000E+00  0.5000E-01
    -12.681  0.0000E+00  0.5000E-01
    -12.613  0.0000E+00  0.5000E-01
    -12.544  0.0000E+00  0.5000E-01
    -12.476  0.0000E+00  0.5000E-01
    -12.407  0.0000E+00  0.5000E-01
    -12.339  0.0000E+00  0.5000E-01
    -12.270  0.0000E+00  0.5000E-01
    -12.201  0.0000E+00  0.5000E-01
    -12.133  0.0000E+00  0.5000E-01
    -12.064  0.0000E+00  0.5000E-01
    -11.996  0.0000E+00  0.5000E-01
    -11.927  0.0000E+00  0.5000E-01
    -11.859  0.0000E+00  0.5000E-01
    -11.790  0.0000E+00  0.5000E-01
    -11.722  0.0000E+00  0.5000E-01
    -11.653  0.0000E+00  0.5000E-01
    -11.585  0.0000E+00  0.5000E-01
    -11.516  0.0000E+00  0.5000E-01
    -11.448  0.0000E+00  0.5000E-01
    -11.379  0.0000E+00  0.5000E-01
    -11.311  0.0000E+00  0.5000E-01
    -11.242  0.0000E+00  0.5000E-01
    -11.173  0.0000E+00  0.5000E-01
    -11.105  0.0000E+00  0.5000E-01
    -11.036  0.0000E+00  0.5000E-01
    -10.968  0.0000E+00  0.5000E-01
    -10.899  0.0000E+00  0.5000E-01
    -10.831  0.0000E+00  0.5000E-01
    -10.762  0.0000E+00  0.5000E-01
    -10.694  0.0000E+00  0.5000E-01
    -10.625  0.0000E+00  0.5000E-01
    -10.557  0.0000E+00  0.5000E-01
    -10.488  0.0000E+00  0.5000E-01
    -10.420  0.0000E+00  0.5000E-01
    -10.351  0.0000E+00  0.5000E-01
    -10.283  0.0000E+00  0.5000E-01
    -10.214  0.0000E+00  0.5000E-01
    -10.145  0.0000E+00  0.5000E-01
    -10.077  0.0000E+00  0.5000E-01
    -10.008  0.0000E+00  0.5000E-01
     -9.940  0.0000E+00  0.5000E-01
     -9.871  0.0000E+00  0.5000E-01
     -9.803  0.0000E+00  0.5000E-01
     -9.734  0.0000E+00  0.5000E-01
     -9.666  0.0000E+00  0.5000E-01
     -9.597  0.0000E+00  0.5000E-01
     -9.529  0.0000E+00  0.5000E-01
     -9.460  0.0000E+00  0.5000E-01
     -9.392  0.1215E-15  0.5000E-01
     -9.323  0.1320E-09  0.5000E-01
     -9.255  0.3582E-05  0.5000E-01
     -9.186  0.2711E-02  0.5019E-01
     -9.117  0.7155E-01  0.5509E-01
     -9.049  0.1019E+00  0.6208E-01
     -8.980  0.1747E+00  0.7405E-01
     -8.912  0.7196E+00  0.1234E+00
     -8.843  0.2037E+00  0.1373E+00
     -8.775  0.3515E-01  0.1397E+00
     -8.706  0.1283E+00  0.1485E+00
     -8.638  0.3942E+00  0.1755E+00
     -8.569  0.1206E+01  0.2582E+00
     -8.501  0.6389E+00  0.3020E+00
     -8.432  0.6961E+00  0.3497E+00
     -8.364  0.3581E+00  0.3742E+00
     -8.295  0.1494E+00  0.3844E+00
     -8.227  0.6241E+00  0.4272E+00
     -8.158  0.3873E+00  0.4538E+00
     -8.089  0.6557E+00  0.4987E+00
     -8.021  0.4677E+00  0.5307E+00
     -7.952  0.1471E+01  0.6316E+00
     -7.884  0.1535E+01  0.7367E+00
     -7.815  0.3553E+00  0.7611E+00
     -7.747  0.2125E-01  0.7625E+00
     -7.678  0.1757E+00  0.7746E+00
     -7.610  0.1978E+01  0.9102E+00
     -7.541  0.1617E+01  0.1021E+01
     -7.473  0.6253E+00  0.1064E+01
     -7.404  0.8066E+00  0.1119E+01
     -7.336  0.2373E+00  0.1135E+01
     -7.267  0.6626E+00  0.1181E+01
     -7.199  0.6340E+00  0.1224E+01
     -7.130  0.8301E+00  0.1281E+01
     -7.061  0.1217E+01  0.1365E+01
     -6.993  0.1108E+01  0.1441E+01
     -6.924  0.2428E+01  0.1607E+01
     -6.856  0.8514E+00  0.1665E+01
     -6.787  0.1117E+01  0.1742E+01
     -6.719  0.1136E+01  0.1820E+01
     -6.650  0.1220E+01  0.1903E+01
     -6.582  0.2184E+01  0.2053E+01
     -6.513  0.6724E+00  0.2099E+01
     -6.445  0.9375E+00  0.2163E+01
     -6.376  0.4900E+00  0.2197E+01
     -6.308  0.1380E+00  0.2206E+01
     -6.239  0.4621E+00  0.2238E+01
     -6.171  0.1171E+01  0.2318E+01
     -6.102  0.2530E+01  0.2492E+01
     -6.033  0.1887E+01  0.2621E+01
     -5.965  0.2120E+01  0.2766E+01
     -5.896  0.1412E+01  0.2863E+01
     -5.828  0.1118E+01  0.2940E+01
     -5.759  0.1168E+01  0.3020E+01
     -5.691  0.1433E+01  0.3118E+01
     -5.622  0.2298E+01  0.3275E+01
     -5.554  0.1613E+01  0.3386E+01
     -5.485  0.8135E+00  0.3442E+01
     -5.417  0.1156E+01  0.3521E+01
     -5.348  0.1290E+01  0.3609E+01
     -5.280  0.1149E+01  0.3688E+01
     -5.211  0.1048E+01  0.3760E+01
     -5.143  0.1620E+01  0.3871E+01
     -5.074  0.2150E+01  0.4018E+01
     -5.005  0.1603E+01  0.4128E+01
     -4.937  0.1546E+01  0.4234E+01
     -4.868  0.6485E+00  0.4278E+01
     -4.800  0.1545E+01  0.4384E+01
     -4.731  0.1734E+01  0.4503E+01
     -4.663  0.1966E+01  0.4638E+01
     -4.594  0.1853E+01  0.4765E+01
     -4.526  0.1302E+01  0.4854E+01
     -4.457  0.1816E+01  0.4979E+01
     -4.389  0.1202E+01  0.5061E+01
     -4.320  0.1304E+01  0.5150E+01
     -4.252  0.2211E+01  0.5302E+01
     -4.183  0.1937E+01  0.5435E+01
     -4.114  0.2968E+01  0.5638E+01
     -4.046  0.1932E+01  0.5770E+01
     -3.977  0.1742E+01  0.5890E+01
     -3.909  0.1309E+01  0.5980E+01
     -3.840  0.1640E+01  0.6092E+01
     -3.772  0.2278E+01  0.6248E+01
     -3.703  0.1449E+01  0.6347E+01
     -3.635  0.1748E+01  0.6467E+01
     -3.566  0.1128E+01  0.6544E+01
     -3.498  0.1879E+01  0.6673E+01
     -3.429  0.1277E+01  0.6761E+01
     -3.361  0.6739E+00  0.6807E+01
     -3.292  0.9684E+00  0.6873E+01
     -3.224  0.1497E+01  0.6976E+01
     -3.155  0.2175E+01  0.7125E+01
     -3.086  0.2181E+01  0.7274E+01
     -3.018  0.2799E+01  0.7466E+01
     -2.949  0.2203E+01  0.7617E+01
     -2.881  0.2475E+01  0.7787E+01
     -2.812  0.3930E+01  0.8056E+01
     -2.744  0.3786E+01  0.8316E+01
     -2.675  0.2396E+01  0.8480E+01
     -2.607  0.7085E+00  0.8528E+01
     -2.538  0.9612E+00  0.8594E+01
     -2.470  0.9048E+00  0.8656E+01
     -2.401  0.1328E+01  0.8747E+01
     -2.333  0.2166E+01  0.8896E+01
     -2.264  0.2731E+01  0.9083E+01
     -2.196  0.2179E+01  0.9232E+01
     -2.127  0.1752E+01  0.9352E+01
     -2.058  0.2279E+01  0.9509E+01
     -1.990  0.1454E+01  0.9608E+01
     -1.921  0.2307E+01  0.9766E+01
     -1.853  0.2448E+01  0.9934E+01
     -1.784  0.2587E+01  0.1011E+02
     -1.716  0.3056E+01  0.1032E+02
     -1.647  0.1175E+01  0.1040E+02
     -1.579  0.1870E+01  0.1053E+02
     -1.510  0.1878E+01  0.1066E+02
     -1.442  0.2200E+01  0.1081E+02
     -1.373  0.1778E+01  0.1093E+02
     -1.305  0.4174E+01  0.1122E+02
     -1.236  0.2979E+01  0.1142E+02
     -1.168  0.2592E+01  0.1160E+02
     -1.099  0.2269E+01  0.1175E+02
     -1.030  0.1817E+01  0.1188E+02
     -0.962  0.2157E+01  0.1203E+02
     -0.893  0.2393E+01  0.1219E+02
     -0.825  0.3364E+01  0.1242E+02
     -0.756  0.1587E+01  0.1253E+02
     -0.688  0.1959E+01  0.1266E+02
     -0.619  0.2097E+01  0.1281E+02
     -0.551  0.1240E+01  0.1289E+02
     -0.482  0.2452E+01  0.1306E+02
     -0.414  0.4069E+01  0.1334E+02
     -0.345  0.3933E+01  0.1361E+02
     -0.277  0.2368E+01  0.1377E+02
     -0.208  0.3046E+01  0.1398E+02
     -0.140  0.1623E+01  0.1409E+02
     -0.071  0.1628E+01  0.1420E+02
     -0.002  0.1481E+01  0.1430E+02
      0.066  0.2217E+01  0.1446E+02
      0.135  0.2426E+01  0.1462E+02
      0.203  0.1666E+01  0.1474E+02
      0.272  0.2636E+01  0.1492E+02
      0.340  0.2123E+01  0.1506E+02
      0.409  0.2063E+01  0.1520E+02
      0.477  0.2840E+01  0.1540E+02
      0.546  0.2758E+01  0.1559E+02
      0.614  0.1614E+01  0.1570E+02
      0.683  0.1767E+01  0.1582E+02
      0.751  0.1630E+01  0.1593E+02
      0.820  0.1960E+01  0.1607E+02
      0.888  0.1800E+01  0.1619E+02
      0.957  0.3752E+01  0.1645E+02
      1.026  0.5849E+01  0.1685E+02
      1.094  0.3315E+01  0.1707E+02
      1.163  0.2643E+01  0.1726E+02
      1.231  0.2161E+01  0.1740E+02
      1.300  0.1514E+01  0.1751E+02
      1.368  0.2474E+01  0.1768E+02
      1.437  0.2543E+01  0.1785E+02
      1.505  0.2214E+01  0.1800E+02
      1.574  0.3119E+01  0.1822E+02
      1.642  0.4367E+01  0.1852E+02
      1.711  0.4034E+01  0.1879E+02
      1.779  0.2222E+01  0.1894E+02
      1.848  0.1525E+01  0.1905E+02
      1.916  0.1847E+01  0.1918E+02
      1.985  0.3710E+01  0.1943E+02
      2.054  0.3161E+01  0.1965E+02
      2.122  0.1911E+01  0.1978E+02
      2.191  0.2094E+01  0.1992E+02
      2.259  0.2191E+01  0.2007E+02
      2.328  0.1775E+01  0.2019E+02
      2.396  0.2177E+01  0.2034E+02
      2.465  0.2593E+01  0.2052E+02
      2.533  0.2012E+01  0.2066E+02
      2.602  0.3143E+01  0.2087E+02
      2.670  0.3171E+01  0.2109E+02
      2.739  0.1930E+01  0.2122E+02
      2.807  0.2169E+01  0.2137E+02
      2.876  0.2634E+01  0.2155E+02
      2.944  0.7245E+01  0.2205E+02
      3.013  0.5838E+01  0.2245E+02
      3.082  0.2752E+01  0.2264E+02
      3.150  0.1543E+01  0.2274E+02
      3.219  0.2381E+01  0.2291E+02
      3.287  0.2654E+01  0.2309E+02
      3.356  0.3334E+01  0.2332E+02
      3.424  0.3206E+01  0.2354E+02
      3.493  0.2975E+01  0.2374E+02
      3.561  0.2619E+01  0.2392E+02
      3.630  0.2120E+01  0.2407E+02
      3.698  0.2396E+01  0.2423E+02
      3.767  0.2649E+01  0.2441E+02
      3.835  0.2269E+01  0.2457E+02
      3.904  0.2766E+01  0.2476E+02
      3.972  0.3782E+01  0.2502E+02
      4.041  0.3858E+01  0.2528E+02
      4.110  0.2426E+01  0.2545E+02
      4.178  0.7496E+00  0.2550E+02
      4.247  0.4193E-01  0.2550E+02
      4.315  0.1725E-03  0.2550E+02
      4.384  0.3096E-07  0.2550E+02
      4.452  0.1667E-12  0.2550E+02
      4.521  0.0000E+00  0.2550E+02
      4.589  0.0000E+00  0.2550E+02
      4.658  0.0000E+00  0.2550E+02
      4.726  0.0000E+00  0.2550E+02
      4.795  0.0000E+00  0.2550E+02
      4.863  0.0000E+00  0.2550E+02
      4.932  0.0000E+00  0.2550E+02
      5.000  0.0000E+00  0.2550E+02
      5.069  0.0000E+00  0.2550E+02
