         261
 Energy:  -927.01792709999995     
 X   0.00000000       0.00000000       0.00000000    
 X   0.00000000      -17.1805725       0.00000000    
 X   0.00000000      -8.59028625      -14.8788128    
 X   30.0000000       0.00000000       0.00000000    
 X   0.00000000      -25.7708588      -14.8788128    
 X   30.0000000      -17.1805725       0.00000000    
 X   30.0000000      -8.59028625      -14.8788128    
 X   30.0000000      -25.7708588      -14.8788128    
 Al   2.36204004      -11.4537201      -6.61281013    
 Al   2.36204004      -14.3171396      -11.5724096    
 Al   2.36204004      -8.59029007      -1.65320003    
 Al   2.36204004      -17.1805706      -6.61281013    
 Al   2.36204004      -20.0440006      -11.5724096    
 Al   2.36204004      -14.3171396      -1.65320003    
 Al   2.36204004      -5.72686005      -6.61281013    
 Al   2.36204004      -8.59029007      -11.5724096    
 Al   2.36204004      -2.86343002      -1.65320003    
 Al   4.71078014      -14.3171396      -8.26601028    
 Al   4.71078014      -17.1805706      -13.2256098    
 Al   4.71078014      -11.4537201      -3.30640006    
 Al   4.71078014      -20.0440006      -8.26601028    
 Al   4.71078014      -22.9074306      -13.2256098    
 Al   4.71078014      -17.1805706      -3.30640006    
 Al   4.71078014      -8.59029007      -8.26601028    
 Al   4.71078014      -11.4537201      -13.2256098    
 Al   4.71078014      -5.72686005      -3.30640006    
 Al   7.01272011      -17.1805706      -9.91921043    
 Al   7.01272011      -11.4537201       0.00000000    
 Al   7.01272011      -14.3171396      -4.95959997    
 Al   7.01272011      -5.72686005      -9.91921043    
 Al   7.01272011       0.00000000       0.00000000    
 Al   7.01272011      -2.86343002      -4.95959997    
 Al   7.01272011      -11.4537201      -9.91921043    
 Al   7.01272011      -5.72686005       0.00000000    
 Al   7.01272011      -8.59029007      -4.95959997    
 Al   9.35192013      -20.0440006      -11.5724096    
 Al   9.35192013      -14.3171396      -1.65320003    
 Al   9.35192013      -17.1805706      -6.61281013    
 Al   9.35192013      -8.59029007      -11.5724096    
 Al   9.35192013      -2.86343002      -1.65320003    
 Al   9.35192013      -5.72686005      -6.61281013    
 Al   9.35192013      -14.3171396      -11.5724096    
 Al   9.35192013      -8.59029007      -1.65320003    
 Al   9.35192013      -11.4537201      -6.61281013    
 Al   11.6911201      -22.9074306      -13.2256098    
 Al   11.6911201      -17.1805706      -3.30640006    
 Al   11.6911201      -20.0440006      -8.26601028    
 Al   11.6911201      -11.4537201      -13.2256098    
 Al   11.6911201      -5.72686005      -3.30640006    
 Al   11.6911201      -8.59029007      -8.26601028    
 Al   11.6911201      -17.1805706      -13.2256098    
 Al   11.6911201      -11.4537201      -3.30640006    
 Al   11.6911201      -14.3171396      -8.26601028    
 Al   13.9930601       0.00000000       0.00000000    
 Al   13.9930601      -2.86343002      -4.95959997    
 Al   13.9930601      -5.72686005      -9.91921043    
 Al   13.9930601      -5.72686005       0.00000000    
 Al   13.9930601      -8.59029007      -4.95959997    
 Al   13.9930601      -11.4537201      -9.91921043    
 Al   13.9930601      -11.4537201       0.00000000    
 Al   13.9930601      -14.3171396      -4.95959997    
 Al   13.9930601      -17.1805706      -9.91921043    
 Al   16.3418007      -2.86343002      -1.65320003    
 Al   16.3418007      -5.72686005      -6.61281013    
 Al   16.3418007      -8.59029007      -11.5724096    
 Al   16.3418007      -8.59029007      -1.65320003    
 Al   16.3418007      -11.4537201      -6.61281013    
 Al   16.3418007      -14.3171396      -11.5724096    
 Al   16.3418007      -14.3171396      -1.65320003    
 Al   16.3418007      -17.1805706      -6.61281013    
 Al   16.3418007      -20.0440006      -11.5724096    
 Al   2.36204004      -7.15856981      -4.13299990    
 Al   2.36204004      -10.0220003      -9.09261036    
 Al   2.36204004      -12.8854303      -14.0522099    
 Al   2.36204004      -12.8854303      -4.13299990    
 Al   2.36204004      -15.7488604      -9.09261036    
 Al   2.36204004      -18.6122894      -14.0522099    
 Al   2.36204004      -18.6122894      -4.13299990    
 Al   2.36204004      -21.4757195      -9.09261036    
 Al   2.36204004      -24.3391495      -14.0522099    
 Al   4.71078014      -10.0220003      -5.78621006    
 Al   4.71078014      -12.8854303      -10.7458096    
 Al   4.71078014      -7.15856981     -0.826600015    
 Al   4.71078014      -15.7488604      -5.78621006    
 Al   4.71078014      -18.6122894      -10.7458096    
 Al   4.71078014      -12.8854303     -0.826600015    
 Al   4.71078014      -4.29513979      -5.78621006    
 Al   4.71078014      -7.15856981      -10.7458096    
 Al   4.71078014      -1.43171000     -0.826600015    
 Al   7.01272011      -12.8854303      -7.43941021    
 Al   7.01272011      -15.7488604      -12.3990097    
 Al   7.01272011      -10.0220003      -2.47979999    
 Al   7.01272011      -18.6122894      -7.43941021    
 Al   7.01272011      -21.4757195      -12.3990097    
 Al   7.01272011      -15.7488604      -2.47979999    
 Al   7.01272011      -7.15856981      -7.43941021    
 Al   7.01272011      -10.0220003      -12.3990097    
 Al   7.01272011      -4.29513979      -2.47979999    
 Al   9.35192013      -15.7488604      -9.09261036    
 Al   9.35192013      -18.6122894      -14.0522099    
 Al   9.35192013      -12.8854303      -4.13299990    
 Al   9.35192013      -21.4757195      -9.09261036    
 Al   9.35192013      -24.3391495      -14.0522099    
 Al   9.35192013      -18.6122894      -4.13299990    
 Al   9.35192013      -10.0220003      -9.09261036    
 Al   9.35192013      -12.8854303      -14.0522099    
 Al   9.35192013      -7.15856981      -4.13299990    
 Al   11.6911201      -18.6122894      -10.7458096    
 Al   11.6911201      -12.8854303     -0.826600015    
 Al   11.6911201      -15.7488604      -5.78621006    
 Al   11.6911201      -7.15856981      -10.7458096    
 Al   11.6911201      -1.43171000     -0.826600015    
 Al   11.6911201      -4.29513979      -5.78621006    
 Al   11.6911201      -12.8854303      -10.7458096    
 Al   11.6911201      -7.15856981     -0.826600015    
 Al   11.6911201      -10.0220003      -5.78621006    
 Al   13.9930601      -21.4757195      -12.3990097    
 Al   13.9930601      -15.7488604      -2.47979999    
 Al   13.9930601      -18.6122894      -7.43941021    
 Al   13.9930601      -10.0220003      -12.3990097    
 Al   13.9930601      -4.29513979      -2.47979999    
 Al   13.9930601      -7.15856981      -7.43941021    
 Al   13.9930601      -15.7488604      -12.3990097    
 Al   13.9930601      -10.0220003      -2.47979999    
 Al   13.9930601      -12.8854303      -7.43941021    
 Al   16.3418007      -24.3391495      -14.0522099    
 Al   16.3418007      -18.6122894      -4.13299990    
 Al   16.3418007      -21.4757195      -9.09261036    
 Al   16.3418007      -12.8854303      -14.0522099    
 Al   16.3418007      -7.15856981      -4.13299990    
 Al   16.3418007      -10.0220003      -9.09261036    
 Al   16.3418007      -18.6122894      -14.0522099    
 Al   16.3418007      -12.8854303      -4.13299990    
 Al   16.3418007      -15.7488604      -9.09261036    
 Al   2.36204004      -8.59029007      -6.61281013    
 Al   2.36204004      -11.4537201      -11.5724096    
 Al   2.36204004      -5.72686005      -1.65320003    
 Al   2.36204004      -14.3171396      -6.61281013    
 Al   2.36204004      -17.1805706      -11.5724096    
 Al   2.36204004      -11.4537201      -1.65320003    
 Al   2.36204004      -20.0440006      -6.61281013    
 Al   2.36204004      -22.9074306      -11.5724096    
 Al   2.36204004      -17.1805706      -1.65320003    
 Al   4.71078014      -11.4537201      -8.26601028    
 Al   4.71078014      -14.3171396      -13.2256098    
 Al   4.71078014      -8.59029007      -3.30640006    
 Al   4.71078014      -17.1805706      -8.26601028    
 Al   4.71078014      -20.0440006      -13.2256098    
 Al   4.71078014      -14.3171396      -3.30640006    
 Al   4.71078014      -5.72686005      -8.26601028    
 Al   4.71078014      -8.59029007      -13.2256098    
 Al   4.71078014      -2.86343002      -3.30640006    
 Al   7.01272011      -14.3171396      -9.91921043    
 Al   7.01272011      -8.59029007       0.00000000    
 Al   7.01272011      -11.4537201      -4.95959997    
 Al   7.01272011      -20.0440006      -9.91921043    
 Al   7.01272011      -14.3171396       0.00000000    
 Al   7.01272011      -17.1805706      -4.95959997    
 Al   7.01272011      -8.59029007      -9.91921043    
 Al   7.01272011      -2.86343002       0.00000000    
 Al   7.01272011      -5.72686005      -4.95959997    
 Al   9.35192013      -17.1805706      -11.5724096    
 Al   9.35192013      -11.4537201      -1.65320003    
 Al   9.35192013      -14.3171396      -6.61281013    
 Al   9.35192013      -22.9074306      -11.5724096    
 Al   9.35192013      -17.1805706      -1.65320003    
 Al   9.35192013      -20.0440006      -6.61281013    
 Al   9.35192013      -11.4537201      -11.5724096    
 Al   9.35192013      -5.72686005      -1.65320003    
 Al   9.35192013      -8.59029007      -6.61281013    
 Al   11.6911201      -20.0440006      -13.2256098    
 Al   11.6911201      -14.3171396      -3.30640006    
 Al   11.6911201      -17.1805706      -8.26601028    
 Al   11.6911201      -8.59029007      -13.2256098    
 Al   11.6911201      -2.86343002      -3.30640006    
 Al   11.6911201      -5.72686005      -8.26601028    
 Al   11.6911201      -14.3171396      -13.2256098    
 Al   11.6911201      -8.59029007      -3.30640006    
 Al   11.6911201      -11.4537201      -8.26601028    
 Al   13.9930601      -14.3171396       0.00000000    
 Al   13.9930601      -17.1805706      -4.95959997    
 Al   13.9930601      -20.0440006      -9.91921043    
 Al   13.9930601      -2.86343002       0.00000000    
 Al   13.9930601      -5.72686005      -4.95959997    
 Al   13.9930601      -8.59029007      -9.91921043    
 Al   13.9930601      -8.59029007       0.00000000    
 Al   13.9930601      -11.4537201      -4.95959997    
 Al   13.9930601      -14.3171396      -9.91921043    
 Al   16.3418007      -17.1805706      -1.65320003    
 Al   16.3418007      -20.0440006      -6.61281013    
 Al   16.3418007      -22.9074306      -11.5724096    
 Al   16.3418007      -5.72686005      -1.65320003    
 Al   16.3418007      -8.59029007      -6.61281013    
 Al   16.3418007      -11.4537201      -11.5724096    
 Al   16.3418007      -11.4537201      -1.65320003    
 Al   16.3418007      -14.3171396      -6.61281013    
 Al   16.3418007      -17.1805706      -11.5724096    
 Al   2.36204004      -10.0220003      -4.13299990    
 Al   2.36204004      -12.8854303      -9.09261036    
 Al   2.36204004      -15.7488604      -14.0522099    
 Al   2.36204004      -15.7488604      -4.13299990    
 Al   2.36204004      -18.6122894      -9.09261036    
 Al   2.36204004      -21.4757195      -14.0522099    
 Al   2.36204004      -4.29513979      -4.13299990    
 Al   2.36204004      -7.15856981      -9.09261036    
 Al   2.36204004      -10.0220003      -14.0522099    
 Al   4.71078014      -12.8854303      -5.78621006    
 Al   4.71078014      -15.7488604      -10.7458096    
 Al   4.71078014      -10.0220003     -0.826600015    
 Al   4.71078014      -18.6122894      -5.78621006    
 Al   4.71078014      -21.4757195      -10.7458096    
 Al   4.71078014      -15.7488604     -0.826600015    
 Al   4.71078014      -7.15856981      -5.78621006    
 Al   4.71078014      -10.0220003      -10.7458096    
 Al   4.71078014      -4.29513979     -0.826600015    
 Al   7.01272011      -15.7488604      -7.43941021    
 Al   7.01272011      -18.6122894      -12.3990097    
 Al   7.01272011      -12.8854303      -2.47979999    
 Al   7.01272011      -4.29513979      -7.43941021    
 Al   7.01272011      -7.15856981      -12.3990097    
 Al   7.01272011      -1.43171000      -2.47979999    
 Al   7.01272011      -10.0220003      -7.43941021    
 Al   7.01272011      -12.8854303      -12.3990097    
 Al   7.01272011      -7.15856981      -2.47979999    
 Al   9.35192013      -18.6122894      -9.09261036    
 Al   9.35192013      -21.4757195      -14.0522099    
 Al   9.35192013      -15.7488604      -4.13299990    
 Al   9.35192013      -7.15856981      -9.09261036    
 Al   9.35192013      -10.0220003      -14.0522099    
 Al   9.35192013      -4.29513979      -4.13299990    
 Al   9.35192013      -12.8854303      -9.09261036    
 Al   9.35192013      -15.7488604      -14.0522099    
 Al   9.35192013      -10.0220003      -4.13299990    
 Al   11.6911201      -21.4757195      -10.7458096    
 Al   11.6911201      -15.7488604     -0.826600015    
 Al   11.6911201      -18.6122894      -5.78621006    
 Al   11.6911201      -10.0220003      -10.7458096    
 Al   11.6911201      -4.29513979     -0.826600015    
 Al   11.6911201      -7.15856981      -5.78621006    
 Al   11.6911201      -15.7488604      -10.7458096    
 Al   11.6911201      -10.0220003     -0.826600015    
 Al   11.6911201      -12.8854303      -5.78621006    
 Al   13.9930601      -7.15856981      -12.3990097    
 Al   13.9930601      -1.43171000      -2.47979999    
 Al   13.9930601      -4.29513979      -7.43941021    
 Al   13.9930601      -12.8854303      -12.3990097    
 Al   13.9930601      -7.15856981      -2.47979999    
 Al   13.9930601      -10.0220003      -7.43941021    
 Al   13.9930601      -18.6122894      -12.3990097    
 Al   13.9930601      -12.8854303      -2.47979999    
 Al   13.9930601      -15.7488604      -7.43941021    
 Al   16.3418007      -10.0220003      -14.0522099    
 Al   16.3418007      -4.29513979      -4.13299990    
 Al   16.3418007      -7.15856981      -9.09261036    
 Al   16.3418007      -15.7488604      -14.0522099    
 Al   16.3418007      -10.0220003      -4.13299990    
 Al   16.3418007      -12.8854303      -9.09261036    
 Al   16.3418007      -21.4757195      -14.0522099    
 Al   16.3418007      -15.7488604      -4.13299990    
 Al   16.3418007      -18.6122894      -9.09261036    
 N    14.6999998      -11.4537201      -8.26601028    
         261
 Energy:  -927.40023399999995     
 X   0.00000000       0.00000000       0.00000000    
 X   0.00000000      -17.1805725       0.00000000    
 X   0.00000000      -8.59028625      -14.8788128    
 X   30.0000000       0.00000000       0.00000000    
 X   0.00000000      -25.7708588      -14.8788128    
 X   30.0000000      -17.1805725       0.00000000    
 X   30.0000000      -8.59028625      -14.8788128    
 X   30.0000000      -25.7708588      -14.8788128    
 Al   2.36151004      -11.4537201      -6.61232996    
 Al   2.36228991      -14.3168402      -11.5724201    
 Al   2.36214995      -8.59022045      -1.65346003    
 Al   2.36240005      -17.1805992      -6.61296988    
 Al   2.36244011      -20.0440006      -11.5722198    
 Al   2.36214995      -14.3172102      -1.65346003    
 Al   2.36240005      -5.72683001      -6.61296988    
 Al   2.36228991      -8.59060001      -11.5724201    
 Al   2.36229992      -2.86343002      -1.65287995    
 Al   4.71041012      -14.3173199      -8.26589012    
 Al   4.71081018      -17.1808491      -13.2256098    
 Al   4.71062994      -11.4537201      -3.30644989    
 Al   4.71058989      -20.0440006      -8.26591969    
 Al   4.71081018      -22.9071598      -13.2256098    
 Al   4.71057987      -17.1808605      -3.30648994    
 Al   4.71041012      -8.59010983      -8.26589012    
 Al   4.71049976      -11.4537201      -13.2254696    
 Al   4.71057987      -5.72657013      -3.30648994    
 Al   7.01295996      -17.1807594      -9.91913033    
 Al   7.01285982      -11.4537201       1.40000004E-04
 Al   7.01260996      -14.3169298      -4.95964003    
 Al   7.01295996      -5.72666979      -9.91913033    
 Al   7.01284981      -2.39999994E-04   1.19999997E-04
 Al   7.01256990      -2.86343002      -4.95951986    
 Al   7.01377010      -11.4537201      -9.91895008    
 Al   7.01284981      -5.72661018       1.19999997E-04
 Al   7.01260996      -8.59051037      -4.95964003    
 Al   9.35167980      -20.0440006      -11.5716200    
 Al   9.35198975      -14.3169699      -1.65330005    
 Al   9.35169983      -17.1805096      -6.61281013    
 Al   9.35194969      -8.59051037      -11.5722504    
 Al   9.35223961      -2.86343002      -1.65268004    
 Al   9.35169983      -5.72692013      -6.61281013    
 Al   9.35194969      -14.3169298      -11.5722504    
 Al   9.35198975      -8.59045982      -1.65330005    
 Al   9.35251999      -11.4537201      -6.61268997    
 Al   11.6913700      -22.9073792      -13.2250299    
 Al   11.6910896      -17.1806507      -3.30660009    
 Al   11.6911097      -20.0440006      -8.26603985    
 Al   11.6911697      -11.4537201      -13.2249899    
 Al   11.6910896      -5.72678995      -3.30660009    
 Al   11.6907902      -8.59130001      -8.26626968    
 Al   11.6913700      -17.1806202      -13.2250299    
 Al   11.6910200      -11.4537201      -3.30725002    
 Al   11.6907902      -14.3161297      -8.26626968    
 Al   13.9929399      -2.80000007E-04  -1.19999997E-04
 Al   13.9932604      -2.86343002      -4.96001005    
 Al   13.9929399      -5.72700977      -9.91862011    
 Al   13.9929399      -5.72658014      -1.19999997E-04
 Al   13.9935703      -8.59014034      -4.95945978    
 Al   13.9745302      -11.4537201      -9.96432972    
 Al   13.9932203      -11.4537201       1.69999999E-04
 Al   13.9935703      -14.3172903      -4.95945978    
 Al   13.9929399      -17.1804199      -9.91862011    
 Al   16.3420601      -2.86343002      -1.65313995    
 Al   16.3418198      -5.72712994      -6.61324978    
 Al   16.3418999      -8.58938026      -11.5734596    
 Al   16.3419399      -8.59025955      -1.65335000    
 Al   16.3499603      -11.4537201      -6.61210012    
 Al   16.3418999      -14.3180504      -11.5734596    
 Al   16.3419399      -14.3171701      -1.65335000    
 Al   16.3418198      -17.1803093      -6.61324978    
 Al   16.3412399      -20.0440006      -11.5724297    
 Al   2.36240005      -7.15869999      -4.13290024    
 Al   2.36151004      -10.0215902      -9.09284973    
 Al   2.36240005      -12.8855896      -14.0521498    
 Al   2.36228991      -12.8855896      -4.13326979    
 Al   2.36228991      -15.7487097      -9.09234047    
 Al   2.36244011      -18.6121197      -14.0523100    
 Al   2.36229992      -18.6120090      -4.13317013    
 Al   2.36214995      -21.4759102      -9.09241962    
 Al   2.36214995      -24.3393993      -14.0521402    
 Al   4.71041012      -10.0218096      -5.78610992    
 Al   4.71041012      -12.8854198      -10.7460203    
 Al   4.71058989      -7.15849018     -0.826650023    
 Al   4.71049976      -15.7487297      -5.78628016    
 Al   4.71081018      -18.6124191      -10.7460499    
 Al   4.71081018      -12.8852901     -0.826370001    
 Al   4.71057987      -4.29507017      -5.78591013    
 Al   4.71062994      -7.15860987      -10.7457895    
 Al   4.71057987      -1.43192995     -0.826810002    
 Al   7.01377010      -12.8852100      -7.43953991    
 Al   7.01295996      -15.7488899      -12.3992100    
 Al   7.01295996      -10.0218401      -2.47968006    
 Al   7.01284981      -18.6120605      -7.43926001    
 Al   7.01285982      -21.4755993      -12.3990803    
 Al   7.01284981      -15.7488699      -2.48007989    
 Al   7.01260996      -7.15871000      -7.43957996    
 Al   7.01260996      -10.0219202      -12.3987999    
 Al   7.01256990      -4.29507017      -2.47985005    
 Al   9.35194969      -15.7486095      -9.09249973    
 Al   9.35167980      -18.6116009      -14.0526104    
 Al   9.35194969      -12.8853998      -4.13326979    
 Al   9.35198975      -21.4758892      -9.09270954    
 Al   9.35198975      -24.3391399      -14.0520096    
 Al   9.35223961      -18.6118298      -4.13326979    
 Al   9.35251999      -10.0219002      -9.09267044    
 Al   9.35169983      -12.8854103      -14.0521498    
 Al   9.35169983      -7.15860987      -4.13304996    
 Al   11.6913700      -18.6118107      -10.7461395    
 Al   11.6913700      -12.8849096     -0.826849997    
 Al   11.6911697      -15.7483196      -5.78652000    
 Al   11.6910200      -7.15929985      -10.7453899    
 Al   11.6910896      -1.43192005     -0.826569974    
 Al   11.6910896      -4.29527998      -5.78604984    
 Al   11.6907902      -12.8851500      -10.7447996    
 Al   11.6911097      -7.15859985     -0.826579988    
 Al   11.6907902      -10.0227404      -5.78695011    
 Al   13.9932203      -21.4755707      -12.3991003    
 Al   13.9929399      -15.7491102      -2.47997999    
 Al   13.9929399      -18.6122494      -7.43909979    
 Al   13.9935703      -10.0219498      -12.3992100    
 Al   13.9932604      -4.29548979      -2.47959995    
 Al   13.9935703      -7.15837002      -7.43935013    
 Al   13.9929399      -15.7482796      -12.3991699    
 Al   13.9929399      -10.0215702      -2.48023009    
 Al   13.9745302      -12.9245100      -7.41685009    
 Al   16.3419399      -24.3392906      -14.0521603    
 Al   16.3420601      -18.6122398      -4.13302994    
 Al   16.3419399      -21.4758301      -9.09251022    
 Al   16.3418198      -12.8856802      -14.0517597    
 Al   16.3418198      -7.15909004      -4.13300991    
 Al   16.3499603      -10.0213900      -9.09296036    
 Al   16.3412399      -18.6123009      -14.0522003    
 Al   16.3418999      -12.8858805      -4.13170004    
 Al   16.3418999      -15.7502203      -9.09286976    
 Al   2.36209989      -8.59004021      -6.61265993    
 Al   2.36209989      -11.4537201      -11.5726900    
 Al   2.36210990      -5.72684002      -1.65321004    
 Al   2.36209989      -14.3173904      -6.61265993    
 Al   2.36207008      -17.1804905      -11.5723600    
 Al   2.36207008      -11.4537201      -1.65330005    
 Al   2.36210990      -20.0440006      -6.61279011    
 Al   2.36207008      -22.9075108      -11.5723600    
 Al   2.36210990      -17.1805897      -1.65321004    
 Al   4.71120977      -11.4537201      -8.26601028    
 Al   4.71082020      -14.3168402      -13.2254295    
 Al   4.71082020      -8.59029961      -3.30676007    
 Al   4.71082020      -17.1802597      -8.26583958    
 Al   4.71105003      -20.0440006      -13.2256098    
 Al   4.71082020      -14.3171396      -3.30676007    
 Al   4.71082020      -5.72716999      -8.26583958    
 Al   4.71082020      -8.59058952      -13.2254295    
 Al   4.71052980      -2.86343002      -3.30640006    
 Al   7.01296997      -14.3167696      -9.91899967    
 Al   7.01256990      -8.59062004       1.99999995E-04
 Al   7.01296997      -11.4537201      -4.96003008    
 Al   7.01256990      -20.0440006      -9.91959953    
 Al   7.01256990      -14.3168097       1.99999995E-04
 Al   7.01272011      -17.1807594      -4.95949984    
 Al   7.01296997      -8.59066010      -9.91899967    
 Al   7.01272011      -2.86343002      -2.20000002E-04
 Al   7.01272011      -5.72666979      -4.95949984    
 Al   9.35196018      -17.1807499      -11.5725098    
 Al   9.35196018      -11.4537201      -1.65300000    
 Al   9.35237026      -14.3166103      -6.61311007    
 Al   9.35196018      -22.9072609      -11.5725098    
 Al   9.35149956      -17.1807194      -1.65328002    
 Al   9.35149956      -20.0440006      -6.61263990    
 Al   9.35237026      -11.4537201      -11.5717897    
 Al   9.35149956      -5.72670984      -1.65328002    
 Al   9.35237026      -8.59082031      -6.61311007    
 Al   11.6905899      -20.0440006      -13.2256098    
 Al   11.6909504      -14.3168497      -3.30654001    
 Al   11.6909504      -17.1803093      -8.26618958    
 Al   11.6909504      -8.59025955      -13.2252903    
 Al   11.6905298      -2.86343002      -3.30640006    
 Al   11.6909504      -5.72711992      -8.26618958    
 Al   11.6909504      -14.3171701      -13.2252903    
 Al   11.6909504      -8.59057999      -3.30654001    
 Al   11.6746597      -11.4537201      -8.26601028    
 Al   13.9932299      -14.3166904       2.60000001E-04
 Al   13.9930000      -17.1805897      -4.95958996    
 Al   13.9932299      -20.0440006      -9.91973019    
 Al   13.9930000      -2.86343002      -1.99999995E-05
 Al   13.9930000      -5.72684002      -4.95958996    
 Al   13.9930096      -8.58687973      -9.92117023    
 Al   13.9932299      -8.59074020       2.60000001E-04
 Al   13.9930096      -11.4537201      -4.95567989    
 Al   13.9930096      -14.3205500      -9.92117023    
 Al   16.3414307      -17.1806507      -1.65324998    
 Al   16.3414307      -20.0440006      -6.61272001    
 Al   16.3415604      -22.9059200      -11.5732803    
 Al   16.3414307      -5.72677994      -1.65324998    
 Al   16.3405304      -8.59119987      -6.61332989    
 Al   16.3405304      -11.4537201      -11.5713596    
 Al   16.3415604      -11.4537201      -1.65146005    
 Al   16.3405304      -14.3162403      -6.61332989    
 Al   16.3415604      -17.1820793      -11.5732803    
 Al   2.36228991      -10.0218401      -4.13326979    
 Al   2.36151004      -12.8858404      -9.09284973    
 Al   2.36214995      -15.7486000      -14.0521402    
 Al   2.36240005      -15.7487297      -4.13290024    
 Al   2.36214995      -18.6121006      -9.09241962    
 Al   2.36244011      -21.4758797      -14.0523100    
 Al   2.36229992      -4.29542017      -4.13317013    
 Al   2.36228991      -7.15872002      -9.09234047    
 Al   2.36240005      -10.0218401      -14.0521498    
 Al   4.71041012      -12.8856201      -5.78610992    
 Al   4.71062994      -15.7488203      -10.7457895    
 Al   4.71081018      -10.0221395     -0.826370001    
 Al   4.71057987      -18.6123600      -5.78591013    
 Al   4.71081018      -21.4755802      -10.7460499    
 Al   4.71058989      -15.7489405     -0.826650023    
 Al   4.71049976      -7.15869999      -5.78628016    
 Al   4.71041012      -10.0220203      -10.7460203    
 Al   4.71057987      -4.29491997     -0.826810002    
 Al   7.01260996      -15.7487202      -7.43957996    
 Al   7.01285982      -18.6124096      -12.3990803    
 Al   7.01295996      -12.8855896      -2.47968006    
 Al   7.01284981      -4.29537010      -7.43926001    
 Al   7.01295996      -7.15853977      -12.3992100    
 Al   7.01256990      -1.43178999      -2.47985005    
 Al   7.01377010      -10.0222301      -7.43953991    
 Al   7.01260996      -12.8855104      -12.3987999    
 Al   7.01284981      -7.15855980      -2.48007989    
 Al   9.35198975      -18.6121197      -9.09270954    
 Al   9.35167980      -21.4764004      -14.0526104    
 Al   9.35169983      -15.7488203      -4.13304996    
 Al   9.35194969      -7.15882015      -9.09249973    
 Al   9.35169983      -10.0220299      -14.0521498    
 Al   9.35223961      -4.29559994      -4.13326979    
 Al   9.35251999      -12.8855305      -9.09267044    
 Al   9.35198975      -15.7488604      -14.0520096    
 Al   9.35194969      -10.0220299      -4.13326979    
 Al   11.6913700      -21.4761906      -10.7461395    
 Al   11.6911097      -15.7488298     -0.826579988    
 Al   11.6910896      -18.6121597      -5.78604984    
 Al   11.6907902      -10.0222797      -10.7447996    
 Al   11.6910896      -4.29493999     -0.826569974    
 Al   11.6911697      -7.15911007      -5.78652000    
 Al   11.6910200      -15.7481298      -10.7453899    
 Al   11.6913700      -10.0225201     -0.826849997    
 Al   11.6907902      -12.8846903      -5.78695011    
 Al   13.9929399      -7.15916014      -12.3991699    
 Al   13.9932604      -1.43137002      -2.47959995    
 Al   13.9929399      -4.29517984      -7.43909979    
 Al   13.9935703      -12.8854799      -12.3992100    
 Al   13.9929399      -7.15831995      -2.47997999    
 Al   13.9745302      -9.98291969      -7.41685009    
 Al   13.9932203      -18.6124306      -12.3991003    
 Al   13.9929399      -12.8858604      -2.48023009    
 Al   13.9935703      -15.7490597      -7.43935013    
 Al   16.3418198      -10.0217505      -14.0517597    
 Al   16.3420601      -4.29518986      -4.13302994    
 Al   16.3418999      -7.15721989      -9.09286976    
 Al   16.3419399      -15.7487202      -14.0521603    
 Al   16.3418999      -10.0215502      -4.13170004    
 Al   16.3499603      -12.8860502      -9.09296036    
 Al   16.3412399      -21.4757004      -14.0522003    
 Al   16.3418198      -15.7483397      -4.13300991    
 Al   16.3419399      -18.6121693      -9.09251022    
 N    14.7453899      -11.4537201      -8.26601028    
         261
 Energy:  -927.58375200000000     
 X   0.00000000       0.00000000       0.00000000    
 X   0.00000000      -17.1805725       0.00000000    
 X   0.00000000      -8.59028625      -14.8788128    
 X   30.0000000       0.00000000       0.00000000    
 X   0.00000000      -25.7708588      -14.8788128    
 X   30.0000000      -17.1805725       0.00000000    
 X   30.0000000      -8.59028625      -14.8788128    
 X   30.0000000      -25.7708588      -14.8788128    
 Al   2.36051011      -11.4537201      -6.61144018    
 Al   2.36276007      -14.3162603      -11.5724297    
 Al   2.36234999      -8.59010029      -1.65393996    
 Al   2.36307001      -17.1806602      -6.61327982    
 Al   2.36318994      -20.0440006      -11.5718603    
 Al   2.36234999      -14.3173304      -1.65393996    
 Al   2.36307001      -5.72676992      -6.61327982    
 Al   2.36276007      -8.59117031      -11.5724297    
 Al   2.36279988      -2.86343002      -1.65226996    
 Al   4.70972013      -14.3176403      -8.26566982    
 Al   4.71086979      -17.1813602      -13.2256098    
 Al   4.71036005      -11.4537201      -3.30651999    
 Al   4.71025991      -20.0440006      -8.26574993    