         261
 Energy:  -927.73110220000001     
 X   0.00000000       0.00000000       0.00000000    
 X   0.00000000      -17.1805725       0.00000000    
 X   0.00000000      -8.59028625      -14.8788128    
 X   30.0000000       0.00000000       0.00000000    
 X   0.00000000      -25.7708588      -14.8788128    
 X   30.0000000      -17.1805725       0.00000000    
 X   30.0000000      -8.59028625      -14.8788128    
 X   30.0000000      -25.7708588      -14.8788128    
 Al   2.33972001      -11.4537201      -6.61113977    
 Al   2.36173010      -14.3162003      -11.5741901    
 Al   2.36320996      -8.58883953      -1.65533996    
 Al   2.36420012      -17.1829395      -6.61189985    
 Al   2.36932993      -20.0440006      -11.5707998    
 Al   2.36320996      -14.3185902      -1.65533996    
 Al   2.36420012      -5.72449017      -6.61189985    
 Al   2.36173010      -8.59123993      -11.5741901    
 Al   2.36199999      -2.86343002      -1.64965999    
 Al   4.70157003      -14.3130102      -8.26465034    
 Al   4.71120977      -17.1822300      -13.2258396    
 Al   4.70579004      -11.4537201      -3.30704999    
 Al   4.70794010      -20.0440006      -8.26519966    
 Al   4.71120977      -22.9057693      -13.2258396    
 Al   4.70683002      -17.1828995      -3.30661011    
 Al   4.70157003      -8.59442997      -8.26465034    
 Al   4.70423985      -11.4537201      -13.2236099    
 Al   4.70683002      -5.72453022      -3.30661011    
 Al   7.01047993      -17.1816406      -9.91802025    
 Al   7.01639986      -11.4537201       2.36999989E-03
 Al   7.00473022      -14.3134203      -4.96282005    
 Al   7.01047993      -5.72579002      -9.91802025    
 Al   7.01216984      -2.98000011E-03   3.18000000E-03
 Al   7.00936985      -2.86343002      -4.95764017    
 Al   7.01216984      -11.4537201      -9.90983009    
 Al   7.01216984      -5.72387981       3.18000000E-03
 Al   7.00473022      -8.59401989      -4.96282005    
 Al   9.34445000      -20.0440006      -11.5630903    
 Al   9.35099030      -14.3180704      -1.65638995    
 Al   9.34537983      -17.1763000      -6.61119986    
 Al   9.34368038      -8.59255028      -11.5693302    
 Al   9.35186958      -2.86343002      -1.65061998    
 Al   9.34537983      -5.73113012      -6.61119986    
 Al   9.34368038      -14.3148899      -11.5693302    
 Al   9.35099030      -8.58936024      -1.65638995    
 Al   9.34208965      -11.4537201      -6.61277008    
 Al   11.6860905      -22.9089794      -13.2198296    
 Al   11.6910200      -17.1816406      -3.30872989    
 Al   11.6889496      -20.0440006      -8.26346970    
 Al   11.6955404      -11.4537201      -13.2156897    
 Al   11.6910200      -5.72579002      -3.30872989    
 Al   11.6752596      -8.59537983      -8.27003002    
 Al   11.6860905      -17.1790295      -13.2198296    
 Al   11.6890097      -11.4537201      -3.31974006    
 Al   11.6752596      -14.3120499      -8.27003002    
 Al   13.9893999      -1.79999997E-03  -4.61999979E-03
 Al   14.0044003      -2.86343002      -4.95846987    
 Al   13.9850798      -5.72051001      -9.91646957    
 Al   13.9893999      -5.72505999      -4.61999979E-03
 Al   14.0020704      -8.58815002      -4.95520020    
 Al   13.9744101      -11.4537201      -9.95975971    
 Al   13.9787302      -11.4537201       3.98000004E-03
 Al   14.0020704      -14.3192797      -4.95520020    
 Al   13.9850798      -17.1869202      -9.91646957    
 Al   16.3581791      -2.86343002      -1.64866996    
 Al   16.3451900      -5.73636007      -6.62732983    
 Al   16.3324909      -8.57336998      -11.5744801    
 Al   16.3370209      -8.58957958      -1.64476001    
 Al   16.5313091      -11.4537201      -6.63887978    
 Al   16.3324909      -14.3340702      -11.5744801    
 Al   16.3370209      -14.3178501      -1.64476001    
 Al   16.3451900      -17.1710701      -6.62732983    
 Al   16.3234806      -20.0440006      -11.5749998    
 Al   2.36420012      -7.15661001      -4.13141012    
 Al   2.33972001      -10.0205603      -9.09344006    
 Al   2.36420012      -12.8858299      -14.0547104    
 Al   2.36173010      -12.8874502      -4.13292980    
 Al   2.36173010      -15.7499304      -9.09090042    
 Al   2.36932993      -18.6108894      -14.0530195    
 Al   2.36199999      -18.6092205      -4.13477993    
 Al   2.36320996      -21.4768505      -9.09029007    
 Al   2.36320996      -24.3417206      -14.0523996    
 Al   4.70157003      -10.0228996      -5.79047012    
 Al   4.70157003      -12.8821898      -10.7428999    
 Al   4.70794010      -7.15787983     -0.827000022    
 Al   4.70423985      -15.7471304      -5.78720999    
 Al   4.71120977      -18.6133194      -10.7471304    
 Al   4.71120977      -12.8848000     -0.825049996    
 Al   4.70683002      -4.29415989      -5.78409004    
 Al   4.70579004      -7.15913010      -10.7454901    
 Al   4.70683002      -1.43306005     -0.828509986    
 Al   7.01216984      -12.8773003      -7.44409990    
 Al   7.01047993      -15.7483702      -12.4005299    
 Al   7.01047993      -10.0204401      -2.47947001    
 Al   7.01216984      -18.6080399      -7.43841982    
 Al   7.01639986      -21.4736595      -12.4001999    
 Al   7.01216984      -15.7475901      -2.48396993    
 Al   7.00473022      -7.16321993      -7.44103003    
 Al   7.00473022      -10.0229197      -12.3941803    
 Al   7.00936985      -4.29344988      -2.48077989    
 Al   9.34368038      -15.7450600      -9.09218979    
 Al   9.34445000      -18.6042099      -14.0568705    
 Al   9.34368038      -12.8838902      -4.13649988    
 Al   9.35099030      -21.4780102      -9.09022045    
 Al   9.35099030      -24.3423691      -14.0514202    
 Al   9.35186958      -18.6100502      -4.13429022    
 Al   9.34208965      -10.0219698      -9.09263039    
 Al   9.34537983      -12.8818998      -14.0493097    
 Al   9.34537983      -7.15931988      -4.13750982    
 Al   11.6860905      -18.6065006      -10.7473602    
 Al   11.6860905      -12.8811903     -0.830829978    
 Al   11.6955404      -15.7402697      -5.79117012    
 Al   11.6890097      -7.17011976      -10.7391396    
 Al   11.6910200      -1.43426001     -0.826359987    
 Al   11.6910200      -4.29661989      -5.78412008    
 Al   11.6752596      -12.8863697      -10.7393799    
 Al   11.6889496      -7.15637016     -0.827870011    
 Al   11.6752596      -10.0280399      -5.78860998    
 Al   13.9787302      -21.4722691      -12.4010000    
 Al   13.9893999      -15.7537603      -2.47904992    
 Al   13.9893999      -18.6153908      -7.43554020    
 Al   14.0020704      -10.0192499      -12.4030600    
 Al   14.0044003      -4.29415989      -2.48037004    
 Al   14.0020704      -7.15368986      -7.43976021    
 Al   13.9850798      -15.7496595      -12.4058800    
 Al   13.9850798      -10.0164604      -2.47568011    
 Al   13.9744101      -12.9205503      -7.41912985    
 Al   16.3370209      -24.3321800      -14.0570402    
 Al   16.3581791      -18.6083603      -4.13527012    
 Al   16.3370209      -21.4680500      -9.09622002    
 Al   16.3451900      -12.8932600      -14.0367203    
 Al   16.3451900      -7.17589998      -4.13396978    
 Al   16.5313091      -10.0445805      -9.07956982    
 Al   16.3234806      -18.6145306      -14.0509195    
 Al   16.3324909      -12.8787603      -4.11732006    
 Al   16.3324909      -15.7591105      -9.10622978    
 Al   2.35062003      -8.58347034      -6.60887003    
 Al   2.35062003      -11.4537201      -11.5802803    
 Al   2.35912991      -5.72551012      -1.65398002    
 Al   2.35062003      -14.3239603      -6.60887003    
 Al   2.35880995      -17.1776409      -11.5707102    
 Al   2.35880995      -11.4537201      -1.65658998    
 Al   2.35912991      -20.0440006      -6.61124992    
 Al   2.35880995      -22.9103699      -11.5707102    
 Al   2.35912991      -17.1819191      -1.65398002    
 Al   4.69195986      -11.4537201      -8.26601028    
 Al   4.71057987      -14.3153400      -13.2236204    
 Al   4.71057987      -8.59111023      -3.30895996    
 Al   4.71057987      -17.1779404      -8.26543999    
 Al   4.72100019      -20.0440006      -13.2256098    
 Al   4.71057987      -14.3163204      -3.30895996    
 Al   4.71057987      -5.72948980      -8.26543999    
 Al   4.71057987      -8.59210014      -13.2236204    
 Al   4.70558023      -2.86343002      -3.30640006    
 Al   7.00453997      -14.3122301      -9.91637039    
 Al   7.00949001      -8.58946991      -4.69999999E-04
 Al   7.00453997      -11.4537201      -4.96528006    
 Al   7.00949001      -20.0440006      -9.91827011    
 Al   7.00949001      -14.3179598      -4.69999999E-04
 Al   7.00957012      -17.1801205      -4.95985985    
 Al   7.00453997      -8.59519958      -9.91637039    
 Al   7.00957012      -2.86343002       5.20000001E-04
 Al   7.00957012      -5.72731018      -4.95985985    
 Al   9.34739971      -17.1770401      -11.5703697    
 Al   9.34739971      -11.4537201      -1.65727997    
 Al   9.34430981      -14.3125896      -6.61543989    
 Al   9.34739971      -22.9109707      -11.5703697    
 Al   9.34502029      -17.1829395      -1.65456998    
 Al   9.34502029      -20.0440006      -6.61007023    
 Al   9.34430981      -11.4537201      -11.5671501    
 Al   9.34502029      -5.72449017      -1.65456998    
 Al   9.34430981      -8.59484005      -6.61543989    
 Al   11.6679296      -20.0440006      -13.2256098    
 Al   11.6849699      -14.3154497      -3.31397009    
 Al   11.6849699      -17.1731701      -8.26369953    
 Al   11.6849699      -8.59599018      -13.2203598    
 Al   11.6891403      -2.86343002      -3.30640006    
 Al   11.6849699      -5.73426008      -8.26369953    
 Al   11.6849699      -14.3114405      -13.2203598    
 Al   11.6849699      -8.59199047      -3.31397009    
 Al   11.6236496      -11.4537201      -8.26601028    
 Al   13.9837799      -14.3128500       2.48000002E-03
 Al   14.0014896      -17.1804905      -4.95965004    
 Al   13.9837799      -20.0440006      -9.92416954    
 Al   14.0014896      -2.86343002       9.99999975E-05
 Al   14.0014896      -5.72694016      -4.95965004    
 Al   14.0002899      -8.57361984      -9.92883015    
 Al   13.9837799      -8.59457970       2.48000002E-03
 Al   14.0002899      -11.4537201      -4.94035006    
 Al   14.0002899      -14.3338203      -9.92883015    
 Al   16.3480492      -17.1809807      -1.65344000    
 Al   16.3480492      -20.0440006      -6.61232996    
 Al   16.3251896      -22.8877106      -11.5838003    
 Al   16.3480492      -5.72644997      -1.65344000    
 Al   16.3518505      -8.58561039      -6.61009979    
 Al   16.3518505      -11.4537201      -11.5778103    
 Al   16.3251896      -11.4537201      -1.63042998    
 Al   16.3518505      -14.3218203      -6.61009979    
 Al   16.3251896      -17.2003002      -11.5838003    
 Al   2.36173010      -10.0199804      -4.13292980    
 Al   2.33972001      -12.8868799      -9.09344006    
 Al   2.36320996      -15.7462797      -14.0523996    
 Al   2.36420012      -15.7508297      -4.13141012    
 Al   2.36320996      -18.6111603      -9.09029007    
 Al   2.36932993      -21.4771099      -14.0530195    
 Al   2.36199999      -4.29821014      -4.13477993    
 Al   2.36173010      -7.15749979      -9.09090042    
 Al   2.36420012      -10.0215998      -14.0547104    
 Al   4.70157003      -12.8845301      -5.79047012    
 Al   4.70579004      -15.7482996      -10.7454901    
 Al   4.71120977      -10.0226297     -0.825049996    
 Al   4.70683002      -18.6132698      -5.78409004    
 Al   4.71120977      -21.4746799      -10.7471304    
 Al   4.70794010      -15.7495499     -0.827000022    
 Al   4.70423985      -7.16030979      -5.78720999    
 Al   4.70157003      -10.0252399      -10.7428999    
 Al   4.70683002      -4.29379988     -0.828509986    
 Al   7.00473022      -15.7442102      -7.44103003    
 Al   7.01639986      -18.6143398      -12.4001999    
 Al   7.01047993      -12.8869896      -2.47947001    
 Al   7.01216984      -4.29938984      -7.43841982    
 Al   7.01047993      -7.15906000      -12.4005299    
 Al   7.00936985      -1.43341005      -2.48077989    
 Al   7.01216984      -10.0301304      -7.44409990    
 Al   7.00473022      -12.8845100      -12.3941803    
 Al   7.01216984      -7.15984011      -2.48396993    
 Al   9.35099030      -18.6099892      -9.09022045    
 Al   9.34445000      -21.4837894      -14.0568705    
 Al   9.34537983      -15.7481098      -4.13750982    
 Al   9.34368038      -7.16237020      -9.09218979    
 Al   9.34537983      -10.0255299      -14.0493097    
 Al   9.35186958      -4.29737997      -4.13429022    
 Al   9.34208965      -12.8854599      -9.09263039    
 Al   9.35099030      -15.7456398      -14.0514202    
 Al   9.34368038      -10.0235395      -4.13649988    
 Al   11.6860905      -21.4815006      -10.7473602    
 Al   11.6889496      -15.7510595     -0.827870011    
 Al   11.6910200      -18.6108093      -5.78412008    
 Al   11.6752596      -10.0210600      -10.7393799    
 Al   11.6910200      -4.29260015     -0.826359987    
 Al   11.6955404      -7.16716003      -5.79117012    
 Al   11.6890097      -15.7373104      -10.7391396    
 Al   11.6860905      -10.0262403     -0.830829978    
 Al   11.6752596      -12.8793898      -5.78860998    
 Al   13.9850798      -7.15777016      -12.4058800    
 Al   14.0044003      -1.43270004      -2.48037004    
 Al   13.9893999      -4.29203987      -7.43554020    
 Al   14.0020704      -12.8881798      -12.4030600    
 Al   13.9893999      -7.15366983      -2.47904992    
 Al   13.9744101      -9.98688030      -7.41912985    
 Al   13.9787302      -18.6157398      -12.4010000    
 Al   13.9850798      -12.8909798      -2.47568011    
 Al   14.0020704      -15.7537403      -7.43976021    
 Al   16.3451900      -10.0141697      -14.0367203    
 Al   16.3581791      -4.29906988      -4.13527012    
 Al   16.3324909      -7.14832020      -9.10622978    
 Al   16.3370209      -15.7558203      -14.0570402    
 Al   16.3324909      -10.0286703      -4.11732006    
 Al   16.5313091      -12.8628502      -9.07956982    
 Al   16.3234806      -21.4734802      -14.0509195    
 Al   16.3451900      -15.7315302      -4.13396978    
 Al   16.3370209      -18.6199493      -9.09622002    
 N    15.0455599      -11.4537201      -8.26601028    
