         261
 Energy:  -927.017927100000     
 X  0.0000000E+00  0.0000000E+00  0.0000000E+00
 X  0.0000000E+00  -17.18057      0.0000000E+00
 X  0.0000000E+00  -8.590286      -14.87881    
 X   30.00000      0.0000000E+00  0.0000000E+00
 X  0.0000000E+00  -25.77086      -14.87881    
 X   30.00000      -17.18057      0.0000000E+00
 X   30.00000      -8.590286      -14.87881    
 X   30.00000      -25.77086      -14.87881    
 Al   2.362040      -11.45372      -6.612810    
 Al   2.362040      -14.31714      -11.57241    
 Al   2.362040      -8.590290      -1.653200    
 Al   2.362040      -17.18057      -6.612810    
 Al   2.362040      -20.04400      -11.57241    
 Al   2.362040      -14.31714      -1.653200    
 Al   2.362040      -5.726860      -6.612810    
 Al   2.362040      -8.590290      -11.57241    
 Al   2.362040      -2.863430      -1.653200    
 Al   4.710780      -14.31714      -8.266010    
 Al   4.710780      -17.18057      -13.22561    
 Al   4.710780      -11.45372      -3.306400    
 Al   4.710780      -20.04400      -8.266010    
 Al   4.710780      -22.90743      -13.22561    
 Al   4.710780      -17.18057      -3.306400    
 Al   4.710780      -8.590290      -8.266010    
 Al   4.710780      -11.45372      -13.22561    
 Al   4.710780      -5.726860      -3.306400    
 Al   7.012720      -17.18057      -9.919210    
 Al   7.012720      -11.45372      0.0000000E+00
 Al   7.012720      -14.31714      -4.959600    
 Al   7.012720      -5.726860      -9.919210    
 Al   7.012720      0.0000000E+00  0.0000000E+00
 Al   7.012720      -2.863430      -4.959600    
 Al   7.012720      -11.45372      -9.919210    
 Al   7.012720      -5.726860      0.0000000E+00
 Al   7.012720      -8.590290      -4.959600    
 Al   9.351920      -20.04400      -11.57241    
 Al   9.351920      -14.31714      -1.653200    
 Al   9.351920      -17.18057      -6.612810    
 Al   9.351920      -8.590290      -11.57241    
 Al   9.351920      -2.863430      -1.653200    
 Al   9.351920      -5.726860      -6.612810    
 Al   9.351920      -14.31714      -11.57241    
 Al   9.351920      -8.590290      -1.653200    
 Al   9.351920      -11.45372      -6.612810    
 Al   11.69112      -22.90743      -13.22561    
 Al   11.69112      -17.18057      -3.306400    
 Al   11.69112      -20.04400      -8.266010    
 Al   11.69112      -11.45372      -13.22561    
 Al   11.69112      -5.726860      -3.306400    
 Al   11.69112      -8.590290      -8.266010    
 Al   11.69112      -17.18057      -13.22561    
 Al   11.69112      -11.45372      -3.306400    
 Al   11.69112      -14.31714      -8.266010    
 Al   13.99306      0.0000000E+00  0.0000000E+00
 Al   13.99306      -2.863430      -4.959600    
 Al   13.99306      -5.726860      -9.919210    
 Al   13.99306      -5.726860      0.0000000E+00
 Al   13.99306      -8.590290      -4.959600    
 Al   13.99306      -11.45372      -9.919210    
 Al   13.99306      -11.45372      0.0000000E+00
 Al   13.99306      -14.31714      -4.959600    
 Al   13.99306      -17.18057      -9.919210    
 Al   16.34180      -2.863430      -1.653200    
 Al   16.34180      -5.726860      -6.612810    
 Al   16.34180      -8.590290      -11.57241    
 Al   16.34180      -8.590290      -1.653200    
 Al   16.34180      -11.45372      -6.612810    
 Al   16.34180      -14.31714      -11.57241    
 Al   16.34180      -14.31714      -1.653200    
 Al   16.34180      -17.18057      -6.612810    
 Al   16.34180      -20.04400      -11.57241    
 Al   2.362040      -7.158570      -4.133000    
 Al   2.362040      -10.02200      -9.092610    
 Al   2.362040      -12.88543      -14.05221    
 Al   2.362040      -12.88543      -4.133000    
 Al   2.362040      -15.74886      -9.092610    
 Al   2.362040      -18.61229      -14.05221    
 Al   2.362040      -18.61229      -4.133000    
 Al   2.362040      -21.47572      -9.092610    
 Al   2.362040      -24.33915      -14.05221    
 Al   4.710780      -10.02200      -5.786210    
 Al   4.710780      -12.88543      -10.74581    
 Al   4.710780      -7.158570     -0.8266000    
 Al   4.710780      -15.74886      -5.786210    
 Al   4.710780      -18.61229      -10.74581    
 Al   4.710780      -12.88543     -0.8266000    
 Al   4.710780      -4.295140      -5.786210    
 Al   4.710780      -7.158570      -10.74581    
 Al   4.710780      -1.431710     -0.8266000    
 Al   7.012720      -12.88543      -7.439410    
 Al   7.012720      -15.74886      -12.39901    
 Al   7.012720      -10.02200      -2.479800    
 Al   7.012720      -18.61229      -7.439410    
 Al   7.012720      -21.47572      -12.39901    
 Al   7.012720      -15.74886      -2.479800    
 Al   7.012720      -7.158570      -7.439410    
 Al   7.012720      -10.02200      -12.39901    
 Al   7.012720      -4.295140      -2.479800    
 Al   9.351920      -15.74886      -9.092610    
 Al   9.351920      -18.61229      -14.05221    
 Al   9.351920      -12.88543      -4.133000    
 Al   9.351920      -21.47572      -9.092610    
 Al   9.351920      -24.33915      -14.05221    
 Al   9.351920      -18.61229      -4.133000    
 Al   9.351920      -10.02200      -9.092610    
 Al   9.351920      -12.88543      -14.05221    
 Al   9.351920      -7.158570      -4.133000    
 Al   11.69112      -18.61229      -10.74581    
 Al   11.69112      -12.88543     -0.8266000    
 Al   11.69112      -15.74886      -5.786210    
 Al   11.69112      -7.158570      -10.74581    
 Al   11.69112      -1.431710     -0.8266000    
 Al   11.69112      -4.295140      -5.786210    
 Al   11.69112      -12.88543      -10.74581    
 Al   11.69112      -7.158570     -0.8266000    
 Al   11.69112      -10.02200      -5.786210    
 Al   13.99306      -21.47572      -12.39901    
 Al   13.99306      -15.74886      -2.479800    
 Al   13.99306      -18.61229      -7.439410    
 Al   13.99306      -10.02200      -12.39901    
 Al   13.99306      -4.295140      -2.479800    
 Al   13.99306      -7.158570      -7.439410    
 Al   13.99306      -15.74886      -12.39901    
 Al   13.99306      -10.02200      -2.479800    
 Al   13.99306      -12.88543      -7.439410    
 Al   16.34180      -24.33915      -14.05221    
 Al   16.34180      -18.61229      -4.133000    
 Al   16.34180      -21.47572      -9.092610    
 Al   16.34180      -12.88543      -14.05221    
 Al   16.34180      -7.158570      -4.133000    
 Al   16.34180      -10.02200      -9.092610    
 Al   16.34180      -18.61229      -14.05221    
 Al   16.34180      -12.88543      -4.133000    
 Al   16.34180      -15.74886      -9.092610    
 Al   2.362040      -8.590290      -6.612810    
 Al   2.362040      -11.45372      -11.57241    
 Al   2.362040      -5.726860      -1.653200    
 Al   2.362040      -14.31714      -6.612810    
 Al   2.362040      -17.18057      -11.57241    
 Al   2.362040      -11.45372      -1.653200    
 Al   2.362040      -20.04400      -6.612810    
 Al   2.362040      -22.90743      -11.57241    
 Al   2.362040      -17.18057      -1.653200    
 Al   4.710780      -11.45372      -8.266010    
 Al   4.710780      -14.31714      -13.22561    
 Al   4.710780      -8.590290      -3.306400    
 Al   4.710780      -17.18057      -8.266010    
 Al   4.710780      -20.04400      -13.22561    
 Al   4.710780      -14.31714      -3.306400    
 Al   4.710780      -5.726860      -8.266010    
 Al   4.710780      -8.590290      -13.22561    
 Al   4.710780      -2.863430      -3.306400    
 Al   7.012720      -14.31714      -9.919210    
 Al   7.012720      -8.590290      0.0000000E+00
 Al   7.012720      -11.45372      -4.959600    
 Al   7.012720      -20.04400      -9.919210    
 Al   7.012720      -14.31714      0.0000000E+00
 Al   7.012720      -17.18057      -4.959600    
 Al   7.012720      -8.590290      -9.919210    
 Al   7.012720      -2.863430      0.0000000E+00
 Al   7.012720      -5.726860      -4.959600    
 Al   9.351920      -17.18057      -11.57241    
 Al   9.351920      -11.45372      -1.653200    
 Al   9.351920      -14.31714      -6.612810    
 Al   9.351920      -22.90743      -11.57241    
 Al   9.351920      -17.18057      -1.653200    
 Al   9.351920      -20.04400      -6.612810    
 Al   9.351920      -11.45372      -11.57241    
 Al   9.351920      -5.726860      -1.653200    
 Al   9.351920      -8.590290      -6.612810    
 Al   11.69112      -20.04400      -13.22561    
 Al   11.69112      -14.31714      -3.306400    
 Al   11.69112      -17.18057      -8.266010    
 Al   11.69112      -8.590290      -13.22561    
 Al   11.69112      -2.863430      -3.306400    
 Al   11.69112      -5.726860      -8.266010    
 Al   11.69112      -14.31714      -13.22561    
 Al   11.69112      -8.590290      -3.306400    
 Al   11.69112      -11.45372      -8.266010    
 Al   13.99306      -14.31714      0.0000000E+00
 Al   13.99306      -17.18057      -4.959600    
 Al   13.99306      -20.04400      -9.919210    
 Al   13.99306      -2.863430      0.0000000E+00
 Al   13.99306      -5.726860      -4.959600    
 Al   13.99306      -8.590290      -9.919210    
 Al   13.99306      -8.590290      0.0000000E+00
 Al   13.99306      -11.45372      -4.959600    
 Al   13.99306      -14.31714      -9.919210    
 Al   16.34180      -17.18057      -1.653200    
 Al   16.34180      -20.04400      -6.612810    
 Al   16.34180      -22.90743      -11.57241    
 Al   16.34180      -5.726860      -1.653200    
 Al   16.34180      -8.590290      -6.612810    
 Al   16.34180      -11.45372      -11.57241    
 Al   16.34180      -11.45372      -1.653200    
 Al   16.34180      -14.31714      -6.612810    
 Al   16.34180      -17.18057      -11.57241    
 Al   2.362040      -10.02200      -4.133000    
 Al   2.362040      -12.88543      -9.092610    
 Al   2.362040      -15.74886      -14.05221    
 Al   2.362040      -15.74886      -4.133000    
 Al   2.362040      -18.61229      -9.092610    
 Al   2.362040      -21.47572      -14.05221    
 Al   2.362040      -4.295140      -4.133000    
 Al   2.362040      -7.158570      -9.092610    
 Al   2.362040      -10.02200      -14.05221    
 Al   4.710780      -12.88543      -5.786210    
 Al   4.710780      -15.74886      -10.74581    
 Al   4.710780      -10.02200     -0.8266000    
 Al   4.710780      -18.61229      -5.786210    
 Al   4.710780      -21.47572      -10.74581    
 Al   4.710780      -15.74886     -0.8266000    
 Al   4.710780      -7.158570      -5.786210    
 Al   4.710780      -10.02200      -10.74581    
 Al   4.710780      -4.295140     -0.8266000    
 Al   7.012720      -15.74886      -7.439410    
 Al   7.012720      -18.61229      -12.39901    
 Al   7.012720      -12.88543      -2.479800    
 Al   7.012720      -4.295140      -7.439410    
 Al   7.012720      -7.158570      -12.39901    
 Al   7.012720      -1.431710      -2.479800    
 Al   7.012720      -10.02200      -7.439410    
 Al   7.012720      -12.88543      -12.39901    
 Al   7.012720      -7.158570      -2.479800    
 Al   9.351920      -18.61229      -9.092610    
 Al   9.351920      -21.47572      -14.05221    
 Al   9.351920      -15.74886      -4.133000    
 Al   9.351920      -7.158570      -9.092610    
 Al   9.351920      -10.02200      -14.05221    
 Al   9.351920      -4.295140      -4.133000    
 Al   9.351920      -12.88543      -9.092610    
 Al   9.351920      -15.74886      -14.05221    
 Al   9.351920      -10.02200      -4.133000    
 Al   11.69112      -21.47572      -10.74581    
 Al   11.69112      -15.74886     -0.8266000    
 Al   11.69112      -18.61229      -5.786210    
 Al   11.69112      -10.02200      -10.74581    
 Al   11.69112      -4.295140     -0.8266000    
 Al   11.69112      -7.158570      -5.786210    
 Al   11.69112      -15.74886      -10.74581    
 Al   11.69112      -10.02200     -0.8266000    
 Al   11.69112      -12.88543      -5.786210    
 Al   13.99306      -7.158570      -12.39901    
 Al   13.99306      -1.431710      -2.479800    
 Al   13.99306      -4.295140      -7.439410    
 Al   13.99306      -12.88543      -12.39901    
 Al   13.99306      -7.158570      -2.479800    
 Al   13.99306      -10.02200      -7.439410    
 Al   13.99306      -18.61229      -12.39901    
 Al   13.99306      -12.88543      -2.479800    
 Al   13.99306      -15.74886      -7.439410    
 Al   16.34180      -10.02200      -14.05221    
 Al   16.34180      -4.295140      -4.133000    
 Al   16.34180      -7.158570      -9.092610    
 Al   16.34180      -15.74886      -14.05221    
 Al   16.34180      -10.02200      -4.133000    
 Al   16.34180      -12.88543      -9.092610    
 Al   16.34180      -21.47572      -14.05221    
 Al   16.34180      -15.74886      -4.133000    
 Al   16.34180      -18.61229      -9.092610    
 N    14.70000      -11.45372      -8.266010    
         261
 Energy:  -927.400234000000     
 X  0.0000000E+00  0.0000000E+00  0.0000000E+00
 X  0.0000000E+00  -17.18057      0.0000000E+00
 X  0.0000000E+00  -8.590286      -14.87881    
 X   30.00000      0.0000000E+00  0.0000000E+00
 X  0.0000000E+00  -25.77086      -14.87881    
 X   30.00000      -17.18057      0.0000000E+00
 X   30.00000      -8.590286      -14.87881    
 X   30.00000      -25.77086      -14.87881    
 Al   2.361510      -11.45372      -6.612330    
 Al   2.362290      -14.31684      -11.57242    
 Al   2.362150      -8.590220      -1.653460    
 Al   2.362400      -17.18060      -6.612970    
 Al   2.362440      -20.04400      -11.57222    
 Al   2.362150      -14.31721      -1.653460    
 Al   2.362400      -5.726830      -6.612970    
 Al   2.362290      -8.590600      -11.57242    
 Al   2.362300      -2.863430      -1.652880    
 Al   4.710410      -14.31732      -8.265890    
 Al   4.710810      -17.18085      -13.22561    
 Al   4.710630      -11.45372      -3.306450    
 Al   4.710590      -20.04400      -8.265920    
 Al   4.710810      -22.90716      -13.22561    
 Al   4.710580      -17.18086      -3.306490    
 Al   4.710410      -8.590110      -8.265890    
 Al   4.710500      -11.45372      -13.22547    
 Al   4.710580      -5.726570      -3.306490    
 Al   7.012960      -17.18076      -9.919130    
 Al   7.012860      -11.45372      1.4000000E-04
 Al   7.012610      -14.31693      -4.959640    
 Al   7.012960      -5.726670      -9.919130    
 Al   7.012850     -2.3999999E-04  1.2000000E-04
 Al   7.012570      -2.863430      -4.959520    
 Al   7.013770      -11.45372      -9.918950    
 Al   7.012850      -5.726610      1.2000000E-04
 Al   7.012610      -8.590510      -4.959640    
 Al   9.351680      -20.04400      -11.57162    
 Al   9.351990      -14.31697      -1.653300    
 Al   9.351700      -17.18051      -6.612810    
 Al   9.351950      -8.590510      -11.57225    
 Al   9.352240      -2.863430      -1.652680    
 Al   9.351700      -5.726920      -6.612810    
 Al   9.351950      -14.31693      -11.57225    
 Al   9.351990      -8.590460      -1.653300    
 Al   9.352520      -11.45372      -6.612690    
 Al   11.69137      -22.90738      -13.22503    
 Al   11.69109      -17.18065      -3.306600    
 Al   11.69111      -20.04400      -8.266040    
 Al   11.69117      -11.45372      -13.22499    
 Al   11.69109      -5.726790      -3.306600    
 Al   11.69079      -8.591300      -8.266270    
 Al   11.69137      -17.18062      -13.22503    
 Al   11.69102      -11.45372      -3.307250    
 Al   11.69079      -14.31613      -8.266270    
 Al   13.99294     -2.8000001E-04 -1.2000000E-04
 Al   13.99326      -2.863430      -4.960010    
 Al   13.99294      -5.727010      -9.918620    
 Al   13.99294      -5.726580     -1.2000000E-04
 Al   13.99357      -8.590140      -4.959460    
 Al   13.97453      -11.45372      -9.964330    
 Al   13.99322      -11.45372      1.7000000E-04
 Al   13.99357      -14.31729      -4.959460    
 Al   13.99294      -17.18042      -9.918620    
 Al   16.34206      -2.863430      -1.653140    
 Al   16.34182      -5.727130      -6.613250    
 Al   16.34190      -8.589380      -11.57346    
 Al   16.34194      -8.590260      -1.653350    
 Al   16.34996      -11.45372      -6.612100    
 Al   16.34190      -14.31805      -11.57346    
 Al   16.34194      -14.31717      -1.653350    
 Al   16.34182      -17.18031      -6.613250    
 Al   16.34124      -20.04400      -11.57243    
 Al   2.362400      -7.158700      -4.132900    
 Al   2.361510      -10.02159      -9.092850    
 Al   2.362400      -12.88559      -14.05215    
 Al   2.362290      -12.88559      -4.133270    
 Al   2.362290      -15.74871      -9.092340    
 Al   2.362440      -18.61212      -14.05231    
 Al   2.362300      -18.61201      -4.133170    
 Al   2.362150      -21.47591      -9.092420    
 Al   2.362150      -24.33940      -14.05214    
 Al   4.710410      -10.02181      -5.786110    
 Al   4.710410      -12.88542      -10.74602    
 Al   4.710590      -7.158490     -0.8266500    
 Al   4.710500      -15.74873      -5.786280    
 Al   4.710810      -18.61242      -10.74605    
 Al   4.710810      -12.88529     -0.8263700    
 Al   4.710580      -4.295070      -5.785910    
 Al   4.710630      -7.158610      -10.74579    
 Al   4.710580      -1.431930     -0.8268100    
 Al   7.013770      -12.88521      -7.439540    
 Al   7.012960      -15.74889      -12.39921    
 Al   7.012960      -10.02184      -2.479680    
 Al   7.012850      -18.61206      -7.439260    
 Al   7.012860      -21.47560      -12.39908    
 Al   7.012850      -15.74887      -2.480080    
 Al   7.012610      -7.158710      -7.439580    
 Al   7.012610      -10.02192      -12.39880    
 Al   7.012570      -4.295070      -2.479850    
 Al   9.351950      -15.74861      -9.092500    
 Al   9.351680      -18.61160      -14.05261    
 Al   9.351950      -12.88540      -4.133270    
 Al   9.351990      -21.47589      -9.092710    
 Al   9.351990      -24.33914      -14.05201    
 Al   9.352240      -18.61183      -4.133270    
 Al   9.352520      -10.02190      -9.092670    
 Al   9.351700      -12.88541      -14.05215    
 Al   9.351700      -7.158610      -4.133050    
 Al   11.69137      -18.61181      -10.74614    
 Al   11.69137      -12.88491     -0.8268500    
 Al   11.69117      -15.74832      -5.786520    
 Al   11.69102      -7.159300      -10.74539    
 Al   11.69109      -1.431920     -0.8265700    
 Al   11.69109      -4.295280      -5.786050    
 Al   11.69079      -12.88515      -10.74480    
 Al   11.69111      -7.158600     -0.8265800    
 Al   11.69079      -10.02274      -5.786950    
 Al   13.99322      -21.47557      -12.39910    
 Al   13.99294      -15.74911      -2.479980    
 Al   13.99294      -18.61225      -7.439100    
 Al   13.99357      -10.02195      -12.39921    
 Al   13.99326      -4.295490      -2.479600    
 Al   13.99357      -7.158370      -7.439350    
 Al   13.99294      -15.74828      -12.39917    
 Al   13.99294      -10.02157      -2.480230    
 Al   13.97453      -12.92451      -7.416850    
 Al   16.34194      -24.33929      -14.05216    
 Al   16.34206      -18.61224      -4.133030    
 Al   16.34194      -21.47583      -9.092510    
 Al   16.34182      -12.88568      -14.05176    
 Al   16.34182      -7.159090      -4.133010    
 Al   16.34996      -10.02139      -9.092960    
 Al   16.34124      -18.61230      -14.05220    
 Al   16.34190      -12.88588      -4.131700    
 Al   16.34190      -15.75022      -9.092870    
 Al   2.362100      -8.590040      -6.612660    
 Al   2.362100      -11.45372      -11.57269    
 Al   2.362110      -5.726840      -1.653210    
 Al   2.362100      -14.31739      -6.612660    
 Al   2.362070      -17.18049      -11.57236    
 Al   2.362070      -11.45372      -1.653300    
 Al   2.362110      -20.04400      -6.612790    
 Al   2.362070      -22.90751      -11.57236    
 Al   2.362110      -17.18059      -1.653210    
 Al   4.711210      -11.45372      -8.266010    
 Al   4.710820      -14.31684      -13.22543    
 Al   4.710820      -8.590300      -3.306760    
 Al   4.710820      -17.18026      -8.265840    
 Al   4.711050      -20.04400      -13.22561    
 Al   4.710820      -14.31714      -3.306760    
 Al   4.710820      -5.727170      -8.265840    
 Al   4.710820      -8.590590      -13.22543    
 Al   4.710530      -2.863430      -3.306400    
 Al   7.012970      -14.31677      -9.919000    
 Al   7.012570      -8.590620      1.9999999E-04
 Al   7.012970      -11.45372      -4.960030    
 Al   7.012570      -20.04400      -9.919600    
 Al   7.012570      -14.31681      1.9999999E-04
 Al   7.012720      -17.18076      -4.959500    
 Al   7.012970      -8.590660      -9.919000    
 Al   7.012720      -2.863430     -2.2000000E-04
 Al   7.012720      -5.726670      -4.959500    
 Al   9.351960      -17.18075      -11.57251    
 Al   9.351960      -11.45372      -1.653000    
 Al   9.352370      -14.31661      -6.613110    
 Al   9.351960      -22.90726      -11.57251    
 Al   9.351500      -17.18072      -1.653280    
 Al   9.351500      -20.04400      -6.612640    
 Al   9.352370      -11.45372      -11.57179    
 Al   9.351500      -5.726710      -1.653280    
 Al   9.352370      -8.590820      -6.613110    
 Al   11.69059      -20.04400      -13.22561    
 Al   11.69095      -14.31685      -3.306540    
 Al   11.69095      -17.18031      -8.266190    
 Al   11.69095      -8.590260      -13.22529    
 Al   11.69053      -2.863430      -3.306400    
 Al   11.69095      -5.727120      -8.266190    
 Al   11.69095      -14.31717      -13.22529    
 Al   11.69095      -8.590580      -3.306540    
 Al   11.67466      -11.45372      -8.266010    
 Al   13.99323      -14.31669      2.6000000E-04
 Al   13.99300      -17.18059      -4.959590    
 Al   13.99323      -20.04400      -9.919730    
 Al   13.99300      -2.863430     -1.9999999E-05
 Al   13.99300      -5.726840      -4.959590    
 Al   13.99301      -8.586880      -9.921170    
 Al   13.99323      -8.590740      2.6000000E-04
 Al   13.99301      -11.45372      -4.955680    
 Al   13.99301      -14.32055      -9.921170    
 Al   16.34143      -17.18065      -1.653250    
 Al   16.34143      -20.04400      -6.612720    
 Al   16.34156      -22.90592      -11.57328    
 Al   16.34143      -5.726780      -1.653250    
 Al   16.34053      -8.591200      -6.613330    
 Al   16.34053      -11.45372      -11.57136    
 Al   16.34156      -11.45372      -1.651460    
 Al   16.34053      -14.31624      -6.613330    
 Al   16.34156      -17.18208      -11.57328    
 Al   2.362290      -10.02184      -4.133270    
 Al   2.361510      -12.88584      -9.092850    
 Al   2.362150      -15.74860      -14.05214    
 Al   2.362400      -15.74873      -4.132900    
 Al   2.362150      -18.61210      -9.092420    
 Al   2.362440      -21.47588      -14.05231    
 Al   2.362300      -4.295420      -4.133170    
 Al   2.362290      -7.158720      -9.092340    
 Al   2.362400      -10.02184      -14.05215    
 Al   4.710410      -12.88562      -5.786110    
 Al   4.710630      -15.74882      -10.74579    
 Al   4.710810      -10.02214     -0.8263700    
 Al   4.710580      -18.61236      -5.785910    
 Al   4.710810      -21.47558      -10.74605    
 Al   4.710590      -15.74894     -0.8266500    
 Al   4.710500      -7.158700      -5.786280    
 Al   4.710410      -10.02202      -10.74602    
 Al   4.710580      -4.294920     -0.8268100    
 Al   7.012610      -15.74872      -7.439580    
 Al   7.012860      -18.61241      -12.39908    
 Al   7.012960      -12.88559      -2.479680    
 Al   7.012850      -4.295370      -7.439260    
 Al   7.012960      -7.158540      -12.39921    
 Al   7.012570      -1.431790      -2.479850    
 Al   7.013770      -10.02223      -7.439540    
 Al   7.012610      -12.88551      -12.39880    
 Al   7.012850      -7.158560      -2.480080    
 Al   9.351990      -18.61212      -9.092710    
 Al   9.351680      -21.47640      -14.05261    
 Al   9.351700      -15.74882      -4.133050    
 Al   9.351950      -7.158820      -9.092500    
 Al   9.351700      -10.02203      -14.05215    
 Al   9.352240      -4.295600      -4.133270    
 Al   9.352520      -12.88553      -9.092670    
 Al   9.351990      -15.74886      -14.05201    
 Al   9.351950      -10.02203      -4.133270    
 Al   11.69137      -21.47619      -10.74614    
 Al   11.69111      -15.74883     -0.8265800    
 Al   11.69109      -18.61216      -5.786050    
 Al   11.69079      -10.02228      -10.74480    
 Al   11.69109      -4.294940     -0.8265700    
 Al   11.69117      -7.159110      -5.786520    
 Al   11.69102      -15.74813      -10.74539    
 Al   11.69137      -10.02252     -0.8268500    
 Al   11.69079      -12.88469      -5.786950    
 Al   13.99294      -7.159160      -12.39917    
 Al   13.99326      -1.431370      -2.479600    
 Al   13.99294      -4.295180      -7.439100    
 Al   13.99357      -12.88548      -12.39921    
 Al   13.99294      -7.158320      -2.479980    
 Al   13.97453      -9.982920      -7.416850    
 Al   13.99322      -18.61243      -12.39910    
 Al   13.99294      -12.88586      -2.480230    
 Al   13.99357      -15.74906      -7.439350    
 Al   16.34182      -10.02175      -14.05176    
 Al   16.34206      -4.295190      -4.133030    
 Al   16.34190      -7.157220      -9.092870    
 Al   16.34194      -15.74872      -14.05216    
 Al   16.34190      -10.02155      -4.131700    
 Al   16.34996      -12.88605      -9.092960    
 Al   16.34124      -21.47570      -14.05220    
 Al   16.34182      -15.74834      -4.133010    
 Al   16.34194      -18.61217      -9.092510    
 N    14.74539      -11.45372      -8.266010    
         261
 Energy:  -927.583752000000     
 X  0.0000000E+00  0.0000000E+00  0.0000000E+00
 X  0.0000000E+00  -17.18057      0.0000000E+00
 X  0.0000000E+00  -8.590286      -14.87881    
 X   30.00000      0.0000000E+00  0.0000000E+00
 X  0.0000000E+00  -25.77086      -14.87881    
 X   30.00000      -17.18057      0.0000000E+00
 X   30.00000      -8.590286      -14.87881    
 X   30.00000      -25.77086      -14.87881    
 Al   2.360510      -11.45372      -6.611440    
 Al   2.362760      -14.31626      -11.57243    
 Al   2.362350      -8.590100      -1.653940    
 Al   2.363070      -17.18066      -6.613280    
 Al   2.363190      -20.04400      -11.57186    
 Al   2.362350      -14.31733      -1.653940    
 Al   2.363070      -5.726770      -6.613280    
 Al   2.362760      -8.591170      -11.57243    
 Al   2.362800      -2.863430      -1.652270    
 Al   4.709720      -14.31764      -8.265670    
 Al   4.710870      -17.18136      -13.22561    
 Al   4.710360      -11.45372      -3.306520    
 Al   4.710260      -20.04400      -8.265750    
 Al   4.710870      -22.90665      -13.22561    
 Al   4.710210      -17.18141      -3.306650    
 Al   4.709720      -8.589790      -8.265670    
 Al   4.709980      -11.45372      -13.22520    
 Al   4.710210      -5.726020      -3.306650    
 Al   7.013400      -17.18111      -9.918990    
 Al   7.013130      -11.45372      3.9999999E-04
 Al   7.012410      -14.31651      -4.959700    
 Al   7.013400      -5.726320      -9.918990    
 Al   7.013090     -6.9999998E-04  3.4999999E-04
 Al   7.012280      -2.863430      -4.959360    
 Al   7.015730      -11.45372      -9.918460    
 Al   7.013090      -5.726160      3.4999999E-04
 Al   7.012410      -8.590920      -4.959700    
 Al   9.351230      -20.04400      -11.57014    
 Al   9.352110      -14.31665      -1.653480    
 Al   9.351300      -17.18039      -6.612830    
 Al   9.351990      -8.590920      -11.57194    
 Al   9.352830      -2.863430      -1.651700    
 Al   9.351300      -5.727040      -6.612830    
 Al   9.351990      -14.31651      -11.57194    
 Al   9.352110      -8.590780      -1.653480    
 Al   9.353630      -11.45372      -6.612480    
 Al   11.69183      -22.90730      -13.22395    
 Al   11.69104      -17.18078      -3.306960    
 Al   11.69109      -20.04400      -8.266110    
 Al   11.69126      -11.45372      -13.22382    
 Al   11.69104      -5.726650      -3.306960    
 Al   11.69018      -8.593210      -8.266770    
 Al   11.69183      -17.18071      -13.22395    
 Al   11.69083      -11.45372      -3.308820    
 Al   11.69018      -14.31423      -8.266770    
 Al   13.99271     -8.1000000E-04 -3.6000001E-04
 Al   13.99362      -2.863430      -4.960760    
 Al   13.99271      -5.727300      -9.917520    
 Al   13.99271      -5.726050     -3.6000001E-04
 Al   13.99451      -8.589860      -4.959190    
 Al   13.93981      -11.45372      -10.04885    
 Al   13.99352      -11.45372      4.9000001E-04
 Al   13.99451      -14.31757      -4.959190    
 Al   13.99271      -17.18013      -9.917520    
 Al   16.34256      -2.863430      -1.653030    
 Al   16.34186      -5.727630      -6.614090    
 Al   16.34209      -8.587690      -11.57541    
 Al   16.34222      -8.590210      -1.653630    
 Al   16.36525      -11.45372      -6.610760    
 Al   16.34209      -14.31974      -11.57541    
 Al   16.34222      -14.31723      -1.653630    
 Al   16.34186      -17.17981      -6.614090    
 Al   16.34019      -20.04400      -11.57246    
 Al   2.363070      -7.158940      -4.132690    
 Al   2.360510      -10.02082      -9.093290    
 Al   2.363070      -12.88589      -14.05205    
 Al   2.362760      -12.88589      -4.133760    
 Al   2.362760      -15.74843      -9.091830    
 Al   2.363190      -18.61181      -14.05249    
 Al   2.362800      -18.61148      -4.133470    
 Al   2.362350      -21.47626      -9.092080    
 Al   2.362350      -24.33988      -14.05201    
 Al   4.709720      -10.02146      -5.785940    
 Al   4.709720      -12.88539      -10.74641    
 Al   4.710260      -7.158350     -0.8267300    
 Al   4.709980      -15.74850      -5.786410    
 Al   4.710870      -18.61268      -10.74649    
 Al   4.710870      -12.88504     -0.8259200    
 Al   4.710210      -4.294940      -5.785360    