 vasp.5.4.4.18Apr17-6-g9f103f2a35 (build May 02 2017 15:33:50) complex          
  
 executed on Intel-16.0.3.210-OMP date 2018.07.08  13:39:14
 running on    6 total cores
 distrk:  each k-point on    6 cores,    1 groups
 distr:  one band on NCORES_PER_BAND=   1 cores,    6 groups


--------------------------------------------------------------------------------------------------------


 INCAR:
 POTCAR:    PAW Al_GW 19Mar2012                   
 POTCAR:    PAW_PBE N 08Apr2002                   

 ----------------------------------------------------------------------------- 
|                                                                             |
|           W    W    AA    RRRRR   N    N  II  N    N   GGGG   !!!           |
|           W    W   A  A   R    R  NN   N  II  NN   N  G    G  !!!           |
|           W    W  A    A  R    R  N N  N  II  N N  N  G       !!!           |
|           W WW W  AAAAAA  RRRRR   N  N N  II  N  N N  G  GGG   !            |
|           WW  WW  A    A  R   R   N   NN  II  N   NN  G    G                |
|           W    W  A    A  R    R  N    N  II  N    N   GGGG   !!!           |
|                                                                             |
|      For optimal performance we recommend to set                            |
|        NCORE= 4 - approx SQRT( number of cores)                             |
|      NCORE specifies how many cores store one orbital (NPAR=cpu/NCORE).     |
|      This setting can  greatly improve the performance of VASP for DFT.     |
|      The default,   NCORE=1            might be grossly inefficient         |
|      on modern multi-core architectures or massively parallel machines.     |
|      Do your own testing !!!!                                               |
|      Unfortunately you need to use the default for GW and RPA calculations. |
|      (for HF NCORE is supported but not extensively tested yet)             |
|                                                                             |
 ----------------------------------------------------------------------------- 

 POTCAR:    PAW Al_GW 19Mar2012                   
   VRHFIN =Al: s2p1                                                             
   LEXCH  = PE                                                                  
   EATOM  =    53.5387 eV,    3.9350 Ry                                         
                                                                                
   TITEL  = PAW Al_GW 19Mar2012                                                 
   LULTRA =        F    use ultrasoft PP ?                                      
   IUNSCR =        1    unscreen: 0-lin 1-nonlin 2-no                           
   RPACOR =    1.500    partial core radius                                     
   POMASS =   26.982; ZVAL   =    3.000    mass and valenz                      
   RCORE  =    2.000    outmost cutoff radius                                   
   RWIGS  =    2.000; RWIGS  =    1.058    wigner-seitz radius (au A)           
   ENMAX  =  240.300; ENMIN  =  180.225 eV                                      
   ICORE  =        3    local potential                                         
   LCOR   =        T    correct aug charges                                     
   LPAW   =        T    paw PP                                                  
   EAUG   =  482.059                                                            
   DEXC   =    0.000                                                            
   RMAX   =    2.051    core radius for proj-oper                               
   RAUG   =    1.300    factor for augmentation sphere                          
   RDEP   =    2.096    radius for radial grids                                 
   RDEPT  =    1.856    core radius for aug-charge                              
                                                                                
   Atomic configuration                                                         
    7 entries                                                                   
     n  l   j            E        occ.                                          
     1  0  0.50     -1511.1048   2.0000                                         
     2  0  0.50      -108.1629   2.0000                                         
     2  1  1.50       -69.6402   6.0000                                         
     3  0  0.50        -7.7528   2.0000                                         
     3  1  1.50        -2.7121   1.0000                                         
     3  2  2.50        -2.7212   0.0000                                         
     4  3  2.50        -2.7212   0.0000                                         
   Description                                                                  
     l       E           TYP  RCUT    TYP  RCUT                                 
     0     -7.7528455     23  1.900                                             
     0     68.0291300     23  1.900                                             
     1     -2.7120682     23  1.900                                             
     1     68.0291300     23  1.900                                             
     2     -1.3605826     23  1.900                                             
     2     81.6349560     23  1.900                                             
     3     74.8320430     23  2.000                                             
  local pseudopotential read in
  partial core-charges read in
  partial kinetic energy density read in
  kinetic energy density of atom read in
  atomic valenz-charges read in
  non local Contribution for L=           0  read in
    real space projection operators read in
  non local Contribution for L=           0  read in
    real space projection operators read in
  non local Contribution for L=           1  read in
    real space projection operators read in
  non local Contribution for L=           1  read in
    real space projection operators read in
  non local Contribution for L=           2  read in
    real space projection operators read in
  non local Contribution for L=           2  read in
    real space projection operators read in
    PAW grid and wavefunctions read in
 
   number of l-projection  operators is LMAX  =           6
   number of lm-projection operators is LMMAX =          18
 
 POTCAR:    PAW_PBE N 08Apr2002                   
   VRHFIN =N: s2p3                                                              
   LEXCH  = PE                                                                  
   EATOM  =   264.5486 eV,   19.4438 Ry                                         
                                                                                
   TITEL  = PAW_PBE N 08Apr2002                                                 
   LULTRA =        F    use ultrasoft PP ?                                      
   IUNSCR =        1    unscreen: 0-lin 1-nonlin 2-no                           
   RPACOR =    1.200    partial core radius                                     
   POMASS =   14.001; ZVAL   =    5.000    mass and valenz                      
   RCORE  =    1.500    outmost cutoff radius                                   
   RWIGS  =    1.400; RWIGS  =    0.741    wigner-seitz radius (au A)           
   ENMAX  =  400.000; ENMIN  =  300.000 eV                                      
   ICORE  =        2    local potential                                         
   LCOR   =        T    correct aug charges                                     
   LPAW   =        T    paw PP                                                  
   EAUG   =  627.112                                                            
   DEXC   =    0.000                                                            
   RMAX   =    1.529    core radius for proj-oper                               
   RAUG   =    1.300    factor for augmentation sphere                          
   RDEP   =    1.514    radius for radial grids                                 
   RDEPT  =    1.338    core radius for aug-charge                              
                                                                                
   Atomic configuration                                                         
    4 entries                                                                   
     n  l   j            E        occ.                                          
     1  0  0.50      -384.7179   2.0000                                         
     2  0  0.50       -18.5828   2.0000                                         
     2  1  0.50        -7.0898   3.0000                                         
     3  2  1.50        -6.8029   0.0000                                         
   Description                                                                  
     l       E           TYP  RCUT    TYP  RCUT                                 
     0    -18.5828119     23  1.200                                             
     0    -13.5018863     23  1.200                                             
     1     -7.0897853     23  1.500                                             
     1      9.5240782     23  1.500                                             
     2     -6.8029130      7  1.500                                             
  local pseudopotential read in
  partial core-charges read in
  partial kinetic energy density read in
  atomic valenz-charges read in
  non local Contribution for L=           0  read in
    real space projection operators read in
  non local Contribution for L=           0  read in
    real space projection operators read in
  non local Contribution for L=           1  read in
    real space projection operators read in
  non local Contribution for L=           1  read in
    real space projection operators read in
    PAW grid and wavefunctions read in
 
   number of l-projection  operators is LMAX  =           4
   number of lm-projection operators is LMMAX =           8
 
 Optimization of the real space projectors (new method)

 maximal supplied QI-value         = 18.90
 optimisation between [QCUT,QGAM] = [  8.69, 17.57] = [ 21.16, 86.49] Ry 
 Optimized for a Real-space Cutoff    1.59 Angstroem

   l    n(q)    QCUT    max X(q) W(low)/X(q) W(high)/X(q)  e(spline) 
   0      8     8.693    11.519    0.12E-03    0.31E-04    0.21E-06
   0      8     8.693     5.834    0.89E-04    0.32E-04    0.16E-06
   1      8     8.693    10.132    0.25E-03    0.39E-03    0.25E-06
   1      8     8.693     3.004    0.16E-03    0.27E-03    0.22E-06
   2      7     8.693     3.169    0.39E-03    0.93E-03    0.44E-06
   2      7     8.693     1.605    0.70E-04    0.91E-04    0.19E-06
 Optimization of the real space projectors (new method)

 maximal supplied QI-value         = 25.13
 optimisation between [QCUT,QGAM] = [  8.80, 17.59] = [ 21.67, 86.68] Ry 
 Optimized for a Real-space Cutoff    2.14 Angstroem

   l    n(q)    QCUT    max X(q) W(low)/X(q) W(high)/X(q)  e(spline) 
   0     11     8.797    79.467    0.70E-04    0.19E-04    0.19E-05
   0     11     8.797    66.151    0.68E-04    0.18E-04    0.19E-05
   1     11     8.797     6.738    0.26E-03    0.11E-02    0.73E-05
   1     11     8.797     5.013    0.25E-03    0.11E-02    0.72E-05
  PAW Al_GW 19Mar2012                   :
 energy of atom  1       EATOM=  -53.5387
 kinetic energy error for atom=    0.0011 (will be added to EATOM!!)
  PAW_PBE N 08Apr2002                   :
 energy of atom  2       EATOM= -264.5486
 kinetic energy error for atom=    0.6882 (will be added to EATOM!!)
 
 
 POSCAR: New structure                           
  positions in direct lattice
  No initial velocities read in
 exchange correlation table for  LEXCH =        8
   RHO(1)=    0.500       N(1)  =     2000
   RHO(2)=  100.500       N(2)  =     4000
 


--------------------------------------------------------------------------------------------------------


 ion  position               nearest neighbor table
   1  0.444  0.444  0.079-
   2  0.444  0.778  0.079-
   3  0.444  0.111  0.079-
   4  0.778  0.444  0.079-
   5  0.778  0.778  0.079-
   6  0.778  0.111  0.079-
   7  0.111  0.444  0.079-
   8  0.111  0.778  0.079-
   9  0.111  0.111  0.079-
  10  0.556  0.556  0.157-
  11  0.556  0.889  0.157-
  12  0.556  0.222  0.157-
  13  0.889  0.556  0.157-
  14  0.889  0.889  0.157-
  15  0.889  0.222  0.157-
  16  0.222  0.556  0.157-
  17  0.222  0.889  0.157-
  18  0.222  0.222  0.157-
  19  0.667  0.667  0.234-
  20  0.667  0.000  0.234-
  21  0.667  0.333  0.234-
  22  0.000  0.667  0.234-
  23  0.000  0.000  0.234-
  24  0.000  0.333  0.234-
  25  0.333  0.667  0.234-
  26  0.333  0.000  0.234-
  27  0.333  0.333  0.234-
  28  0.778  0.778  0.312-
  29  0.778  0.111  0.312-
  30  0.778  0.444  0.312-
  31  0.111  0.778  0.312-
  32  0.111  0.111  0.312-
  33  0.111  0.444  0.312-
  34  0.444  0.778  0.312-
  35  0.444  0.111  0.312-
  36  0.444  0.444  0.312-
  37  0.889  0.889  0.390-
  38  0.889  0.222  0.390-
  39  0.889  0.556  0.390-
  40  0.222  0.889  0.390-
  41  0.222  0.222  0.390-
  42  0.222  0.556  0.390-
  43  0.556  0.889  0.390-
  44  0.556  0.222  0.390-
  45  0.556  0.556  0.390-
  46  0.000  0.000  0.466-
  47  0.000  0.333  0.466-
  48  0.000  0.667  0.466-
  49  0.333  0.000  0.466-
  50  0.333  0.333  0.466-
  51  0.333  0.667  0.466- 253 1.80
  52  0.667  0.000  0.466-
  53  0.667  0.333  0.466-
  54  0.667  0.667  0.466-
  55  0.111  0.111  0.545-
  56  0.111  0.444  0.545-
  57  0.111  0.778  0.545-
  58  0.444  0.111  0.545-
  59  0.444  0.444  0.545-
  60  0.444  0.778  0.545-
  61  0.778  0.111  0.545-
  62  0.778  0.444  0.545-
  63  0.778  0.778  0.545-
  64  0.278  0.278  0.079-
  65  0.278  0.611  0.079-
  66  0.278  0.944  0.079-
  67  0.611  0.278  0.079-
  68  0.611  0.611  0.079-
  69  0.611  0.944  0.079-
  70  0.944  0.278  0.079-
  71  0.944  0.611  0.079-
  72  0.944  0.944  0.079-
  73  0.389  0.389  0.157-
  74  0.389  0.722  0.157-
  75  0.389  0.056  0.157-
  76  0.722  0.389  0.157-
  77  0.722  0.722  0.157-
  78  0.722  0.056  0.157-
  79  0.056  0.389  0.157-
  80  0.056  0.722  0.157-
  81  0.056  0.056  0.157-
  82  0.500  0.500  0.234-
  83  0.500  0.833  0.234-
  84  0.500  0.167  0.234-
  85  0.833  0.500  0.234-
  86  0.833  0.833  0.234-
  87  0.833  0.167  0.234-
  88  0.167  0.500  0.234-
  89  0.167  0.833  0.234-
  90  0.167  0.167  0.234-
  91  0.611  0.611  0.312-
  92  0.611  0.944  0.312-
  93  0.611  0.278  0.312-
  94  0.944  0.611  0.312-
  95  0.944  0.944  0.312-
  96  0.944  0.278  0.312-
  97  0.278  0.611  0.312-
  98  0.278  0.944  0.312-
  99  0.278  0.278  0.312-
 100  0.722  0.722  0.390-
 101  0.722  0.056  0.390-
 102  0.722  0.389  0.390-
 103  0.056  0.722  0.390-
 104  0.056  0.056  0.390-
 105  0.056  0.389  0.390-
 106  0.389  0.722  0.390-
 107  0.389  0.056  0.390-
 108  0.389  0.389  0.390-
 109  0.833  0.833  0.466-
 110  0.833  0.167  0.466-
 111  0.833  0.500  0.466-
 112  0.167  0.833  0.466-
 113  0.167  0.167  0.466-
 114  0.167  0.500  0.466-
 115  0.500  0.833  0.466-
 116  0.500  0.167  0.466-
 117  0.500  0.500  0.466- 253 1.80
 118  0.944  0.944  0.545-
 119  0.944  0.278  0.545-
 120  0.944  0.611  0.545-
 121  0.278  0.944  0.545-
 122  0.278  0.278  0.545-
 123  0.278  0.611  0.545-
 124  0.611  0.944  0.545-
 125  0.611  0.278  0.545-
 126  0.611  0.611  0.545-
 127  0.278  0.444  0.079-
 128  0.278  0.778  0.079-
 129  0.278  0.111  0.079-
 130  0.611  0.444  0.079-
 131  0.611  0.778  0.079-
 132  0.611  0.111  0.079-
 133  0.944  0.444  0.079-
 134  0.944  0.778  0.079-
 135  0.944  0.111  0.079-
 136  0.389  0.556  0.157-
 137  0.389  0.889  0.157-
 138  0.389  0.222  0.157-
 139  0.722  0.556  0.157-
 140  0.722  0.889  0.157-
 141  0.722  0.222  0.157-
 142  0.056  0.556  0.157-
 143  0.056  0.889  0.157-
 144  0.056  0.222  0.157-
 145  0.500  0.667  0.234-
 146  0.500  0.000  0.234-
 147  0.500  0.333  0.234-
 148  0.833  0.667  0.234-
 149  0.833  0.000  0.234-
 150  0.833  0.333  0.234-
 151  0.167  0.667  0.234-
 152  0.167  0.000  0.234-
 153  0.167  0.333  0.234-
 154  0.611  0.778  0.312-
 155  0.611  0.111  0.312-
 156  0.611  0.444  0.312-
 157  0.944  0.778  0.312-
 158  0.944  0.111  0.312-
 159  0.944  0.444  0.312-
 160  0.278  0.778  0.312-
 161  0.278  0.111  0.312-
 162  0.278  0.444  0.312-
 163  0.722  0.889  0.390-
 164  0.722  0.222  0.390-
 165  0.722  0.556  0.390-
 166  0.056  0.889  0.390-
 167  0.056  0.222  0.390-
 168  0.056  0.556  0.390-
 169  0.389  0.889  0.390-
 170  0.389  0.222  0.390-
 171  0.389  0.556  0.390-
 172  0.833  0.000  0.466-
 173  0.833  0.333  0.466-
 174  0.833  0.667  0.466-
 175  0.167  0.000  0.466-
 176  0.167  0.333  0.466-
 177  0.167  0.667  0.466-
 178  0.500  0.000  0.466-
 179  0.500  0.333  0.466-
 180  0.500  0.667  0.466-
 181  0.944  0.111  0.545-
 182  0.944  0.444  0.545-
 183  0.944  0.778  0.545-
 184  0.278  0.111  0.545-
 185  0.278  0.444  0.545-
 186  0.278  0.778  0.545-
 187  0.611  0.111  0.545-
 188  0.611  0.444  0.545-
 189  0.611  0.778  0.545-
 190  0.444  0.278  0.079-
 191  0.444  0.611  0.079-
 192  0.444  0.944  0.079-
 193  0.778  0.278  0.079-
 194  0.778  0.611  0.079-
 195  0.778  0.944  0.079-
 196  0.111  0.278  0.079-
 197  0.111  0.611  0.079-
 198  0.111  0.944  0.079-
 199  0.556  0.389  0.157-
 200  0.556  0.722  0.157-
 201  0.556  0.056  0.157-
 202  0.889  0.389  0.157-
 203  0.889  0.722  0.157-
 204  0.889  0.056  0.157-
 205  0.222  0.389  0.157-
 206  0.222  0.722  0.157-
 207  0.222  0.056  0.157-
 208  0.667  0.500  0.234-
 209  0.667  0.833  0.234-
 210  0.667  0.167  0.234-
 211  0.000  0.500  0.234-
 212  0.000  0.833  0.234-
 213  0.000  0.167  0.234-
 214  0.333  0.500  0.234-
 215  0.333  0.833  0.234-
 216  0.333  0.167  0.234-
 217  0.778  0.611  0.312-
 218  0.778  0.944  0.312-
 219  0.778  0.278  0.312-
 220  0.111  0.611  0.312-
 221  0.111  0.944  0.312-
 222  0.111  0.278  0.312-
 223  0.444  0.611  0.312-
 224  0.444  0.944  0.312-
 225  0.444  0.278  0.312-
 226  0.889  0.722  0.390-
 227  0.889  0.056  0.390-
 228  0.889  0.389  0.390-
 229  0.222  0.722  0.390-
 230  0.222  0.056  0.390-
 231  0.222  0.389  0.390-
 232  0.556  0.722  0.390-
 233  0.556  0.056  0.390-
 234  0.556  0.389  0.390-
 235  0.000  0.833  0.466-
 236  0.000  0.167  0.466-
 237  0.000  0.500  0.466-
 238  0.333  0.833  0.466-
 239  0.333  0.167  0.466-
 240  0.333  0.500  0.466- 253 1.80
 241  0.667  0.833  0.466-
 242  0.667  0.167  0.466-
 243  0.667  0.500  0.466-
 244  0.111  0.944  0.545-
 245  0.111  0.278  0.545-
 246  0.111  0.611  0.545-
 247  0.444  0.944  0.545-
 248  0.444  0.278  0.545-
 249  0.444  0.611  0.545-
 250  0.778  0.944  0.545-
 251  0.778  0.278  0.545-
 252  0.778  0.611  0.545-
 253  0.389  0.556  0.490-  51 1.80 240 1.80 117 1.80
 
  LATTYP: Found a hexagonal cell.
 ALAT       =    17.1805734625
 C/A-ratio  =     1.7461582447
  
  Lattice vectors:
  
 A1 = (   0.0000000000,  -8.5902867312,  14.8788130701)
 A2 = (   0.0000000000,  17.1805734625,   0.0000000000)
 A3 = ( -30.0000000000,   0.0000000000,   0.0000000000)


Analysis of symmetry for initial positions (statically):
=====================================================================
 Subroutine PRICEL returns:
 Original cell was already a primitive cell.
 

 Routine SETGRP: Setting up the symmetry group for a 
 hexagonal supercell.


 Subroutine GETGRP returns: Found  6 space group operations
 (whereof  1 operations were pure point group operations)
 out of a pool of 24 trial point group operations.


The static configuration has the point symmetry C_1 .
 The point group associated with its full space group is C_3v.


Analysis of symmetry for dynamics (positions and initial velocities):
=====================================================================
 Subroutine PRICEL returns:
 Original cell was already a primitive cell.
 

 Routine SETGRP: Setting up the symmetry group for a 
 hexagonal supercell.


 Subroutine GETGRP returns: Found  6 space group operations
 (whereof  1 operations were pure point group operations)
 out of a pool of 24 trial point group operations.


The dynamic configuration has the point symmetry C_1 .
 The point group associated with its full space group is C_3v.


 Subroutine INISYM returns: Found  6 space group operations
 (whereof  1 operations are pure point group operations),
 and found     1 'primitive' translations

 
 
 KPOINTS: Automatic generation                    

Automatic generation of k-mesh.
Space group operators:
 irot       det(A)        alpha          n_x          n_y          n_z        tau_x        tau_y        tau_z
    1     1.000000     0.000000     1.000000     0.000000     0.000000     0.000000     0.000000     0.000000
    2     1.000000   120.000000     1.000000     0.000000     0.000000    -0.166667    -0.500000     0.000000
    3     1.000000   120.000000    -1.000000     0.000000     0.000000     0.333333    -0.833333     0.000000
    4    -1.000000   180.000000     0.000000    -0.500000     0.866025     0.833333    -0.833333     0.000000
    5    -1.000000   180.000000     0.000000     1.000000     0.000000    -0.666667     0.000000     0.000000
    6    -1.000000   180.000000     0.000000     0.500000     0.866025     0.000000    -0.500000     0.000000
 
 Subroutine IBZKPT returns following result:
 ===========================================
 
 Found      2 irreducible k-points:
 
 Following reciprocal coordinates:
            Coordinates               Weight
  0.000000  0.000000  0.000000      1.000000
  0.500000  0.000000  0.000000      3.000000
 
 Following cartesian coordinates:
            Coordinates               Weight
  0.000000  0.000000  0.000000      1.000000
  0.000000 -0.029103  0.016802      3.000000
 


--------------------------------------------------------------------------------------------------------




 Dimension of arrays:
   k-points           NKPTS =      2   k-points in BZ     NKDIM =      2   number of bands    NBANDS=    510
   number of dos      NEDOS =    301   number of ions     NIONS =    253
   non local maximal  LDIM  =      6   non local SUM 2l+1 LMDIM =     18
   total plane-waves  NPLWV = 819200
   max r-space proj   IRMAX =   4449   max aug-charges    IRDMAX=   4357
   dimension x,y,z NGX =    80 NGY =   80 NGZ =  128
   dimension x,y,z NGXF=   160 NGYF=  160 NGZF=  256
   support grid    NGXF=   160 NGYF=  160 NGZF=  256
   ions per type =             252   1
   NGX,Y,Z   is equivalent  to a cutoff of   7.74,  7.74,  7.09 a.u.
   NGXF,Y,Z  is equivalent  to a cutoff of  15.48, 15.48, 14.19 a.u.

 SYSTEM =  NiAl                                    
 POSCAR =  New structure                           

 Startparameter for this run:
   NWRITE =      2    write-flag & timer
   PREC   = normal    normal or accurate (medium, high low for compatibility)
   ISTART =      0    job   : 0-new  1-cont  2-samecut
   ICHARG =      2    charge: 1-file 2-atom 10-const
   ISPIN  =      1    spin polarized calculation?
   LNONCOLLINEAR =      F non collinear calculations
   LSORBIT =      F    spin-orbit coupling
   INIWAV =      1    electr: 0-lowe 1-rand  2-diag
   LASPH  =      F    aspherical Exc in radial PAW
   METAGGA=      F    non-selfconsistent MetaGGA calc.

 Electronic Relaxation 1
   ENCUT  =  300.0 eV  22.05 Ry    4.70 a.u.  24.26 24.26 42.37*2*pi/ulx,y,z
   ENINI  =  300.0     initial cutoff
   ENAUG  =  627.1 eV  augmentation charge cutoff
   NELM   =     60;   NELMIN=  6; NELMDL= -5     # of ELM steps 
   EDIFF  = 0.5E-05   stopping-criterion for ELM
   LREAL  =      T    real-space projection
   NLSPLINE    = F    spline interpolate recip. space projectors
   LCOMPAT=      F    compatible to vasp.4.4
   GGA_COMPAT  = T    GGA compatible to vasp.4.4-vasp.4.6
   LMAXPAW     = -100 max onsite density
   LMAXMIX     =    2 max onsite mixed and CHGCAR
   VOSKOWN=      0    Vosko Wilk Nusair interpolation
   ROPT   =   -0.00050  -0.00050
 Ionic relaxation
   EDIFFG = 0.5E-04   stopping-criterion for IOM
   NSW    =     40    number of steps for IOM
   NBLOCK =      1;   KBLOCK =     40    inner block; outer block 
   IBRION =      2    ionic relax: 0-MD 1-quasi-New 2-CG
   NFREE  =      1    steps in history (QN), initial steepest desc. (CG)
   ISIF   =      1    stress and relaxation
   IWAVPR =     11    prediction:  0-non 1-charg 2-wave 3-comb
   ISYM   =      2    0-nonsym 1-usesym 2-fastsym
   LCORR  =      T    Harris-Foulkes like correction to forces

   POTIM  = 0.2000    time-step for ionic-motion
   TEIN   =    0.0    initial temperature
   TEBEG  =    0.0;   TEEND  =   0.0 temperature during run
   SMASS  =  -3.00    Nose mass-parameter (am)
   estimated Nose-frequenzy (Omega)   =  0.10E-29 period in steps =****** mass=  -0.675E-26a.u.
   SCALEE = 1.0000    scale energy and forces
   NPACO  =    256;   APACO  = 16.0  distance and # of slots for P.C.
   PSTRESS=    0.0 pullay stress

  Mass of Ions in am
   POMASS =  26.98 14.00
  Ionic Valenz
   ZVAL   =   3.00  5.00
  Atomic Wigner-Seitz radii
   RWIGS  =  -1.00 -1.00
  virtual crystal weights 
   VCA    =   1.00  1.00
   NELECT =     761.0000    total number of electrons
   NUPDOWN=      -1.0000    fix difference up-down

 DOS related values:
   EMIN   =  10.00;   EMAX   =-10.00  energy-range for DOS
   EFERMI =   0.00
   ISMEAR =     0;   SIGMA  =   0.05  broadening in eV -4-tet -1-fermi 0-gaus

 Electronic relaxation 2 (details)
   IALGO  =     38    algorithm
   LDIAG  =      T    sub-space diagonalisation (order eigenvalues)
   LSUBROT=      F    optimize rotation matrix (better conditioning)
   TURBO    =      0    0=normal 1=particle mesh
   IRESTART =      0    0=no restart 2=restart with 2 vectors
   NREBOOT  =      0    no. of reboots
   NMIN     =      0    reboot dimension
   EREF     =   0.00    reference energy to select bands
   IMIX   =      4    mixing-type and parameters
     AMIX     =   0.40;   BMIX     =  1.00
     AMIX_MAG =   1.60;   BMIX_MAG =  1.00
     AMIN     =   0.10
     WC   =   100.;   INIMIX=   1;  MIXPRE=   1;  MAXMIX= -45

 Intra band minimization:
   WEIMIN = 0.0010     energy-eigenvalue tresh-hold
   EBREAK =  0.25E-08  absolut break condition
   DEPER  =   0.30     relativ break condition  

   TIME   =   0.40     timestep for ELM

  volume/ion in A,a.u.               =      30.31       204.55
  Fermi-wavevector in a.u.,A,eV,Ry     =   0.757927  1.432274  7.815910  0.574453
  Thomas-Fermi vector in A             =   1.856383
 
 Write flags
   LWAVE        =      F    write WAVECAR
   LDOWNSAMPLE  =      F    k-point downsampling of WAVECAR
   LCHARG       =      F    write CHGCAR
   LVTOT        =      F    write LOCPOT, total local potential
   LVHAR        =      F    write LOCPOT, Hartree potential only
   LELF         =      F    write electronic localiz. function (ELF)
   LORBIT       =      0    0 simple, 1 ext, 2 COOP (PROOUT), +10 PAW based schemes


 Dipole corrections
   LMONO  =      F    monopole corrections only (constant potential shift)
   LDIPOL =      F    correct potential (dipole corrections)
   IDIPOL =      0    1-x, 2-y, 3-z, 4-all directions 
   EPSILON=  1.0000000 bulk dielectric constant

 Exchange correlation treatment:
   GGA     =    --    GGA type
   LEXCH   =     8    internal setting for exchange type
   VOSKOWN=      0    Vosko Wilk Nusair interpolation
   LHFCALC =     F    Hartree Fock is set to
   LHFONE  =     F    Hartree Fock one center treatment
   AEXX    =    0.0000 exact exchange contribution

 Linear response parameters
   LEPSILON=     F    determine dielectric tensor
   LRPA    =     F    only Hartree local field effects (RPA)
   LNABLA  =     F    use nabla operator in PAW spheres
   LVEL    =     F    velocity operator in full k-point grid
   LINTERFAST=   F  fast interpolation
   KINTER  =     0    interpolate to denser k-point grid
   CSHIFT  =0.1000    complex shift for real part using Kramers Kronig
   OMEGAMAX=  -1.0    maximum frequency
   DEG_THRESHOLD= 0.2000000E-02 threshold for treating states as degnerate
   RTIME   =   -0.100 relaxation time in fs
  (WPLASMAI=    0.000 imaginary part of plasma frequency in eV, 0.658/RTIME)
   DFIELD  = 0.0000000 0.0000000 0.0000000 field for delta impulse in time
 
 Orbital magnetization related:
   ORBITALMAG=     F  switch on orbital magnetization
   LCHIMAG   =     F  perturbation theory with respect to B field
   DQ        =  0.001000  dq finite difference perturbation B field
   LLRAUG    =     F  two centre corrections for induced B field



--------------------------------------------------------------------------------------------------------


 conjugate gradient relaxation of ions
 charge density and potential will be updated during run
 non-spin polarized calculation
 Variant of blocked Davidson
 Davidson routine will perform the subspace rotation
 perform sub-space diagonalisation
    after iterative eigenvector-optimisation
 modified Broyden-mixing scheme, WC =      100.0
 initial mixing is a Kerker type mixing with AMIX =  0.4000 and BMIX =      1.0000
 Hartree-type preconditioning will be used
 using additional bands          129
 real space projection scheme for non local part
 use partial core corrections
 calculate Harris-corrections to forces 
   (improved forces if not selfconsistent)
 use gradient corrections 
 use of overlap-Matrix (Vanderbilt PP)
 Gauss-broadening in eV      SIGMA  =   0.05


--------------------------------------------------------------------------------------------------------


  energy-cutoff  :      300.00
  volume of cell :     7668.80
      direct lattice vectors                 reciprocal lattice vectors
     0.000000000-17.180573462  0.000000000     0.000000000 -0.058205275  0.033604831
     0.000000000 -8.590286731-14.878813070     0.000000000  0.000000000 -0.067209662
    30.000000000  0.000000000  0.000000000     0.033333333  0.000000000  0.000000000

  length of vectors
    17.180573462 17.180573462 30.000000000     0.067209662  0.067209662  0.033333333


 
 k-points in units of 2pi/SCALE and weight: Automatic generation                    
   0.00000000  0.00000000  0.00000000       0.250
   0.00000000 -0.02910264  0.01680242       0.750
 
 k-points in reciprocal lattice and weights: Automatic generation                    
   0.00000000  0.00000000  0.00000000       0.250
   0.50000000  0.00000000  0.00000000       0.750
 
 position of ions in fractional coordinates (direct lattice) 
   0.44444444  0.44444444  0.07873473
   0.44444444  0.77777778  0.07873473
   0.44444444  0.11111111  0.07873473
   0.77777778  0.44444444  0.07873473
   0.77777778  0.77777778  0.07873473
   0.77777778  0.11111111  0.07873473
   0.11111111  0.44444444  0.07873473
   0.11111111  0.77777778  0.07873473
   0.11111111  0.11111111  0.07873473
   0.55555556  0.55555556  0.15702584
   0.55555556  0.88888889  0.15702584
   0.55555556  0.22222222  0.15702584
   0.88888889  0.55555556  0.15702584
   0.88888889  0.88888889  0.15702584
   0.88888889  0.22222222  0.15702584
   0.22222222  0.55555556  0.15702584
   0.22222222  0.88888889  0.15702584
   0.22222222  0.22222222  0.15702584
   0.66666667  0.66666667  0.23375740
   0.66666667  0.00000000  0.23375740
   0.66666667  0.33333333  0.23375740
   0.00000000  0.66666667  0.23375740
   0.00000000  0.00000000  0.23375740
   0.00000000  0.33333333  0.23375740
   0.33333333  0.66666667  0.23375740
   0.33333333  0.00000000  0.23375740
   0.33333333  0.33333333  0.23375740
   0.77777778  0.77777778  0.31173066
   0.77777778  0.11111111  0.31173066
   0.77777778  0.44444444  0.31173066
   0.11111111  0.77777778  0.31173066
   0.11111111  0.11111111  0.31173066
   0.11111111  0.44444444  0.31173066
   0.44444444  0.77777778  0.31173066
   0.44444444  0.11111111  0.31173066
   0.44444444  0.44444444  0.31173066
   0.88888889  0.88888889  0.38970391
   0.88888889  0.22222222  0.38970391
   0.88888889  0.55555556  0.38970391
   0.22222222  0.88888889  0.38970391
   0.22222222  0.22222222  0.38970391
   0.22222222  0.55555556  0.38970391
   0.55555556  0.88888889  0.38970391
   0.55555556  0.22222222  0.38970391
   0.55555556  0.55555556  0.38970391
   0.00000000  0.00000000  0.46643547
   0.00000000  0.33333333  0.46643547
   0.00000000  0.66666667  0.46643547
   0.33333333  0.00000000  0.46643547
   0.33333333  0.33333333  0.46643547
   0.33333333  0.66666667  0.46643547
   0.66666667  0.00000000  0.46643547
   0.66666667  0.33333333  0.46643547
   0.66666667  0.66666667  0.46643547
   0.11111111  0.11111111  0.54472658
   0.11111111  0.44444444  0.54472658
   0.11111111  0.77777778  0.54472658
   0.44444444  0.11111111  0.54472658
   0.44444444  0.44444444  0.54472658
   0.44444444  0.77777778  0.54472658
   0.77777778  0.11111111  0.54472658
   0.77777778  0.44444444  0.54472658
   0.77777778  0.77777778  0.54472658
   0.27777778  0.27777778  0.07873473
   0.27777778  0.61111111  0.07873473
   0.27777778  0.94444444  0.07873473
   0.61111111  0.27777778  0.07873473
   0.61111111  0.61111111  0.07873473
   0.61111111  0.94444444  0.07873473
   0.94444444  0.27777778  0.07873473
   0.94444444  0.61111111  0.07873473
   0.94444444  0.94444444  0.07873473
   0.38888889  0.38888889  0.15702584
   0.38888889  0.72222222  0.15702584
   0.38888889  0.05555556  0.15702584
   0.72222222  0.38888889  0.15702584
   0.72222222  0.72222222  0.15702584
   0.72222222  0.05555556  0.15702584
   0.05555556  0.38888889  0.15702584
   0.05555556  0.72222222  0.15702584
   0.05555556  0.05555556  0.15702584
   0.50000000  0.50000000  0.23375740
   0.50000000  0.83333333  0.23375740
   0.50000000  0.16666667  0.23375740
   0.83333333  0.50000000  0.23375740
   0.83333333  0.83333333  0.23375740
   0.83333333  0.16666667  0.23375740
   0.16666667  0.50000000  0.23375740
   0.16666667  0.83333333  0.23375740
   0.16666667  0.16666667  0.23375740
   0.61111111  0.61111111  0.31173066
   0.61111111  0.94444444  0.31173066
   0.61111111  0.27777778  0.31173066
   0.94444444  0.61111111  0.31173066
   0.94444444  0.94444444  0.31173066
   0.94444444  0.27777778  0.31173066
   0.27777778  0.61111111  0.31173066
   0.27777778  0.94444444  0.31173066
   0.27777778  0.27777778  0.31173066
   0.72222222  0.72222222  0.38970391
   0.72222222  0.05555556  0.38970391
   0.72222222  0.38888889  0.38970391
   0.05555556  0.72222222  0.38970391
   0.05555556  0.05555556  0.38970391
   0.05555556  0.38888889  0.38970391
   0.38888889  0.72222222  0.38970391
   0.38888889  0.05555556  0.38970391
   0.38888889  0.38888889  0.38970391
   0.83333333  0.83333333  0.46643547
   0.83333333  0.16666667  0.46643547
   0.83333333  0.50000000  0.46643547
   0.16666667  0.83333333  0.46643547
   0.16666667  0.16666667  0.46643547
   0.16666667  0.50000000  0.46643547
   0.50000000  0.83333333  0.46643547
   0.50000000  0.16666667  0.46643547
   0.50000000  0.50000000  0.46643547
   0.94444444  0.94444444  0.54472658
   0.94444444  0.27777778  0.54472658
   0.94444444  0.61111111  0.54472658
   0.27777778  0.94444444  0.54472658
   0.27777778  0.27777778  0.54472658
   0.27777778  0.61111111  0.54472658
   0.61111111  0.94444444  0.54472658
   0.61111111  0.27777778  0.54472658
   0.61111111  0.61111111  0.54472658
   0.27777778  0.44444444  0.07873473
   0.27777778  0.77777778  0.07873473
   0.27777778  0.11111111  0.07873473
   0.61111111  0.44444444  0.07873473
   0.61111111  0.77777778  0.07873473
   0.61111111  0.11111111  0.07873473
   0.94444444  0.44444444  0.07873473
   0.94444444  0.77777778  0.07873473
   0.94444444  0.11111111  0.07873473
   0.38888889  0.55555556  0.15702584
   0.38888889  0.88888889  0.15702584
   0.38888889  0.22222222  0.15702584
   0.72222222  0.55555556  0.15702584
   0.72222222  0.88888889  0.15702584
   0.72222222  0.22222222  0.15702584
   0.05555556  0.55555556  0.15702584
   0.05555556  0.88888889  0.15702584
   0.05555556  0.22222222  0.15702584
   0.50000000  0.66666667  0.23375740
   0.50000000  0.00000000  0.23375740
   0.50000000  0.33333333  0.23375740
   0.83333333  0.66666667  0.23375740
   0.83333333  0.00000000  0.23375740
   0.83333333  0.33333333  0.23375740
   0.16666667  0.66666667  0.23375740
   0.16666667  0.00000000  0.23375740
   0.16666667  0.33333333  0.23375740
   0.61111111  0.77777778  0.31173066
   0.61111111  0.11111111  0.31173066
   0.61111111  0.44444444  0.31173066
   0.94444444  0.77777778  0.31173066
   0.94444444  0.11111111  0.31173066
   0.94444444  0.44444444  0.31173066
   0.27777778  0.77777778  0.31173066
   0.27777778  0.11111111  0.31173066
   0.27777778  0.44444444  0.31173066
   0.72222222  0.88888889  0.38970391
   0.72222222  0.22222222  0.38970391
   0.72222222  0.55555556  0.38970391
   0.05555556  0.88888889  0.38970391
   0.05555556  0.22222222  0.38970391
   0.05555556  0.55555556  0.38970391
   0.38888889  0.88888889  0.38970391
   0.38888889  0.22222222  0.38970391
   0.38888889  0.55555556  0.38970391
   0.83333333  0.00000000  0.46643547
   0.83333333  0.33333333  0.46643547
   0.83333333  0.66666667  0.46643547
   0.16666667  0.00000000  0.46643547
   0.16666667  0.33333333  0.46643547
   0.16666667  0.66666667  0.46643547
   0.50000000  0.00000000  0.46643547
   0.50000000  0.33333333  0.46643547
   0.50000000  0.66666667  0.46643547
   0.94444444  0.11111111  0.54472658
   0.94444444  0.44444444  0.54472658
   0.94444444  0.77777778  0.54472658
   0.27777778  0.11111111  0.54472658
   0.27777778  0.44444444  0.54472658
   0.27777778  0.77777778  0.54472658
   0.61111111  0.11111111  0.54472658
   0.61111111  0.44444444  0.54472658
   0.61111111  0.77777778  0.54472658
   0.44444444  0.27777778  0.07873473
   0.44444444  0.61111111  0.07873473
   0.44444444  0.94444444  0.07873473
   0.77777778  0.27777778  0.07873473
   0.77777778  0.61111111  0.07873473
   0.77777778  0.94444444  0.07873473
   0.11111111  0.27777778  0.07873473
   0.11111111  0.61111111  0.07873473
   0.11111111  0.94444444  0.07873473
   0.55555556  0.38888889  0.15702584
   0.55555556  0.72222222  0.15702584
   0.55555556  0.05555556  0.15702584
   0.88888889  0.38888889  0.15702584
   0.88888889  0.72222222  0.15702584
   0.88888889  0.05555556  0.15702584
   0.22222222  0.38888889  0.15702584
   0.22222222  0.72222222  0.15702584
   0.22222222  0.05555556  0.15702584
   0.66666667  0.50000000  0.23375740
   0.66666667  0.83333333  0.23375740
   0.66666667  0.16666667  0.23375740
   0.00000000  0.50000000  0.23375740
   0.00000000  0.83333333  0.23375740
   0.00000000  0.16666667  0.23375740
   0.33333333  0.50000000  0.23375740
   0.33333333  0.83333333  0.23375740
   0.33333333  0.16666667  0.23375740
   0.77777778  0.61111111  0.31173066
   0.77777778  0.94444444  0.31173066
   0.77777778  0.27777778  0.31173066
   0.11111111  0.61111111  0.31173066
   0.11111111  0.94444444  0.31173066
   0.11111111  0.27777778  0.31173066
   0.44444444  0.61111111  0.31173066
   0.44444444  0.94444444  0.31173066
   0.44444444  0.27777778  0.31173066
   0.88888889  0.72222222  0.38970391
   0.88888889  0.05555556  0.38970391
   0.88888889  0.38888889  0.38970391
   0.22222222  0.72222222  0.38970391
   0.22222222  0.05555556  0.38970391
   0.22222222  0.38888889  0.38970391
   0.55555556  0.72222222  0.38970391
   0.55555556  0.05555556  0.38970391
   0.55555556  0.38888889  0.38970391
   0.00000000  0.83333333  0.46643547
   0.00000000  0.16666667  0.46643547
   0.00000000  0.50000000  0.46643547
   0.33333333  0.83333333  0.46643547
   0.33333333  0.16666667  0.46643547
   0.33333333  0.50000000  0.46643547
   0.66666667  0.83333333  0.46643547
   0.66666667  0.16666667  0.46643547
   0.66666667  0.50000000  0.46643547
   0.11111111  0.94444444  0.54472658
   0.11111111  0.27777778  0.54472658
   0.11111111  0.61111111  0.54472658
   0.44444444  0.94444444  0.54472658
   0.44444444  0.27777778  0.54472658
   0.44444444  0.61111111  0.54472658
   0.77777778  0.94444444  0.54472658
   0.77777778  0.27777778  0.54472658
   0.77777778  0.61111111  0.54472658
   0.38888889  0.55555556  0.49000000
 
 position of ions in cartesian coordinates  (Angst):
   2.36204189-11.45371564 -6.61280581
   2.36204189-14.31714455-11.57241017
   2.36204189 -8.59028673 -1.65320145
   2.36204189-17.18057346 -6.61280581
   2.36204189-20.04400237-11.57241017
   2.36204189-14.31714455 -1.65320145
   2.36204189 -5.72685782 -6.61280581
   2.36204189 -8.59028673-11.57241017
   2.36204189 -2.86342891 -1.65320145
   4.71077531-14.31714455 -8.26600726
   4.71077531-17.18057346-13.22561162
   4.71077531-11.45371564 -3.30640290
   4.71077531-20.04400237 -8.26600726
   4.71077531-22.90743128-13.22561162
   4.71077531-17.18057346 -3.30640290
   4.71077531 -8.59028673 -8.26600726
   4.71077531-11.45371564-13.22561162
   4.71077531 -5.72685782 -3.30640290
   7.01272198-17.18057346 -9.91920871
   7.01272198-11.45371564  0.00000000
   7.01272198-14.31714455 -4.95960436
   7.01272198 -5.72685782 -9.91920871
   7.01272198  0.00000000  0.00000000
   7.01272198 -2.86342891 -4.95960436
   7.01272198-11.45371564 -9.91920871
   7.01272198 -5.72685782  0.00000000
   7.01272198 -8.59028673 -4.95960436
   9.35191966-20.04400237-11.57241017
   9.35191966-14.31714455 -1.65320145
   9.35191966-17.18057346 -6.61280581
   9.35191966 -8.59028673-11.57241017
   9.35191966 -2.86342891 -1.65320145
   9.35191966 -5.72685782 -6.61280581
   9.35191966-14.31714455-11.57241017
   9.35191966 -8.59028673 -1.65320145
   9.35191966-11.45371564 -6.61280581
  11.69111734-22.90743128-13.22561162
  11.69111734-17.18057346 -3.30640290
  11.69111734-20.04400237 -8.26600726
  11.69111734-11.45371564-13.22561162
  11.69111734 -5.72685782 -3.30640290
  11.69111734 -8.59028673 -8.26600726
  11.69111734-17.18057346-13.22561162
  11.69111734-11.45371564 -3.30640290
  11.69111734-14.31714455 -8.26600726
  13.99306401  0.00000000  0.00000000
  13.99306401 -2.86342891 -4.95960436
  13.99306401 -5.72685782 -9.91920871
  13.99306401 -5.72685782  0.00000000
  13.99306401 -8.59028673 -4.95960436
  13.99306401-11.45371564 -9.91920871
  13.99306401-11.45371564  0.00000000
  13.99306401-14.31714455 -4.95960436
  13.99306401-17.18057346 -9.91920871
  16.34179743 -2.86342891 -1.65320145
  16.34179743 -5.72685782 -6.61280581
  16.34179743 -8.59028673-11.57241017
  16.34179743 -8.59028673 -1.65320145
  16.34179743-11.45371564 -6.61280581
  16.34179743-14.31714455-11.57241017
  16.34179743-14.31714455 -1.65320145
  16.34179743-17.18057346 -6.61280581
  16.34179743-20.04400237-11.57241017
   2.36204189 -7.15857228 -4.13300363
   2.36204189-10.02200119 -9.09260799
   2.36204189-12.88543010-14.05221234
   2.36204189-12.88543010 -4.13300363
   2.36204189-15.74885901 -9.09260799
   2.36204189-18.61228792-14.05221234
   2.36204189-18.61228792 -4.13300363
   2.36204189-21.47571683 -9.09260799
   2.36204189-24.33914574-14.05221234
   4.71077531-10.02200119 -5.78620508
   4.71077531-12.88543010-10.74580944
   4.71077531 -7.15857228 -0.82660073
   4.71077531-15.74885901 -5.78620508
   4.71077531-18.61228792-10.74580944
   4.71077531-12.88543010 -0.82660073
   4.71077531 -4.29514337 -5.78620508
   4.71077531 -7.15857228-10.74580944
   4.71077531 -1.43171446 -0.82660073
   7.01272198-12.88543010 -7.43940654
   7.01272198-15.74885901-12.39901089
   7.01272198-10.02200119 -2.47980218
   7.01272198-18.61228792 -7.43940654
   7.01272198-21.47571683-12.39901089
   7.01272198-15.74885901 -2.47980218
   7.01272198 -7.15857228 -7.43940654
   7.01272198-10.02200119-12.39901089
   7.01272198 -4.29514337 -2.47980218
   9.35191966-15.74885901 -9.09260799
   9.35191966-18.61228792-14.05221234
   9.35191966-12.88543010 -4.13300363
   9.35191966-21.47571683 -9.09260799
   9.35191966-24.33914574-14.05221234
   9.35191966-18.61228792 -4.13300363
   9.35191966-10.02200119 -9.09260799
   9.35191966-12.88543010-14.05221234
   9.35191966 -7.15857228 -4.13300363
  11.69111734-18.61228792-10.74580944
  11.69111734-12.88543010 -0.82660073
  11.69111734-15.74885901 -5.78620508
  11.69111734 -7.15857228-10.74580944
  11.69111734 -1.43171446 -0.82660073
  11.69111734 -4.29514337 -5.78620508
  11.69111734-12.88543010-10.74580944
  11.69111734 -7.15857228 -0.82660073
  11.69111734-10.02200119 -5.78620508
  13.99306401-21.47571683-12.39901089
  13.99306401-15.74885901 -2.47980218
  13.99306401-18.61228792 -7.43940654
  13.99306401-10.02200119-12.39901089
  13.99306401 -4.29514337 -2.47980218
  13.99306401 -7.15857228 -7.43940654
  13.99306401-15.74885901-12.39901089
  13.99306401-10.02200119 -2.47980218
  13.99306401-12.88543010 -7.43940654
  16.34179743-24.33914574-14.05221234
  16.34179743-18.61228792 -4.13300363
  16.34179743-21.47571683 -9.09260799
  16.34179743-12.88543010-14.05221234
  16.34179743 -7.15857228 -4.13300363
  16.34179743-10.02200119 -9.09260799
  16.34179743-18.61228792-14.05221234
  16.34179743-12.88543010 -4.13300363
  16.34179743-15.74885901 -9.09260799
   2.36204189 -8.59028673 -6.61280581
   2.36204189-11.45371564-11.57241017
   2.36204189 -5.72685782 -1.65320145
   2.36204189-14.31714455 -6.61280581
   2.36204189-17.18057346-11.57241017
   2.36204189-11.45371564 -1.65320145
   2.36204189-20.04400237 -6.61280581
   2.36204189-22.90743128-11.57241017
   2.36204189-17.18057346 -1.65320145
   4.71077531-11.45371564 -8.26600726
   4.71077531-14.31714455-13.22561162
   4.71077531 -8.59028673 -3.30640290
   4.71077531-17.18057346 -8.26600726
   4.71077531-20.04400237-13.22561162
   4.71077531-14.31714455 -3.30640290
   4.71077531 -5.72685782 -8.26600726
   4.71077531 -8.59028673-13.22561162
   4.71077531 -2.86342891 -3.30640290
   7.01272198-14.31714455 -9.91920871
   7.01272198 -8.59028673  0.00000000
   7.01272198-11.45371564 -4.95960436
   7.01272198-20.04400237 -9.91920871
   7.01272198-14.31714455  0.00000000
   7.01272198-17.18057346 -4.95960436
   7.01272198 -8.59028673 -9.91920871
   7.01272198 -2.86342891  0.00000000
   7.01272198 -5.72685782 -4.95960436
   9.35191966-17.18057346-11.57241017
   9.35191966-11.45371564 -1.65320145
   9.35191966-14.31714455 -6.61280581
   9.35191966-22.90743128-11.57241017
   9.35191966-17.18057346 -1.65320145
   9.35191966-20.04400237 -6.61280581
   9.35191966-11.45371564-11.57241017
   9.35191966 -5.72685782 -1.65320145
   9.35191966 -8.59028673 -6.61280581
  11.69111734-20.04400237-13.22561162
  11.69111734-14.31714455 -3.30640290
  11.69111734-17.18057346 -8.26600726
  11.69111734 -8.59028673-13.22561162
  11.69111734 -2.86342891 -3.30640290
  11.69111734 -5.72685782 -8.26600726
  11.69111734-14.31714455-13.22561162
  11.69111734 -8.59028673 -3.30640290
  11.69111734-11.45371564 -8.26600726
  13.99306401-14.31714455  0.00000000
  13.99306401-17.18057346 -4.95960436
  13.99306401-20.04400237 -9.91920871
  13.99306401 -2.86342891  0.00000000
  13.99306401 -5.72685782 -4.95960436
  13.99306401 -8.59028673 -9.91920871
  13.99306401 -8.59028673  0.00000000
  13.99306401-11.45371564 -4.95960436
  13.99306401-14.31714455 -9.91920871
  16.34179743-17.18057346 -1.65320145
  16.34179743-20.04400237 -6.61280581
  16.34179743-22.90743128-11.57241017
  16.34179743 -5.72685782 -1.65320145
  16.34179743 -8.59028673 -6.61280581
  16.34179743-11.45371564-11.57241017
  16.34179743-11.45371564 -1.65320145
  16.34179743-14.31714455 -6.61280581
  16.34179743-17.18057346-11.57241017
   2.36204189-10.02200119 -4.13300363
   2.36204189-12.88543010 -9.09260799
   2.36204189-15.74885901-14.05221234
   2.36204189-15.74885901 -4.13300363
   2.36204189-18.61228792 -9.09260799
   2.36204189-21.47571683-14.05221234
   2.36204189 -4.29514337 -4.13300363
   2.36204189 -7.15857228 -9.09260799
   2.36204189-10.02200119-14.05221234
   4.71077531-12.88543010 -5.78620508
   4.71077531-15.74885901-10.74580944
   4.71077531-10.02200119 -0.82660073
   4.71077531-18.61228792 -5.78620508
   4.71077531-21.47571683-10.74580944
   4.71077531-15.74885901 -0.82660073
   4.71077531 -7.15857228 -5.78620508
   4.71077531-10.02200119-10.74580944
   4.71077531 -4.29514337 -0.82660073
   7.01272198-15.74885901 -7.43940654
   7.01272198-18.61228792-12.39901089
   7.01272198-12.88543010 -2.47980218
   7.01272198 -4.29514337 -7.43940654
   7.01272198 -7.15857228-12.39901089
   7.01272198 -1.43171446 -2.47980218
   7.01272198-10.02200119 -7.43940654
   7.01272198-12.88543010-12.39901089
   7.01272198 -7.15857228 -2.47980218
   9.35191966-18.61228792 -9.09260799
   9.35191966-21.47571683-14.05221234
   9.35191966-15.74885901 -4.13300363
   9.35191966 -7.15857228 -9.09260799
   9.35191966-10.02200119-14.05221234
   9.35191966 -4.29514337 -4.13300363
   9.35191966-12.88543010 -9.09260799
   9.35191966-15.74885901-14.05221234
   9.35191966-10.02200119 -4.13300363
  11.69111734-21.47571683-10.74580944
  11.69111734-15.74885901 -0.82660073
  11.69111734-18.61228792 -5.78620508
  11.69111734-10.02200119-10.74580944
  11.69111734 -4.29514337 -0.82660073
  11.69111734 -7.15857228 -5.78620508
  11.69111734-15.74885901-10.74580944
  11.69111734-10.02200119 -0.82660073
  11.69111734-12.88543010 -5.78620508
  13.99306401 -7.15857228-12.39901089
  13.99306401 -1.43171446 -2.47980218
  13.99306401 -4.29514337 -7.43940654
  13.99306401-12.88543010-12.39901089
  13.99306401 -7.15857228 -2.47980218
  13.99306401-10.02200119 -7.43940654
  13.99306401-18.61228792-12.39901089
  13.99306401-12.88543010 -2.47980218
  13.99306401-15.74885901 -7.43940654
  16.34179743-10.02200119-14.05221234
  16.34179743 -4.29514337 -4.13300363
  16.34179743 -7.15857228 -9.09260799
  16.34179743-15.74885901-14.05221234
  16.34179743-10.02200119 -4.13300363
  16.34179743-12.88543010 -9.09260799
  16.34179743-21.47571683-14.05221234
  16.34179743-15.74885901 -4.13300363
  16.34179743-18.61228792 -9.09260799
  14.70000000-11.45371564 -8.26600726
 


--------------------------------------------------------------------------------------------------------


 k-point  1 :   0.0000 0.0000 0.0000  plane waves:   90499
 k-point  2 :   0.5000 0.0000 0.0000  plane waves:   90530

 maximum and minimum number of plane-waves per node :     90530    90499

 maximum number of plane-waves:     90530
 maximum index in each direction: 
   IXMAX=   24   IYMAX=   24   IZMAX=   42
   IXMIN=  -24   IYMIN=  -24   IZMIN=  -42


 serial   3D FFT for wavefunctions
 parallel 3D FFT for charge:
    minimum data exchange during FFTs selected (reduces bandwidth)


 total amount of memory used by VASP MPI-rank0   517844. kBytes
=======================================================================

   base      :      30000. kBytes
   nonlr-proj:      89539. kBytes
   fftplans  :      40601. kBytes
   grid      :      95147. kBytes
   one-center:       3934. kBytes
   wavefun   :     258623. kBytes
 
     INWAV:  cpu time    0.0001: real time    0.0002
 Broyden mixing: mesh for mixing (old mesh)
   NGX = 49   NGY = 49   NGZ = 85
  (NGX  =160   NGY  =160   NGZ  =256)
  gives a total of 204085 points

 initial charge density was supplied:
 charge density of overlapping atoms calculated
 number of electron     761.0000000 magnetization 
 keeping initial charge density in first step


--------------------------------------------------------------------------------------------------------


 Maximum index for non-local projection operator         4274
 Maximum index for augmentation-charges          758 (set IRDMAX)


--------------------------------------------------------------------------------------------------------


 First call to EWALD:  gamma=   0.090
 Maximum number of real-space cells 3x 3x 2
 Maximum number of reciprocal cells 2x 2x 4

    FEWALD:  cpu time    0.0347: real time    0.0347


----------------------------------------- Iteration    1(   1)  ---------------------------------------


    POTLOK:  cpu time    0.8209: real time    0.8792
    SETDIJ:  cpu time    0.1059: real time    0.1091
     EDDAV:  cpu time   12.0744: real time   13.9322
       DOS:  cpu time    0.0011: real time    0.0069
    --------------------------------------------
      LOOP:  cpu time   13.0052: real time   14.9449

 eigenvalue-minimisations  :  2040
 total energy-change (2. order) : 0.2171364E+04  (-0.1822232E+05)
 number of electron     761.0000000 magnetization 
 augmentation part      761.0000000 magnetization 

 Free energy of the ion-electron system (eV)
  ---------------------------------------------------
  alpha Z        PSCENC =       499.79343438
  Ewald energy   TEWEN  =     90688.85550208
  -Hartree energ DENC   =   -104466.86271057
  -exchange      EXHF   =         0.00000000
  -V(xc)+E(xc)   XCENC  =     -6623.02222877
  PAW double counting   =     16887.37234019    -8836.02014662
  entropy T*S    EENTRO =        -0.07189756
  eigenvalues    EBANDS =       265.97847246
  atomic energy  EATOM  =     13755.34161216
  Solvation  Ediel_sol  =         0.00000000
  ---------------------------------------------------
  free energy    TOTEN  =      2171.36437776 eV

  energy without entropy =     2171.43627532  energy(sigma->0) =     2171.40032654


--------------------------------------------------------------------------------------------------------




----------------------------------------- Iteration    1(   2)  ---------------------------------------


     EDDAV:  cpu time   15.4103: real time   17.5379
       DOS:  cpu time    0.0036: real time    0.0036
    --------------------------------------------
      LOOP:  cpu time   15.4152: real time   17.5503

 eigenvalue-minimisations  :  2808
 total energy-change (2. order) :-0.2907052E+04  (-0.2750212E+04)
 number of electron     761.0000000 magnetization 
 augmentation part      761.0000000 magnetization 

 Free energy of the ion-electron system (eV)
  ---------------------------------------------------
  alpha Z        PSCENC =       499.79343438
  Ewald energy   TEWEN  =     90688.85550208
  -Hartree energ DENC   =   -104466.86271057
  -exchange      EXHF   =         0.00000000
  -V(xc)+E(xc)   XCENC  =     -6623.02222877
  PAW double counting   =     16887.37234019    -8836.02014662
  entropy T*S    EENTRO =        -0.11679999
  eigenvalues    EBANDS =     -2641.02853154
  atomic energy  EATOM  =     13755.34161216
  Solvation  Ediel_sol  =         0.00000000
  ---------------------------------------------------
  free energy    TOTEN  =      -735.68752868 eV

  energy without entropy =     -735.57072869  energy(sigma->0) =     -735.62912868


--------------------------------------------------------------------------------------------------------




----------------------------------------- Iteration    1(   3)  ---------------------------------------


     EDDAV:  cpu time   16.3727: real time   18.6560
       DOS:  cpu time    0.0010: real time    0.0010
    --------------------------------------------
      LOOP:  cpu time   16.3749: real time   18.6608

 eigenvalue-minimisations  :  3048
 total energy-change (2. order) :-0.2119664E+03  (-0.2031000E+03)
 number of electron     761.0000000 magnetization 
 augmentation part      761.0000000 magnetization 

 Free energy of the ion-electron system (eV)
  ---------------------------------------------------
  alpha Z        PSCENC =       499.79343438
  Ewald energy   TEWEN  =     90688.85550208
  -Hartree energ DENC   =   -104466.86271057
  -exchange      EXHF   =         0.00000000
  -V(xc)+E(xc)   XCENC  =     -6623.02222877
  PAW double counting   =     16887.37234019    -8836.02014662
  entropy T*S    EENTRO =        -0.20508834
  eigenvalues    EBANDS =     -2852.90667617
  atomic energy  EATOM  =     13755.34161216
  Solvation  Ediel_sol  =         0.00000000
  ---------------------------------------------------
  free energy    TOTEN  =      -947.65396166 eV

  energy without entropy =     -947.44887332  energy(sigma->0) =     -947.55141749


--------------------------------------------------------------------------------------------------------




----------------------------------------- Iteration    1(   4)  ---------------------------------------


     EDDAV:  cpu time   16.8648: real time   19.1911
       DOS:  cpu time    0.0021: real time    0.0021
    --------------------------------------------
      LOOP:  cpu time   16.8680: real time   19.1955

 eigenvalue-minimisations  :  3156
 total energy-change (2. order) :-0.9782870E+01  (-0.9598001E+01)
 number of electron     761.0000000 magnetization 
 augmentation part      761.0000000 magnetization 

 Free energy of the ion-electron system (eV)
  ---------------------------------------------------
  alpha Z        PSCENC =       499.79343438
  Ewald energy   TEWEN  =     90688.85550208
  -Hartree energ DENC   =   -104466.86271057
  -exchange      EXHF   =         0.00000000
  -V(xc)+E(xc)   XCENC  =     -6623.02222877
  PAW double counting   =     16887.37234019    -8836.02014662
  entropy T*S    EENTRO =        -0.21868865
  eigenvalues    EBANDS =     -2862.67594571
  atomic energy  EATOM  =     13755.34161216
  Solvation  Ediel_sol  =         0.00000000
  ---------------------------------------------------
  free energy    TOTEN  =      -957.43683151 eV

  energy without entropy =     -957.21814286  energy(sigma->0) =     -957.32748718


--------------------------------------------------------------------------------------------------------




----------------------------------------- Iteration    1(   5)  ---------------------------------------


     EDDAV:  cpu time   16.3028: real time   18.6115
       DOS:  cpu time    0.0010: real time    0.0010
    CHARGE:  cpu time    1.1958: real time    1.2429
    MIXING:  cpu time    0.0260: real time    0.0261
    --------------------------------------------
      LOOP:  cpu time   17.5269: real time   19.8842

 eigenvalue-minimisations  :  3036
 total energy-change (2. order) :-0.3055455E+00  (-0.3038003E+00)
 number of electron     760.9999984 magnetization 
 augmentation part       -9.9303071 magnetization 

 Broyden mixing:
  rms(total) = 0.20036E+01    rms(broyden)= 0.20035E+01
  rms(prec ) = 0.27369E+01
  weight for this iteration     100.00

 Free energy of the ion-electron system (eV)
  ---------------------------------------------------
  alpha Z        PSCENC =       499.79343438
  Ewald energy   TEWEN  =     90688.85550208
  -Hartree energ DENC   =   -104466.86271057
  -exchange      EXHF   =         0.00000000
  -V(xc)+E(xc)   XCENC  =     -6623.02222877
  PAW double counting   =     16887.37234019    -8836.02014662
  entropy T*S    EENTRO =        -0.21970112
  eigenvalues    EBANDS =     -2862.98047877
  atomic energy  EATOM  =     13755.34161216
  Solvation  Ediel_sol  =         0.00000000
  ---------------------------------------------------
  free energy    TOTEN  =      -957.74237703 eV

  energy without entropy =     -957.52267591  energy(sigma->0) =     -957.63252647


--------------------------------------------------------------------------------------------------------




----------------------------------------- Iteration    1(   6)  ---------------------------------------


    POTLOK:  cpu time    0.7755: real time    0.7785
    SETDIJ:  cpu time    0.1065: real time    0.1068
     EDDAV:  cpu time   16.3015: real time   18.5983
       DOS:  cpu time    0.0010: real time    0.0010
    CHARGE:  cpu time    1.2093: real time    1.2327
    MIXING:  cpu time    0.0275: real time    0.0282
    --------------------------------------------
      LOOP:  cpu time   18.4232: real time   20.8376

 eigenvalue-minimisations  :  3030
 total energy-change (2. order) :-0.9798687E+01  (-0.1989302E+02)
 number of electron     760.9999989 magnetization 
 augmentation part       -9.9382882 magnetization 

 Broyden mixing:
  rms(total) = 0.18415E+01    rms(broyden)= 0.18415E+01
  rms(prec ) = 0.41372E+01
  weight for this iteration     100.00

 eigenvalues of (default mixing * dielectric matrix)
  average eigenvalue GAMMA=   0.7982
  0.7982

 Free energy of the ion-electron system (eV)
  ---------------------------------------------------
  alpha Z        PSCENC =       499.79343438
  Ewald energy   TEWEN  =     90688.85550208
  -Hartree energ DENC   =   -105425.58227738
  -exchange      EXHF   =         0.00000000
  -V(xc)+E(xc)   XCENC  =     -6612.06041842
  PAW double counting   =     18822.61080647   -10772.76467472
  entropy T*S    EENTRO =        -0.06525616
  eigenvalues    EBANDS =     -1923.66979240
  atomic energy  EATOM  =     13755.34161216
  Solvation  Ediel_sol  =         0.00000000
  ---------------------------------------------------
  free energy    TOTEN  =      -967.54106399 eV

  energy without entropy =     -967.47580783  energy(sigma->0) =     -967.50843591


--------------------------------------------------------------------------------------------------------




----------------------------------------- Iteration    1(   7)  ---------------------------------------


    POTLOK:  cpu time    0.7924: real time    0.7950
    SETDIJ:  cpu time    0.1074: real time    0.1077
     EDDAV:  cpu time   14.7807: real time   16.8914
       DOS:  cpu time    0.0020: real time    0.0020
    CHARGE:  cpu time    1.1947: real time    1.2191
    MIXING:  cpu time    0.0281: real time    0.0281
    --------------------------------------------
      LOOP:  cpu time   16.9069: real time   19.0462

 eigenvalue-minimisations  :  2664
 total energy-change (2. order) : 0.3731809E+02  (-0.1518099E+02)
 number of electron     760.9999990 magnetization 
 augmentation part      -10.0829317 magnetization 

 Broyden mixing:
  rms(total) = 0.10188E+01    rms(broyden)= 0.10187E+01
  rms(prec ) = 0.14340E+01
  weight for this iteration     100.00

 eigenvalues of (default mixing * dielectric matrix)
  average eigenvalue GAMMA=   0.7401
  1.1837  0.2965

 Free energy of the ion-electron system (eV)
  ---------------------------------------------------
  alpha Z        PSCENC =       499.79343438
  Ewald energy   TEWEN  =     90688.85550208
  -Hartree energ DENC   =   -104875.62028010
  -exchange      EXHF   =         0.00000000
  -V(xc)+E(xc)   XCENC  =     -6609.82657538
  PAW double counting   =     19213.99430530   -11164.29139111
  entropy T*S    EENTRO =        -0.09965196
  eigenvalues    EBANDS =     -2438.36992501
  atomic energy  EATOM  =     13755.34161216
  Solvation  Ediel_sol  =         0.00000000
  ---------------------------------------------------
  free energy    TOTEN  =      -930.22296966 eV

  energy without entropy =     -930.12331769  energy(sigma->0) =     -930.17314368


--------------------------------------------------------------------------------------------------------




----------------------------------------- Iteration    1(   8)  ---------------------------------------


    POTLOK:  cpu time    0.7893: real time    0.7921
    SETDIJ:  cpu time    0.1065: real time    0.1067
     EDDAV:  cpu time   14.7526: real time   16.8288
       DOS:  cpu time    0.0012: real time    0.0012
    CHARGE:  cpu time    1.1936: real time    1.2164
    MIXING:  cpu time    0.0289: real time    0.0292
    --------------------------------------------
      LOOP:  cpu time   16.8738: real time   18.9779

 eigenvalue-minimisations  :  2640
 total energy-change (2. order) :-0.5250734E+01  (-0.4656671E+01)
 number of electron     760.9999994 magnetization 
 augmentation part      -10.1871948 magnetization 

 Broyden mixing:
  rms(total) = 0.83341E+00    rms(broyden)= 0.83340E+00
  rms(prec ) = 0.22206E+01
  weight for this iteration     100.00

 eigenvalues of (default mixing * dielectric matrix)
  average eigenvalue GAMMA=   0.8595
  1.5264  0.7512  0.3009

 Free energy of the ion-electron system (eV)
  ---------------------------------------------------
  alpha Z        PSCENC =       499.79343438
  Ewald energy   TEWEN  =     90688.85550208
  -Hartree energ DENC   =   -105008.94474020
  -exchange      EXHF   =         0.00000000
  -V(xc)+E(xc)   XCENC  =     -6603.95319715
  PAW double counting   =     20208.26827374   -12159.11367203
  entropy T*S    EENTRO =        -0.10655813
  eigenvalues    EBANDS =     -2315.61435808
  atomic energy  EATOM  =     13755.34161216
  Solvation  Ediel_sol  =         0.00000000
  ---------------------------------------------------
  free energy    TOTEN  =      -935.47370324 eV

  energy without entropy =     -935.36714511  energy(sigma->0) =     -935.42042417


--------------------------------------------------------------------------------------------------------




----------------------------------------- Iteration    1(   9)  ---------------------------------------


    POTLOK:  cpu time    0.7904: real time    0.7930
    SETDIJ:  cpu time    0.1069: real time    0.1071
     EDDAV:  cpu time   14.6294: real time   16.6403
       DOS:  cpu time    0.0014: real time    0.0014
    CHARGE:  cpu time    1.1827: real time    1.2063
    MIXING:  cpu time    0.0302: real time    0.0302
    --------------------------------------------
      LOOP:  cpu time   16.7424: real time   18.7810

 eigenvalue-minimisations  :  2604
 total energy-change (2. order) : 0.5216126E+01  (-0.8838603E+00)
 number of electron     760.9999988 magnetization 
 augmentation part      -10.2157184 magnetization 

 Broyden mixing:
  rms(total) = 0.57122E+00    rms(broyden)= 0.57121E+00
  rms(prec ) = 0.12170E+01
  weight for this iteration     100.00

 eigenvalues of (default mixing * dielectric matrix)
  average eigenvalue GAMMA=   0.8964
  2.2263  0.9052  0.3052  0.1491

 Free energy of the ion-electron system (eV)
  ---------------------------------------------------
  alpha Z        PSCENC =       499.79343438
  Ewald energy   TEWEN  =     90688.85550208
  -Hartree energ DENC   =   -105061.55448578
  -exchange      EXHF   =         0.00000000
  -V(xc)+E(xc)   XCENC  =     -6601.97417151
  PAW double counting   =     20537.37666580   -12488.44424841
  entropy T*S    EENTRO =        -0.09581231
  eigenvalues    EBANDS =     -2259.55607399
  atomic energy  EATOM  =     13755.34161216
  Solvation  Ediel_sol  =         0.00000000
  ---------------------------------------------------
  free energy    TOTEN  =      -930.25757759 eV

  energy without entropy =     -930.16176528  energy(sigma->0) =     -930.20967143


--------------------------------------------------------------------------------------------------------




----------------------------------------- Iteration    1(  10)  ---------------------------------------


    POTLOK:  cpu time    0.7908: real time    0.7935
    SETDIJ:  cpu time    0.1067: real time    0.1069
     EDDAV:  cpu time   14.0919: real time   16.1686
       DOS:  cpu time    0.0021: real time    0.0021
    CHARGE:  cpu time    1.1896: real time    1.2129
    MIXING:  cpu time    0.0324: real time    0.0328
    --------------------------------------------
      LOOP:  cpu time   16.2149: real time   18.3197

 eigenvalue-minimisations  :  2508
 total energy-change (2. order) : 0.3041424E+01  (-0.7720726E+00)
 number of electron     760.9999990 magnetization 
 augmentation part      -10.2304803 magnetization 

 Broyden mixing:
  rms(total) = 0.20146E+00    rms(broyden)= 0.20140E+00
  rms(prec ) = 0.26523E+00
  weight for this iteration     100.00

 eigenvalues of (default mixing * dielectric matrix)
  average eigenvalue GAMMA=   0.8682
  2.4833  0.7077  0.7077  0.3002  0.1420

 Free energy of the ion-electron system (eV)
  ---------------------------------------------------
  alpha Z        PSCENC =       499.79343438
  Ewald energy   TEWEN  =     90688.85550208
  -Hartree energ DENC   =   -105211.37946224
  -exchange      EXHF   =         0.00000000
  -V(xc)+E(xc)   XCENC  =     -6595.51686716
  PAW double counting   =     21572.42494518   -13524.32272930
  entropy T*S    EENTRO =        -0.09085695
  eigenvalues    EBANDS =     -2112.32173137
  atomic energy  EATOM  =     13755.34161216
  Solvation  Ediel_sol  =         0.00000000
  ---------------------------------------------------
  free energy    TOTEN  =      -927.21615323 eV

  energy without entropy =     -927.12529628  energy(sigma->0) =     -927.17072475


--------------------------------------------------------------------------------------------------------




----------------------------------------- Iteration    1(  11)  ---------------------------------------


    POTLOK:  cpu time    0.7970: real time    0.7999
    SETDIJ:  cpu time    0.1074: real time    0.1078
     EDDAV:  cpu time   14.2856: real time   16.2915
       DOS:  cpu time    0.0023: real time    0.0023
    CHARGE:  cpu time    1.1802: real time    1.2033
    MIXING:  cpu time    0.0327: real time    0.0328
    --------------------------------------------
      LOOP:  cpu time   16.4067: real time   18.4403

 eigenvalue-minimisations  :  2532
 total energy-change (2. order) : 0.1419166E+00  (-0.1929179E+00)
 number of electron     760.9999989 magnetization 
 augmentation part      -10.2830434 magnetization 

 Broyden mixing:
  rms(total) = 0.13221E+00    rms(broyden)= 0.13221E+00
  rms(prec ) = 0.15590E+00
  weight for this iteration     100.00

 eigenvalues of (default mixing * dielectric matrix)
  average eigenvalue GAMMA=   0.9140
  2.4260  0.8792  0.8792  0.8598  0.2977  0.1418

 Free energy of the ion-electron system (eV)
  ---------------------------------------------------
  alpha Z        PSCENC =       499.79343438
  Ewald energy   TEWEN  =     90688.85550208
  -Hartree energ DENC   =   -105286.48466904
  -exchange      EXHF   =         0.00000000
  -V(xc)+E(xc)   XCENC  =     -6592.39059990
  PAW double counting   =     21975.26241420   -13927.61385942
  entropy T*S    EENTRO =        -0.09174147
  eigenvalues    EBANDS =     -2039.74632962
  atomic energy  EATOM  =     13755.34161216
  Solvation  Ediel_sol  =         0.00000000
  ---------------------------------------------------
  free energy    TOTEN  =      -927.07423664 eV

  energy without entropy =     -926.98249517  energy(sigma->0) =     -927.02836591


--------------------------------------------------------------------------------------------------------




----------------------------------------- Iteration    1(  12)  ---------------------------------------


    POTLOK:  cpu time    0.7947: real time    0.7982
    SETDIJ:  cpu time    0.1071: real time    0.1072
     EDDAV:  cpu time   14.7228: real time   16.7447
       DOS:  cpu time    0.0009: real time    0.0009
    CHARGE:  cpu time    1.1922: real time    1.2166
    MIXING:  cpu time    0.0348: real time    0.0348
    --------------------------------------------
      LOOP:  cpu time   16.8541: real time   18.9051

 eigenvalue-minimisations  :  2628
 total energy-change (2. order) : 0.2226468E-01  (-0.3866094E-01)
 number of electron     760.9999990 magnetization 
 augmentation part      -10.3010074 magnetization 

 Broyden mixing:
  rms(total) = 0.71284E-01    rms(broyden)= 0.71266E-01
  rms(prec ) = 0.99029E-01
  weight for this iteration     100.00

 eigenvalues of (default mixing * dielectric matrix)
  average eigenvalue GAMMA=   1.0115
  2.2500  2.2500  0.7705  0.7705  0.5990  0.2983  0.1418

 Free energy of the ion-electron system (eV)
  ---------------------------------------------------
  alpha Z        PSCENC =       499.79343438
  Ewald energy   TEWEN  =     90688.85550208
  -Hartree energ DENC   =   -105301.06861430
  -exchange      EXHF   =         0.00000000
  -V(xc)+E(xc)   XCENC  =     -6592.10158396
  PAW double counting   =     21967.51876061   -13920.00651972
  entropy T*S    EENTRO =        -0.08968827
  eigenvalues    EBANDS =     -2025.29487495
  atomic energy  EATOM  =     13755.34161216
  Solvation  Ediel_sol  =         0.00000000
  ---------------------------------------------------
  free energy    TOTEN  =      -927.05197196 eV

  energy without entropy =     -926.96228370  energy(sigma->0) =     -927.00712783


--------------------------------------------------------------------------------------------------------




----------------------------------------- Iteration    1(  13)  ---------------------------------------


    POTLOK:  cpu time    0.7995: real time    0.8036
    SETDIJ:  cpu time    0.1077: real time    0.1080
     EDDAV:  cpu time   13.9952: real time   15.9972
       DOS:  cpu time    0.0089: real time    0.0089
    CHARGE:  cpu time    1.1796: real time    1.2031
    MIXING:  cpu time    0.0357: real time    0.0357
    --------------------------------------------
      LOOP:  cpu time   16.1281: real time   18.1590

 eigenvalue-minimisations  :  2460
 total energy-change (2. order) : 0.2756174E-01  (-0.2471085E-01)
 number of electron     760.9999990 magnetization 
 augmentation part      -10.3072256 magnetization 

 Broyden mixing:
  rms(total) = 0.65453E-01    rms(broyden)= 0.65421E-01
  rms(prec ) = 0.84897E-01
  weight for this iteration     100.00

 eigenvalues of (default mixing * dielectric matrix)
  average eigenvalue GAMMA=   1.0434
  2.5454  2.5454  0.8198  0.8198  0.7093  0.2981  0.1418  0.4673

 Free energy of the ion-electron system (eV)
  ---------------------------------------------------
  alpha Z        PSCENC =       499.79343438
  Ewald energy   TEWEN  =     90688.85550208
  -Hartree energ DENC   =   -105344.86932950
  -exchange      EXHF   =         0.00000000
  -V(xc)+E(xc)   XCENC  =     -6591.41477135
  PAW double counting   =     21961.14624197   -13913.94353529
  entropy T*S    EENTRO =        -0.09073189
  eigenvalues    EBANDS =     -1981.84283278
  atomic energy  EATOM  =     13755.34161216
  Solvation  Ediel_sol  =         0.00000000
  ---------------------------------------------------
  free energy    TOTEN  =      -927.02441022 eV

  energy without entropy =     -926.93367833  energy(sigma->0) =     -926.97904428


--------------------------------------------------------------------------------------------------------




----------------------------------------- Iteration    1(  14)  ---------------------------------------


    POTLOK:  cpu time    0.7999: real time    0.8013
    SETDIJ:  cpu time    0.1066: real time    0.1068
     EDDAV:  cpu time   13.5470: real time   15.4887
       DOS:  cpu time    0.0024: real time    0.0024
    CHARGE:  cpu time    1.1776: real time    1.2014
    MIXING:  cpu time    0.0372: real time    0.0373
    --------------------------------------------
      LOOP:  cpu time   15.6724: real time   17.6406

 eigenvalue-minimisations  :  2364
 total energy-change (2. order) : 0.3547948E-01  (-0.6163085E-02)
 number of electron     760.9999990 magnetization 
 augmentation part      -10.3043763 magnetization 

 Broyden mixing:
  rms(total) = 0.41958E-01    rms(broyden)= 0.41957E-01
  rms(prec ) = 0.53043E-01
  weight for this iteration     100.00

 eigenvalues of (default mixing * dielectric matrix)
  average eigenvalue GAMMA=   1.0819
  2.6354  2.6354  0.9981  0.9981  0.7828  0.7828  0.1418  0.2982  0.4641

 Free energy of the ion-electron system (eV)
  ---------------------------------------------------
  alpha Z        PSCENC =       499.79343438
  Ewald energy   TEWEN  =     90688.85550208
  -Hartree energ DENC   =   -105382.54667297
  -exchange      EXHF   =         0.00000000
  -V(xc)+E(xc)   XCENC  =     -6590.88786860
  PAW double counting   =     21981.64270145   -13934.56424020
  entropy T*S    EENTRO =        -0.09018378
  eigenvalues    EBANDS =     -1944.53321525
  atomic energy  EATOM  =     13755.34161216
  Solvation  Ediel_sol  =         0.00000000
  ---------------------------------------------------
  free energy    TOTEN  =      -926.98893074 eV

  energy without entropy =     -926.89874696  energy(sigma->0) =     -926.94383885


--------------------------------------------------------------------------------------------------------




----------------------------------------- Iteration    1(  15)  ---------------------------------------


    POTLOK:  cpu time    0.8002: real time    0.8039
    SETDIJ:  cpu time    0.1069: real time    0.1071
     EDDAV:  cpu time   13.7275: real time   15.6674
       DOS:  cpu time    0.0010: real time    0.0010
    CHARGE:  cpu time    1.1738: real time    1.1960
    MIXING:  cpu time    0.0394: real time    0.0394
    --------------------------------------------
      LOOP:  cpu time   15.8504: real time   17.8175

 eigenvalue-minimisations  :  2376
 total energy-change (2. order) :-0.3509392E-02  (-0.9350447E-02)
 number of electron     760.9999990 magnetization 
 augmentation part      -10.2947705 magnetization 

 Broyden mixing:
  rms(total) = 0.25344E-01    rms(broyden)= 0.25320E-01
  rms(prec ) = 0.32431E-01
  weight for this iteration     100.00

 eigenvalues of (default mixing * dielectric matrix)
  average eigenvalue GAMMA=   1.1494
  2.9917  2.7070  1.2524  1.0201  1.0201  0.8009  0.8009  0.1418  0.2982  0.4607

 Free energy of the ion-electron system (eV)
  ---------------------------------------------------
  alpha Z        PSCENC =       499.79343438
  Ewald energy   TEWEN  =     90688.85550208
  -Hartree energ DENC   =   -105407.30169886
  -exchange      EXHF   =         0.00000000
  -V(xc)+E(xc)   XCENC  =     -6590.70435757
  PAW double counting   =     21980.49822192   -13933.38847177
  entropy T*S    EENTRO =        -0.09026756
  eigenvalues    EBANDS =     -1919.99641491
  atomic energy  EATOM  =     13755.34161216
  Solvation  Ediel_sol  =         0.00000000
  ---------------------------------------------------
  free energy    TOTEN  =      -926.99244013 eV

  energy without entropy =     -926.90217257  energy(sigma->0) =     -926.94730635


--------------------------------------------------------------------------------------------------------




----------------------------------------- Iteration    1(  16)  ---------------------------------------


    POTLOK:  cpu time    0.8033: real time    0.8066
    SETDIJ:  cpu time    0.1069: real time    0.1071
     EDDAV:  cpu time   14.5544: real time   16.6118
       DOS:  cpu time    0.0035: real time    0.0035
    CHARGE:  cpu time    1.1833: real time    1.2061
    MIXING:  cpu time    0.0413: real time    0.0416
    --------------------------------------------
      LOOP:  cpu time   16.6943: real time   18.7797

 eigenvalue-minimisations  :  2580
 total energy-change (2. order) :-0.5024068E-02  (-0.1599897E-02)
 number of electron     760.9999990 magnetization 
 augmentation part      -10.2929529 magnetization 

 Broyden mixing:
  rms(total) = 0.24238E-01    rms(broyden)= 0.24234E-01
  rms(prec ) = 0.27857E-01
  weight for this iteration     100.00

 eigenvalues of (default mixing * dielectric matrix)
  average eigenvalue GAMMA=   1.2301
  3.7310  2.5850  2.0980  0.9807  0.9807  0.1418  0.2982  0.7680  0.7680  0.7180
  0.4617

 Free energy of the ion-electron system (eV)
  ---------------------------------------------------
  alpha Z        PSCENC =       499.79343438
  Ewald energy   TEWEN  =     90688.85550208
  -Hartree energ DENC   =   -105426.51638338
  -exchange      EXHF   =         0.00000000
  -V(xc)+E(xc)   XCENC  =     -6590.55143583
  PAW double counting   =     21972.78818145   -13925.65050600
  entropy T*S    EENTRO =        -0.08982894
  eigenvalues    EBANDS =     -1900.96804012
  atomic energy  EATOM  =     13755.34161216
  Solvation  Ediel_sol  =         0.00000000
  ---------------------------------------------------
  free energy    TOTEN  =      -926.99746420 eV

  energy without entropy =     -926.90763526  energy(sigma->0) =     -926.95254973


--------------------------------------------------------------------------------------------------------




----------------------------------------- Iteration    1(  17)  ---------------------------------------


    POTLOK:  cpu time    0.8128: real time    0.8158
    SETDIJ:  cpu time    0.1064: real time    0.1066
     EDDAV:  cpu time   15.6743: real time   17.8750
       DOS:  cpu time    0.0011: real time    0.0011
[...]
     13.98940     -0.00180     -0.00462        -0.000301      0.000636     -0.000036
     14.00440     -2.86343     -4.95847         0.000005     -0.000000      0.000957
     13.98508     -5.72051     -9.91647         0.000390      0.000404      0.000397
     13.98940     -5.72506     -0.00462        -0.000301     -0.000636     -0.000036
     14.00207     -8.58815     -4.95520         0.000295      0.000207     -0.000308
     13.97441    -11.45372     -9.95976         0.003104      0.000000      0.004750
     13.97873    -11.45372      0.00398        -0.001091     -0.000000      0.000127
     14.00207    -14.31928     -4.95520         0.000295     -0.000207     -0.000308
     13.98508    -17.18692     -9.91647         0.000390     -0.000404      0.000397
     16.35818     -2.86343     -1.64867        -0.000649      0.000000      0.000963
     16.34519     -5.73636     -6.62733        -0.000281     -0.000745     -0.000197
     16.33249     -8.57337    -11.57448         0.000621     -0.000194      0.000427
     16.33702     -8.58958     -1.64476         0.000174      0.000016      0.000120
     16.53131    -11.45372     -6.63888        -0.001381      0.000000      0.000293
     16.33249    -14.33407    -11.57448         0.000621      0.000194      0.000427
     16.33702    -14.31785     -1.64476         0.000174     -0.000016      0.000120
     16.34519    -17.17107     -6.62733        -0.000281      0.000745     -0.000197
     16.32348    -20.04400    -11.57500        -0.001421      0.000000      0.000606
      2.36420     -7.15661     -4.13141         0.000008      0.000400     -0.000444
      2.33972    -10.02056     -9.09344         0.001053      0.000374     -0.000216
      2.36420    -12.88583    -14.05471         0.000008      0.000585     -0.000124
      2.36173    -12.88745     -4.13293         0.000144      0.000331      0.000107
      2.36173    -15.74993     -9.09090         0.000144      0.000073     -0.000340
      2.36933    -18.61089    -14.05302        -0.000715      0.000319     -0.000184
      2.36200    -18.60922     -4.13478        -0.000614      0.000200     -0.000115
      2.36321    -21.47685     -9.09029        -0.000043      0.000128     -0.000464
      2.36321    -24.34172    -14.05240        -0.000043      0.000466      0.000122
      4.70157    -10.02290     -5.79047         0.000532     -0.000064     -0.000017
      4.70157    -12.88219    -10.74290         0.000532     -0.000017      0.000064
      4.70794     -7.15788     -0.82700         0.000229      0.000568     -0.000328
      4.70424    -15.74713     -5.78721        -0.000448      0.000883     -0.000510
      4.71121    -18.61332    -10.74713        -0.000368      0.000852      0.000099
      4.71121    -12.88480     -0.82505        -0.000368      0.000341     -0.000787
      4.70683     -4.29416     -5.78409        -0.000422     -0.000902     -0.000462
      4.70579     -7.15913    -10.74549         0.000541     -0.000655      0.000378
      4.70683     -1.43306     -0.82851        -0.000422     -0.000051      0.001012
      7.01217    -12.87730     -7.44410        -0.000514      0.000797     -0.000460
      7.01048    -15.74837    -12.40053         0.000569      0.000781      0.000279
      7.01048    -10.02044     -2.47947         0.000569      0.000149     -0.000816
      7.01217    -18.60804     -7.43842         0.000060      0.000236     -0.000202
      7.01640    -21.47366    -12.40020        -0.000135      0.000013     -0.000007
      7.01217    -15.74759     -2.48397         0.000060      0.000293     -0.000103
      7.00473     -7.16322     -7.44103         0.000280      0.000399     -0.000488
      7.00473    -10.02292    -12.39418         0.000280      0.000622     -0.000101
      7.00937     -4.29345     -2.48078         0.000442      0.000915     -0.000528
      9.34368    -15.74506     -9.09219         0.000070     -0.000430      0.000059
      9.34445    -18.60421    -14.05687        -0.001207      0.000311     -0.000180
      9.34368    -12.88389     -4.13650         0.000070     -0.000266      0.000343
      9.35099    -21.47801     -9.09022         0.000023      0.000659      0.000004
      9.35099    -24.34237    -14.05142         0.000023      0.000326     -0.000573
      9.35187    -18.61005     -4.13429        -0.001120     -0.000837      0.000484
      9.34209    -10.02197     -9.09263         0.001243     -0.000106      0.000061
      9.34538    -12.88190    -14.04931         0.000367     -0.000019     -0.000524
      9.34538     -7.15932     -4.13751         0.000367      0.000444      0.000279
     11.68609    -18.60650    -10.74736        -0.000980      0.000077      0.000361
     11.68609    -12.88119     -0.83083        -0.000980     -0.000274     -0.000247
     11.69554    -15.74027     -5.79117        -0.001004      0.001241     -0.000716
     11.68901     -7.17012    -10.73914        -0.000414     -0.000256      0.000148
     11.69102     -1.43426     -0.82636        -0.000374     -0.000035     -0.000264
     11.69102     -4.29662     -5.78412        -0.000374      0.000211      0.000162
     11.67526    -12.88637    -10.73938         0.000309     -0.000689     -0.000258
     11.68895     -7.15637     -0.82787        -0.000735      0.000376     -0.000217
     11.67526    -10.02804     -5.78861         0.000309     -0.000121      0.000726
     13.97873    -21.47227    -12.40100        -0.001091      0.000110     -0.000063
     13.98940    -15.75376     -2.47905        -0.000301      0.000287      0.000568
     13.98940    -18.61539     -7.43554        -0.000301     -0.000349     -0.000533
     14.00207    -10.01925    -12.40306         0.000295     -0.000371     -0.000025
     14.00440     -4.29416     -2.48037         0.000005      0.000829     -0.000478
     14.00207     -7.15369     -7.43976         0.000295     -0.000163      0.000334
     13.98508    -15.74966    -12.40588         0.000390      0.000142     -0.000549
     13.98508    -10.01646     -2.47568         0.000390      0.000546      0.000151
     13.97441    -12.92055     -7.41913         0.003104      0.004114     -0.002375
     16.33702    -24.33218    -14.05704         0.000174      0.000095     -0.000074
     16.35818    -18.60836     -4.13527        -0.000649      0.000834     -0.000481
     16.33702    -21.46805     -9.09622         0.000174      0.000112     -0.000046
     16.34519    -12.89326    -14.03672        -0.000281      0.000202      0.000743
     16.34519     -7.17590     -4.13397        -0.000281     -0.000543     -0.000547
     16.53131    -10.04458     -9.07957        -0.001381      0.000254     -0.000146
     16.32348    -18.61453    -14.05092        -0.001421      0.000525     -0.000303
     16.33249    -12.87876     -4.11732         0.000621      0.000273     -0.000381
     16.33249    -15.75911     -9.10623         0.000621      0.000466     -0.000046
      2.35062     -8.58347     -6.60887         0.001215      0.000017      0.000010
      2.35062    -11.45372    -11.58028         0.001215      0.000000     -0.000020
      2.35913     -5.72551     -1.65398        -0.000171     -0.000004      0.000002
      2.35062    -14.32396     -6.60887         0.001215     -0.000017      0.000010
      2.35881    -17.17764    -11.57071        -0.000608      0.000208      0.000120
      2.35881    -11.45372     -1.65659        -0.000608     -0.000000     -0.000240
      2.35913    -20.04400     -6.61125        -0.000171      0.000000     -0.000004
      2.35881    -22.91037    -11.57071        -0.000608     -0.000208      0.000120
      2.35913    -17.18192     -1.65398        -0.000171      0.000004      0.000002
      4.69196    -11.45372     -8.26601         0.000975     -0.000000      0.000000
      4.71058    -14.31534    -13.22362         0.000288      0.000416      0.000361
      4.71058     -8.59111     -3.30896         0.000288     -0.000105     -0.000541
      4.71058    -17.17794     -8.26544         0.000288      0.000521      0.000179
      4.72100    -20.04400    -13.22561        -0.001389     -0.000000      0.000000
      4.71058    -14.31632     -3.30896         0.000288      0.000105     -0.000541
      4.71058     -5.72949     -8.26544         0.000288     -0.000521      0.000179
      4.71058     -8.59210    -13.22362         0.000288     -0.000416      0.000361
      4.70558     -2.86343     -3.30640         0.000116     -0.000000      0.000000
      7.00454    -14.31223     -9.91637         0.000386      0.000492      0.000284
      7.00949     -8.58947     -0.00047        -0.000279      0.000557     -0.000322
      7.00454    -11.45372     -4.96528         0.000386      0.000000     -0.000568
      7.00949    -20.04400     -9.91827        -0.000279     -0.000000      0.000644
      7.00949    -14.31796     -0.00047        -0.000279     -0.000557     -0.000322
      7.00957    -17.18012     -4.95986         0.000344      0.000546     -0.000315
      7.00454     -8.59520     -9.91637         0.000386     -0.000492      0.000284
      7.00957     -2.86343      0.00052         0.000344     -0.000000      0.000630
      7.00957     -5.72731     -4.95986         0.000344     -0.000546     -0.000315
      9.34740    -17.17704    -11.57037        -0.000150      0.000058      0.000034
      9.34740    -11.45372     -1.65728        -0.000150     -0.000000     -0.000067
      9.34431    -14.31259     -6.61544        -0.000301     -0.000454      0.000262
      9.34740    -22.91097    -11.57037        -0.000150     -0.000058      0.000034
      9.34502    -17.18294     -1.65457         0.000958     -0.000819     -0.000473
      9.34502    -20.04400     -6.61007         0.000958     -0.000000      0.000945
      9.34431    -11.45372    -11.56715        -0.000301      0.000000     -0.000525
      9.34502     -5.72449     -1.65457         0.000958      0.000819     -0.000473
      9.34431     -8.59484     -6.61544        -0.000301      0.000454      0.000262
     11.66793    -20.04400    -13.22561        -0.001719      0.000000      0.000000
     11.68497    -14.31545     -3.31397         0.000003     -0.000063      0.000054
     11.68497    -17.17317     -8.26370         0.000003     -0.000078      0.000027
     11.68497     -8.59599    -13.22036         0.000003      0.000015     -0.000081
     11.68914     -2.86343     -3.30640        -0.000932     -0.000000      0.000000
     11.68497     -5.73426     -8.26370         0.000003      0.000078      0.000027
     11.68497    -14.31144    -13.22036         0.000003     -0.000015     -0.000081
     11.68497     -8.59199     -3.31397         0.000003      0.000063      0.000054
     11.62365    -11.45372     -8.26601         0.002026     -0.000000      0.000000
     13.98378    -14.31285      0.00248         0.000041     -0.000517     -0.000298
     14.00149    -17.18049     -4.95965        -0.000432      0.000347     -0.000200
     13.98378    -20.04400     -9.92417         0.000041     -0.000000      0.000597
     14.00149     -2.86343      0.00010        -0.000432     -0.000000      0.000401
     14.00149     -5.72694     -4.95965        -0.000432     -0.000347     -0.000200
     14.00029     -8.57362     -9.92883         0.000218     -0.000154      0.000089
     13.98378     -8.59458      0.00248         0.000041      0.000517     -0.000298
     14.00029    -11.45372     -4.94035         0.000218     -0.000000     -0.000178
     14.00029    -14.33382     -9.92883         0.000218      0.000154      0.000089
     16.34805    -17.18098     -1.65344         0.000475     -0.000167     -0.000096
     16.34805    -20.04400     -6.61233         0.000475     -0.000000      0.000193
     16.32519    -22.88771    -11.58380         0.000777     -0.000316      0.000183
     16.34805     -5.72645     -1.65344         0.000475      0.000167     -0.000096
     16.35185     -8.58561     -6.61010         0.001433     -0.000481     -0.000278
     16.35185    -11.45372    -11.57781         0.001433      0.000000      0.000555
     16.32519    -11.45372     -1.63043         0.000777      0.000000     -0.000365
     16.35185    -14.32182     -6.61010         0.001433      0.000481     -0.000278
     16.32519    -17.20030    -11.58380         0.000777      0.000316      0.000183
      2.36173    -10.01998     -4.13293         0.000144     -0.000331      0.000107
      2.33972    -12.88688     -9.09344         0.001053     -0.000374     -0.000216
      2.36321    -15.74628    -14.05240        -0.000043     -0.000466      0.000122
      2.36420    -15.75083     -4.13141         0.000008     -0.000400     -0.000444
      2.36321    -18.61116     -9.09029        -0.000043     -0.000128     -0.000464
      2.36933    -21.47711    -14.05302        -0.000715     -0.000319     -0.000184
      2.36200     -4.29821     -4.13478        -0.000614     -0.000200     -0.000115
      2.36173     -7.15750     -9.09090         0.000144     -0.000073     -0.000340
      2.36420    -10.02160    -14.05471         0.000008     -0.000585     -0.000124
      4.70157    -12.88453     -5.79047         0.000532      0.000064     -0.000017
      4.70579    -15.74830    -10.74549         0.000541      0.000655      0.000378
      4.71121    -10.02263     -0.82505        -0.000368     -0.000341     -0.000787
      4.70683    -18.61327     -5.78409        -0.000422      0.000902     -0.000462
      4.71121    -21.47468    -10.74713        -0.000368     -0.000852      0.000099
      4.70794    -15.74955     -0.82700         0.000229     -0.000568     -0.000328
      4.70424     -7.16031     -5.78721        -0.000448     -0.000883     -0.000510
      4.70157    -10.02524    -10.74290         0.000532      0.000017      0.000064
      4.70683     -4.29380     -0.82851        -0.000422      0.000051      0.001012
      7.00473    -15.74421     -7.44103         0.000280     -0.000399     -0.000488
      7.01640    -18.61434    -12.40020        -0.000135     -0.000013     -0.000007
      7.01048    -12.88699     -2.47947         0.000569     -0.000149     -0.000816
      7.01217     -4.29939     -7.43842         0.000060     -0.000236     -0.000202
      7.01048     -7.15906    -12.40053         0.000569     -0.000781      0.000279
      7.00937     -1.43341     -2.48078         0.000442     -0.000915     -0.000528
      7.01217    -10.03013     -7.44410        -0.000514     -0.000797     -0.000460
      7.00473    -12.88451    -12.39418         0.000280     -0.000622     -0.000101
      7.01217     -7.15984     -2.48397         0.000060     -0.000293     -0.000103
      9.35099    -18.60999     -9.09022         0.000023     -0.000659      0.000004
      9.34445    -21.48379    -14.05687        -0.001207     -0.000311     -0.000180
      9.34538    -15.74811     -4.13751         0.000367     -0.000444      0.000279
      9.34368     -7.16237     -9.09219         0.000070      0.000430      0.000059
      9.34538    -10.02553    -14.04931         0.000367      0.000019     -0.000524
      9.35187     -4.29738     -4.13429        -0.001120      0.000837      0.000484
      9.34209    -12.88546     -9.09263         0.001243      0.000106      0.000061
      9.35099    -15.74564    -14.05142         0.000023     -0.000326     -0.000573
      9.34368    -10.02354     -4.13650         0.000070      0.000266      0.000343
     11.68609    -21.48150    -10.74736        -0.000980     -0.000077      0.000361
     11.68895    -15.75106     -0.82787        -0.000735     -0.000376     -0.000217
     11.69102    -18.61081     -5.78412        -0.000374     -0.000211      0.000162
     11.67526    -10.02106    -10.73938         0.000309      0.000689     -0.000258
     11.69102     -4.29260     -0.82636        -0.000374      0.000035     -0.000264
     11.69554     -7.16716     -5.79117        -0.001004     -0.001241     -0.000716
     11.68901    -15.73731    -10.73914        -0.000414      0.000256      0.000148
     11.68609    -10.02624     -0.83083        -0.000980      0.000274     -0.000247
     11.67526    -12.87939     -5.78861         0.000309      0.000121      0.000726
     13.98508     -7.15777    -12.40588         0.000390     -0.000142     -0.000549
     14.00440     -1.43270     -2.48037         0.000005     -0.000829     -0.000478
     13.98940     -4.29204     -7.43554        -0.000301      0.000349     -0.000533
     14.00207    -12.88818    -12.40306         0.000295      0.000371     -0.000025
     13.98940     -7.15367     -2.47905        -0.000301     -0.000287      0.000568
     13.97441     -9.98688     -7.41913         0.003104     -0.004114     -0.002375
     13.97873    -18.61574    -12.40100        -0.001091     -0.000110     -0.000063
     13.98508    -12.89098     -2.47568         0.000390     -0.000546      0.000151
     14.00207    -15.75374     -7.43976         0.000295      0.000163      0.000334
     16.34519    -10.01417    -14.03672        -0.000281     -0.000202      0.000743
     16.35818     -4.29907     -4.13527        -0.000649     -0.000834     -0.000481
     16.33249     -7.14832     -9.10623         0.000621     -0.000466     -0.000046
     16.33702    -15.75582    -14.05704         0.000174     -0.000095     -0.000074
     16.33249    -10.02867     -4.11732         0.000621     -0.000273     -0.000381
     16.53131    -12.86285     -9.07957        -0.001381     -0.000254     -0.000146
     16.32348    -21.47348    -14.05092        -0.001421     -0.000525     -0.000303
     16.34519    -15.73153     -4.13397        -0.000281      0.000543     -0.000547
     16.33702    -18.61995     -9.09622         0.000174     -0.000112     -0.000046
     15.04556    -11.45372     -8.26601        -0.004479      0.000000      0.000000
 -----------------------------------------------------------------------------------
    total drift:                                0.059852      0.000139     -0.000006


--------------------------------------------------------------------------------------------------------



  FREE ENERGIE OF THE ION-ELECTRON SYSTEM (eV)
  ---------------------------------------------------
  free  energy   TOTEN  =      -927.73110228 eV

  energy  without entropy=     -927.66076021  energy(sigma->0) =     -927.69593124
 
 d Force = 0.2139253E-05[ 0.478E-06, 0.380E-05]  d Energy = 0.1564673E-05 0.575E-06
 d Force =-0.5891740E-01[-0.589E-01,-0.589E-01]  d Ewald  =-0.5891767E-01 0.269E-06


--------------------------------------------------------------------------------------------------------


    POTLOK:  cpu time    0.9271: real time    0.9300


--------------------------------------------------------------------------------------------------------




--------------------------------------------------------------------------------------------------------


  
 reached required accuracy - stopping structural energy minimisation
     LOOP+:  cpu time   80.8113: real time   90.8498
    4ORBIT:  cpu time    0.0000: real time    0.0000

 total amount of memory used by VASP MPI-rank0   517844. kBytes
=======================================================================

   base      :      30000. kBytes
   nonlr-proj:      89539. kBytes
   fftplans  :      40601. kBytes
   grid      :      95147. kBytes
   one-center:       3934. kBytes
   wavefun   :     258623. kBytes
 
  
  
 General timing and accounting informations for this job:
 ========================================================
  
                  Total CPU time used (sec):     4749.610
                            User time (sec):     4082.052
                          System time (sec):      667.558
                         Elapsed time (sec):     5360.381
  
                   Maximum memory used (kb):      871464.
                   Average memory used (kb):           0.
  
                          Minor page faults:    170668671
                          Major page faults:           31
                 Voluntary context switches:       111673
