NiAl                                    
           1
     0.000000  -17.180573    0.000000
     0.000000   -8.590287  -14.878813
    30.000000    0.000000    0.000000
   Al   N 
 252   1
Direct configuration=     1
   0.44444444  0.44444444  0.07873473
   0.44444444  0.77777778  0.07873473
   0.44444444  0.11111111  0.07873473
   0.77777778  0.44444444  0.07873473
   0.77777778  0.77777778  0.07873473
   0.77777778  0.11111111  0.07873473
   0.11111111  0.44444444  0.07873473
   0.11111111  0.77777778  0.07873473
   0.11111111  0.11111111  0.07873473
   0.55555556  0.55555556  0.15702584
   0.55555556  0.88888889  0.15702584
   0.55555556  0.22222222  0.15702584
   0.88888889  0.55555556  0.15702584
   0.88888889  0.88888889  0.15702584
   0.88888889  0.22222222  0.15702584
   0.22222222  0.55555556  0.15702584
   0.22222222  0.88888889  0.15702584
   0.22222222  0.22222222  0.15702584
   0.66666667  0.66666667  0.23375740
   0.66666667  0.00000000  0.23375740
   0.66666667  0.33333333  0.23375740
   0.00000000  0.66666667  0.23375740
   0.00000000  0.00000000  0.23375740
   0.00000000  0.33333333  0.23375740
   0.33333333  0.66666667  0.23375740
   0.33333333  0.00000000  0.23375740
   0.33333333  0.33333333  0.23375740
   0.77777778  0.77777778  0.31173066
   0.77777778  0.11111111  0.31173066
   0.77777778  0.44444444  0.31173066
   0.11111111  0.77777778  0.31173066
   0.11111111  0.11111111  0.31173066
   0.11111111  0.44444444  0.31173066
   0.44444444  0.77777778  0.31173066
   0.44444444  0.11111111  0.31173066
   0.44444444  0.44444444  0.31173066
   0.88888889  0.88888889  0.38970391
   0.88888889  0.22222222  0.38970391
   0.88888889  0.55555556  0.38970391
   0.22222222  0.88888889  0.38970391
   0.22222222  0.22222222  0.38970391
   0.22222222  0.55555556  0.38970391
   0.55555556  0.88888889  0.38970391
   0.55555556  0.22222222  0.38970391
   0.55555556  0.55555556  0.38970391
   0.00000000  0.00000000  0.46643547
   0.00000000  0.33333333  0.46643547
   0.00000000  0.66666667  0.46643547
   0.33333333  0.00000000  0.46643547
   0.33333333  0.33333333  0.46643547
   0.33333333  0.66666667  0.46643547
   0.66666667  0.00000000  0.46643547
   0.66666667  0.33333333  0.46643547
   0.66666667  0.66666667  0.46643547
   0.11111111  0.11111111  0.54472658
   0.11111111  0.44444444  0.54472658
   0.11111111  0.77777778  0.54472658
   0.44444444  0.11111111  0.54472658
   0.44444444  0.44444444  0.54472658
   0.44444444  0.77777778  0.54472658
   0.77777778  0.11111111  0.54472658
   0.77777778  0.44444444  0.54472658
   0.77777778  0.77777778  0.54472658
   0.27777778  0.27777778  0.07873473
   0.27777778  0.61111111  0.07873473
   0.27777778  0.94444444  0.07873473
   0.61111111  0.27777778  0.07873473
   0.61111111  0.61111111  0.07873473
   0.61111111  0.94444444  0.07873473
   0.94444444  0.27777778  0.07873473
   0.94444444  0.61111111  0.07873473
   0.94444444  0.94444444  0.07873473
   0.38888889  0.38888889  0.15702584
   0.38888889  0.72222222  0.15702584
   0.38888889  0.05555556  0.15702584
   0.72222222  0.38888889  0.15702584
   0.72222222  0.72222222  0.15702584
   0.72222222  0.05555556  0.15702584
   0.05555556  0.38888889  0.15702584
   0.05555556  0.72222222  0.15702584
   0.05555556  0.05555556  0.15702584
   0.50000000  0.50000000  0.23375740
   0.50000000  0.83333333  0.23375740
   0.50000000  0.16666667  0.23375740
   0.83333333  0.50000000  0.23375740
   0.83333333  0.83333333  0.23375740
   0.83333333  0.16666667  0.23375740
   0.16666667  0.50000000  0.23375740
   0.16666667  0.83333333  0.23375740
   0.16666667  0.16666667  0.23375740
   0.61111111  0.61111111  0.31173066
   0.61111111  0.94444444  0.31173066
   0.61111111  0.27777778  0.31173066
   0.94444444  0.61111111  0.31173066
   0.94444444  0.94444444  0.31173066
   0.94444444  0.27777778  0.31173066
   0.27777778  0.61111111  0.31173066
   0.27777778  0.94444444  0.31173066
   0.27777778  0.27777778  0.31173066
   0.72222222  0.72222222  0.38970391
   0.72222222  0.05555556  0.38970391
   0.72222222  0.38888889  0.38970391
   0.05555556  0.72222222  0.38970391
   0.05555556  0.05555556  0.38970391
   0.05555556  0.38888889  0.38970391
   0.38888889  0.72222222  0.38970391
   0.38888889  0.05555556  0.38970391
   0.38888889  0.38888889  0.38970391
   0.83333333  0.83333333  0.46643547
   0.83333333  0.16666667  0.46643547
   0.83333333  0.50000000  0.46643547
   0.16666667  0.83333333  0.46643547
   0.16666667  0.16666667  0.46643547
   0.16666667  0.50000000  0.46643547
   0.50000000  0.83333333  0.46643547
   0.50000000  0.16666667  0.46643547
   0.50000000  0.50000000  0.46643547
   0.94444444  0.94444444  0.54472658
   0.94444444  0.27777778  0.54472658
   0.94444444  0.61111111  0.54472658
   0.27777778  0.94444444  0.54472658
   0.27777778  0.27777778  0.54472658
   0.27777778  0.61111111  0.54472658
   0.61111111  0.94444444  0.54472658
   0.61111111  0.27777778  0.54472658
   0.61111111  0.61111111  0.54472658
   0.27777778  0.44444444  0.07873473
   0.27777778  0.77777778  0.07873473
   0.27777778  0.11111111  0.07873473
   0.61111111  0.44444444  0.07873473
   0.61111111  0.77777778  0.07873473
   0.61111111  0.11111111  0.07873473
   0.94444444  0.44444444  0.07873473
   0.94444444  0.77777778  0.07873473
   0.94444444  0.11111111  0.07873473
   0.38888889  0.55555556  0.15702584
   0.38888889  0.88888889  0.15702584
   0.38888889  0.22222222  0.15702584
   0.72222222  0.55555556  0.15702584
   0.72222222  0.88888889  0.15702584
   0.72222222  0.22222222  0.15702584
   0.05555556  0.55555556  0.15702584
   0.05555556  0.88888889  0.15702584
   0.05555556  0.22222222  0.15702584
   0.50000000  0.66666667  0.23375740
   0.50000000  0.00000000  0.23375740
   0.50000000  0.33333333  0.23375740
   0.83333333  0.66666667  0.23375740
   0.83333333  0.00000000  0.23375740
   0.83333333  0.33333333  0.23375740
   0.16666667  0.66666667  0.23375740
   0.16666667  0.00000000  0.23375740
   0.16666667  0.33333333  0.23375740
   0.61111111  0.77777778  0.31173066
   0.61111111  0.11111111  0.31173066
   0.61111111  0.44444444  0.31173066
   0.94444444  0.77777778  0.31173066
   0.94444444  0.11111111  0.31173066
   0.94444444  0.44444444  0.31173066
   0.27777778  0.77777778  0.31173066
   0.27777778  0.11111111  0.31173066
   0.27777778  0.44444444  0.31173066
   0.72222222  0.88888889  0.38970391
   0.72222222  0.22222222  0.38970391
   0.72222222  0.55555556  0.38970391
   0.05555556  0.88888889  0.38970391
   0.05555556  0.22222222  0.38970391
   0.05555556  0.55555556  0.38970391
   0.38888889  0.88888889  0.38970391
   0.38888889  0.22222222  0.38970391
   0.38888889  0.55555556  0.38970391
   0.83333333  0.00000000  0.46643547
   0.83333333  0.33333333  0.46643547
   0.83333333  0.66666667  0.46643547
   0.16666667  0.00000000  0.46643547
   0.16666667  0.33333333  0.46643547
   0.16666667  0.66666667  0.46643547
   0.50000000  0.00000000  0.46643547
   0.50000000  0.33333333  0.46643547
   0.50000000  0.66666667  0.46643547
   0.94444444  0.11111111  0.54472658
   0.94444444  0.44444444  0.54472658
   0.94444444  0.77777778  0.54472658
   0.27777778  0.11111111  0.54472658
   0.27777778  0.44444444  0.54472658
   0.27777778  0.77777778  0.54472658
   0.61111111  0.11111111  0.54472658
   0.61111111  0.44444444  0.54472658
   0.61111111  0.77777778  0.54472658
   0.44444444  0.27777778  0.07873473
   0.44444444  0.61111111  0.07873473
   0.44444444  0.94444444  0.07873473
   0.77777778  0.27777778  0.07873473
   0.77777778  0.61111111  0.07873473
   0.77777778  0.94444444  0.07873473
   0.11111111  0.27777778  0.07873473
   0.11111111  0.61111111  0.07873473
   0.11111111  0.94444444  0.07873473
   0.55555556  0.38888889  0.15702584
   0.55555556  0.72222222  0.15702584
   0.55555556  0.05555556  0.15702584
   0.88888889  0.38888889  0.15702584
   0.88888889  0.72222222  0.15702584
   0.88888889  0.05555556  0.15702584
   0.22222222  0.38888889  0.15702584
   0.22222222  0.72222222  0.15702584
   0.22222222  0.05555556  0.15702584
   0.66666667  0.50000000  0.23375740
   0.66666667  0.83333333  0.23375740
   0.66666667  0.16666667  0.23375740
   0.00000000  0.50000000  0.23375740
   0.00000000  0.83333333  0.23375740
   0.00000000  0.16666667  0.23375740
   0.33333333  0.50000000  0.23375740
   0.33333333  0.83333333  0.23375740
   0.33333333  0.16666667  0.23375740
   0.77777778  0.61111111  0.31173066
   0.77777778  0.94444444  0.31173066
   0.77777778  0.27777778  0.31173066
   0.11111111  0.61111111  0.31173066
   0.11111111  0.94444444  0.31173066
   0.11111111  0.27777778  0.31173066
   0.44444444  0.61111111  0.31173066
   0.44444444  0.94444444  0.31173066
   0.44444444  0.27777778  0.31173066
   0.88888889  0.72222222  0.38970391
   0.88888889  0.05555556  0.38970391
   0.88888889  0.38888889  0.38970391
   0.22222222  0.72222222  0.38970391
   0.22222222  0.05555556  0.38970391
   0.22222222  0.38888889  0.38970391
   0.55555556  0.72222222  0.38970391
   0.55555556  0.05555556  0.38970391
   0.55555556  0.38888889  0.38970391
   0.00000000  0.83333333  0.46643547
   0.00000000  0.16666667  0.46643547
   0.00000000  0.50000000  0.46643547
   0.33333333  0.83333333  0.46643547
   0.33333333  0.16666667  0.46643547
   0.33333333  0.50000000  0.46643547
   0.66666667  0.83333333  0.46643547
   0.66666667  0.16666667  0.46643547
   0.66666667  0.50000000  0.46643547
   0.11111111  0.94444444  0.54472658
   0.11111111  0.27777778  0.54472658
   0.11111111  0.61111111  0.54472658
   0.44444444  0.94444444  0.54472658
   0.44444444  0.27777778  0.54472658
   0.44444444  0.61111111  0.54472658
   0.77777778  0.94444444  0.54472658
   0.77777778  0.27777778  0.54472658
   0.77777778  0.61111111  0.54472658
   0.38888889  0.55555556  0.49000000
Direct configuration=     2
   0.44446043  0.44441246  0.07871695
   0.44442625  0.77777817  0.07874305
   0.44443200  0.11112832  0.07873832
   0.77777390  0.44445562  0.07874672
   0.77778423  0.77776487  0.07874808
   0.77777302  0.11112832  0.07873832
   0.11110381  0.44445562  0.07874672
   0.11112891  0.77777817  0.07874305
   0.11112203  0.11108927  0.07874348
   0.55556961  0.55554769  0.15701358
   0.55557147  0.88888880  0.15702691
   0.55555414  0.22222506  0.15702107
   0.88889192  0.55554949  0.15701982
   0.88887306  0.88888880  0.15702691
   0.88890299  0.22222794  0.15701933
   0.22221604  0.55554769  0.15701358
   0.22222707  0.88887919  0.15701657
   0.22220240  0.22222794  0.15701933
   0.66668006  0.66666161  0.23376532
   0.66667138 -0.00000942  0.23376216
   0.66665276  0.33333562  0.23375373
  -0.00000834  0.66666161  0.23376532
   0.00001835 -0.00000826  0.23376165
   0.00000288  0.33332757  0.23375229
   0.33334204  0.66664925  0.23379229
   0.33332324 -0.00000826  0.23376165
   0.33334496  0.33333562  0.23375373
   0.77780435  0.77772464  0.31172260
   0.77776448  0.11111760  0.31173284
   0.77777385  0.44444496  0.31172345
   0.11112934  0.77776685  0.31173153
   0.11112869  0.11107596  0.31174125
   0.11111452  0.44444496  0.31172345
   0.44443714  0.77776685  0.31173153
   0.44445125  0.11111760  0.31173284
   0.44444831  0.44443671  0.31175052
   0.88890562  0.88885005  0.38971220
   0.88888655  0.22223524  0.38970299
   0.88888766  0.55555802  0.38970363
   0.22224318  0.88884698  0.38970562
   0.22221154  0.22223524  0.38970299
   0.22227247  0.55557332  0.38969308
   0.55557767  0.88885005  0.38971220
   0.55552726  0.22227882  0.38970063
   0.55548754  0.55557332  0.38969308
   0.00001227  0.00000836  0.46643132
  -0.00001350  0.33336034  0.46644192
   0.00002859  0.66662728  0.46643132
   0.33331270  0.00000836  0.46643132
   0.33332944  0.33332373  0.46645219
   0.33181698  0.66969937  0.46581765
   0.66667237 -0.00001140  0.46644073
   0.66668016  0.33332373  0.46645219
   0.66667747  0.66662728  0.46643132
   0.11111306  0.11110720  0.54473544
   0.11111170  0.44447439  0.54472735
   0.11102342  0.77784802  0.54473002
   0.44443782  0.11112109  0.54473143
   0.44446832  0.44439670  0.54499866
   0.44446190  0.77784802  0.54473002
   0.77777443  0.11112109  0.54473143
   0.77774725  0.44447439  0.54472735
   0.77777716  0.77777901  0.54470789
   0.27778895  0.27777048  0.07874672
   0.27774580  0.61112710  0.07871695
   0.27778895  0.94444057  0.07874672
   0.61111151  0.27779557  0.07874305
   0.61111151  0.61109292  0.07874305
   0.61109821  0.94445090  0.07874808
   0.94442261  0.27778870  0.07874348
   0.94446165  0.61109866  0.07873832
   0.94446165  0.94443969  0.07873832
   0.38888102  0.38888270  0.15701358
   0.38888102  0.72223627  0.15701358
   0.38888283  0.05555859  0.15701982
   0.72221252  0.38889374  0.15701657
   0.72222214  0.72223814  0.15702691
   0.72222214  0.05553972  0.15702691
   0.05556127  0.38886907  0.15701933
   0.05555839  0.72222080  0.15702107
   0.05556127  0.05556965  0.15701933
   0.49998258  0.50000871  0.23379229
   0.49999494  0.83334673  0.23376532
   0.49999494  0.16665833  0.23376532
   0.83332507  0.49998991  0.23376165
   0.83332391  0.83333804  0.23376216
   0.83332507  0.16668502  0.23376165
   0.16666895  0.50001162  0.23375373
   0.16666895  0.83331942  0.23375373
   0.16666090  0.16666955  0.23375229
   0.61110019  0.61110381  0.31173153
   0.61105797  0.94447101  0.31172260
   0.61110019  0.27779600  0.31173153
   0.94445094  0.61111792  0.31173284
   0.94445094  0.94443114  0.31173284
   0.94440929  0.27779536  0.31174125
   0.27777005  0.61111498  0.31175052
   0.27777830  0.94444051  0.31172345
   0.27777830  0.27778119  0.31172345
   0.72218338  0.72224434  0.38971220
   0.72218338  0.05557228  0.38971220
   0.72218031  0.38890984  0.38970562
   0.05561216  0.72219392  0.38970063
   0.05556857  0.05555322  0.38970299
   0.05556857  0.38887821  0.38970299
   0.38890665  0.72215421  0.38969308
   0.38889135  0.05555433  0.38970363
   0.38890665  0.38893914  0.38969308
   0.83332193  0.83333904  0.46644073
   0.83334170  0.16667894  0.46643132
   0.83334170  0.49997936  0.46643132
   0.16665706  0.83334683  0.46645219
   0.16669367  0.16665316  0.46644192
   0.16665706  0.49999611  0.46645219
   0.49996061  0.83334414  0.46643132
   0.49996061  0.16669525  0.46643132
   0.50303271  0.49848365  0.46581765
   0.94445442  0.94444109  0.54473143
   0.94444054  0.27777973  0.54473544
   0.94445442  0.61110448  0.54473143
   0.27780772  0.94441392  0.54472735
   0.27780772  0.27777836  0.54472735
   0.27773004  0.61113498  0.54499866
   0.61111234  0.94444383  0.54470789
   0.61118135  0.27769008  0.54473002
   0.61118135  0.61112856  0.54473002
   0.27776826  0.44443492  0.07873651
   0.27776826  0.77779682  0.07873651
   0.27777641  0.11111179  0.07873711
   0.61113016  0.44443492  0.07873651
   0.61110787  0.77777454  0.07873569
   0.61110787  0.11111759  0.07873569
   0.94444513  0.44444308  0.07873711
   0.94445092  0.77777454  0.07873569
   0.94444513  0.11111179  0.07873711
   0.38888889  0.55555556  0.15704026
   0.38887747  0.88887649  0.15702742
   0.38887747  0.22224603  0.15702742
   0.72220983  0.55554414  0.15702742
   0.72222222  0.88888889  0.15703500
   0.72220983  0.22224603  0.15702742
   0.05557937  0.55554414  0.15702742
   0.05557937  0.88887649  0.15702742
   0.05555556  0.22222222  0.15701781
   0.49998565  0.66665232  0.23376567
   0.50002625 -0.00001312  0.23375220
   0.49998565  0.33336203  0.23376567
   0.83332021  0.66669291  0.23375220
   0.83332021 -0.00001312  0.23375220
   0.83334787  0.33332606  0.23375721
   0.16669537  0.66665232  0.23376567
   0.16665940  0.00001454  0.23375721
   0.16665940  0.33332606  0.23375721
   0.61111782  0.77778448  0.31173199
   0.61111782  0.11109770  0.31173199
   0.61106959  0.44446520  0.31174551
   0.94443103  0.77778448  0.31173199
   0.94445001  0.11111668  0.31171677
   0.94445001  0.44443331  0.31171677
   0.27779854  0.77773626  0.31174551
   0.27776664  0.11111668  0.31171677
   0.27779854  0.44446520  0.31174551
   0.72222222  0.88888889  0.38968621
   0.72220052  0.22223139  0.38969818
   0.72220052  0.55556809  0.38969818
   0.05556473  0.88886719  0.38969818
   0.05555556  0.22222222  0.38968444
   0.05556473  0.55556809  0.38969818
   0.38890142  0.88886719  0.38969818
   0.38890142  0.22223139  0.38969818
   0.38888889  0.55555556  0.38915520
   0.83331582 -0.00001751  0.46644094
   0.83333465  0.33333268  0.46643321
   0.83331582  0.66670169  0.46644094
   0.16666601  0.00000131  0.46643321
   0.16666601  0.33333268  0.46643321
   0.16640258  0.66679871  0.46643376
   0.50003503 -0.00001751  0.46644094
   0.50013204  0.33306925  0.46643376
   0.50013204  0.66679871  0.46643376
   0.94444742  0.11111409  0.54471423
   0.94444742  0.44443850  0.54471423
   0.94432745  0.77783628  0.54471877
   0.27777183  0.11111409  0.54471423
   0.27781303  0.44447970  0.54468436
   0.27781303  0.77770727  0.54468436
   0.61116961  0.11099412  0.54471877
   0.61104060  0.44447970  0.54468436
   0.61116961  0.77783628  0.54471877
   0.44442625  0.27779557  0.07874305
   0.44446043  0.61112710  0.07871695
   0.44443200  0.94443969  0.07873832
   0.77777390  0.27777048  0.07874672
   0.77777302  0.61109866  0.07873832
   0.77778423  0.94445090  0.07874808
   0.11112203  0.27778870  0.07874348
   0.11112891  0.61109292  0.07874305
   0.11110381  0.94444057  0.07874672
   0.55556961  0.38888270  0.15701358
   0.55555414  0.72222080  0.15702107
   0.55557147  0.05553972  0.15702691
   0.88890299  0.38886907  0.15701933
   0.88887306  0.72223814  0.15702691
   0.88889192  0.05555859  0.15701982
   0.22222707  0.38889374  0.15701657
   0.22221604  0.72223627  0.15701358
   0.22220240  0.05556965  0.15701933
   0.66665276  0.50001162  0.23375373
   0.66667138  0.83333804  0.23376216
   0.66668006  0.16665833  0.23376532
   0.00001835  0.49998991  0.23376165
  -0.00000834  0.83334673  0.23376532
   0.00000288  0.16666955  0.23375229
   0.33334204  0.50000871  0.23379229
   0.33334496  0.83331942  0.23375373
   0.33332324  0.16668502  0.23376165
   0.77776448  0.61111792  0.31173284
   0.77780435  0.94447101  0.31172260
   0.77777385  0.27778119  0.31172345
   0.11112934  0.61110381  0.31173153
   0.11111452  0.94444051  0.31172345
   0.11112869  0.27779536  0.31174125
   0.44444831  0.61111498  0.31175052
   0.44445125  0.94443114  0.31173284
   0.44443714  0.27779600  0.31173153
   0.88890562  0.72224434  0.38971220
   0.88888766  0.05555433  0.38970363
   0.88888655  0.38887821  0.38970299
   0.22227247  0.72215421  0.38969308
   0.22221154  0.05555322  0.38970299
   0.22224318  0.38890984  0.38970562
   0.55552726  0.72219392  0.38970063
   0.55557767  0.05557228  0.38971220
   0.55548754  0.38893914  0.38969308
   0.00002859  0.83334414  0.46643132
  -0.00001350  0.16665316  0.46644192
   0.00001227  0.49997936  0.46643132
   0.33332944  0.83334683  0.46645219
   0.33331270  0.16667894  0.46643132
   0.33181698  0.49848365  0.46581765
   0.66667237  0.83333904  0.46644073
   0.66667747  0.16669525  0.46643132
   0.66668016  0.49999611  0.46645219
   0.11111170  0.94441392  0.54472735
   0.11111306  0.27777973  0.54473544
   0.11102342  0.61112856  0.54473002
   0.44443782  0.94444109  0.54473143
   0.44446190  0.27769008  0.54473002
   0.44446832  0.61113498  0.54499866
   0.77777716  0.94444383  0.54470789
   0.77774725  0.27777836  0.54472735
   0.77777443  0.61110448  0.54473143
   0.38888889  0.55555556  0.49151314
Direct configuration=     3
   0.44449039  0.44435256  0.07868364
   0.44439218  0.77777892  0.07875865
   0.44440868  0.11116054  0.07874505
   0.77776664  0.44447655  0.07876917
   0.77779631  0.77774071  0.07877309
   0.77776411  0.11116054  0.07874505
   0.11109015  0.44447655  0.07876917
   0.11116224  0.77777892  0.07875865
   0.11114248  0.11104837  0.07875986
   0.55559593  0.55553296  0.15699060
   0.55560129  0.88888864  0.15702892
   0.55555148  0.22223037  0.15701212
   0.88889760  0.55553814  0.15700853
   0.88884340  0.88888864  0.15702892
   0.88892940  0.22223865  0.15700714
   0.22220445  0.55553296  0.15699060
   0.22223616  0.88886101  0.15699920
   0.22216528  0.22223865  0.15700714
   0.66670515  0.66665214  0.23378016
   0.66668020 -0.00002707  0.23377106
   0.66662670  0.33333991  0.23374685
  -0.00002396  0.66665214  0.23378016
   0.00005272 -0.00002373  0.23376962
   0.00000829  0.33331676  0.23374273
   0.33335835  0.66661663  0.23385764
   0.33330434 -0.00002373  0.23376962
   0.33336672  0.33333991  0.23374685
   0.77785411  0.77762511  0.31170753
   0.77773957  0.11112976  0.31173692
   0.77776648  0.44444594  0.31170996
   0.11116348  0.77774639  0.31173317
   0.11116161  0.11101010  0.31176110
   0.11112091  0.44444594  0.31170996
   0.44442347  0.77774639  0.31173317
   0.44446401  0.11112976  0.31173692
   0.44445555  0.44442223  0.31178772
   0.88893694  0.88877729  0.38972771
   0.88888218  0.22225962  0.38970128
   0.88888535  0.55556262  0.38970311
   0.22228243  0.88876848  0.38970882
   0.22219153  0.22225962  0.38970128
   0.22236659  0.55560659  0.38967280
   0.55561910  0.88877729  0.38972771
   0.55547425  0.22238484  0.38969449
   0.55536015  0.55560659  0.38967280
   0.00003526  0.00002403  0.46642356
  -0.00003879  0.33341092  0.46645401
   0.00008214  0.66655349  0.46642354
   0.33327404  0.00002403  0.46642356
   0.33332216  0.33330574  0.46648351
   0.32897673  0.67537988  0.46466042
   0.66668305 -0.00003276  0.46645058
   0.66670544  0.33330574  0.46648351
   0.66669771  0.66655349  0.46642354
   0.11111672  0.11109989  0.54475203
   0.11111279  0.44453047  0.54472878
   0.11085916  0.77797959  0.54473647
   0.44442540  0.11113978  0.54474051
   0.44451303  0.44430728  0.54550828
   0.44449458  0.77797959  0.54473647
   0.77776815  0.11113978  0.54474051
   0.77769007  0.44453047  0.54472878
   0.77777601  0.77778132  0.54467287
   0.27780988  0.27775681  0.07876917
   0.27768590  0.61115705  0.07868364
   0.27780988  0.94443330  0.07876917
   0.61111225  0.27782891  0.07875865
   0.61111225  0.61105884  0.07875865
   0.61107404  0.94446298  0.07877309
   0.94438171  0.27780915  0.07875986
   0.94449388  0.61107535  0.07874505
   0.94449388  0.94443077  0.07874505
   0.38886629  0.38887111  0.15699060
   0.38886629  0.72226259  0.15699060
   0.38887147  0.05556426  0.15700853
   0.72219435  0.38890283  0.15699920
   0.72222197  0.72226796  0.15702892
   0.72222197  0.05551007  0.15702892
   0.05557199  0.38883195  0.15700714
   0.05556370  0.72221815  0.15701212
   0.05557199  0.05559606  0.15700714
   0.49994996  0.50002502  0.23385764
   0.49998547  0.83337182  0.23378016
   0.49998547  0.16664271  0.23378016
   0.83330961  0.49997101  0.23376962
   0.83330627  0.83334687  0.23377106
   0.83330961  0.16671939  0.23376962
   0.16667324  0.50003339  0.23374685
   0.16667324  0.83329337  0.23374685
   0.16665010  0.16667495  0.23374273
   0.61107972  0.61109014  0.31173317
   0.61095844  0.94452078  0.31170753
   0.61107972  0.27783014  0.31173317
   0.94446309  0.61113067  0.31173692
   0.94446309  0.94440623  0.31173692
   0.94434344  0.27782828  0.31176110
   0.27775557  0.61112222  0.31178772
   0.27777927  0.94443315  0.31170996
   0.27777927  0.27778758  0.31170996
   0.72211062  0.72228577  0.38972771
   0.72211062  0.05560361  0.38972771
   0.72210181  0.38894909  0.38970882
   0.05571817  0.72214091  0.38969449
   0.05559295  0.05554885  0.38970128
   0.05559295  0.38885820  0.38970128
   0.38893992  0.72202682  0.38967280
   0.38889596  0.05555202  0.38970311
   0.38893992  0.38903326  0.38967280
   0.83330057  0.83334971  0.46645058
   0.83335736  0.16670193  0.46642356
   0.83335736  0.49994071  0.46642356
   0.16663907  0.83337210  0.46648351
   0.16674425  0.16662787  0.46645401
   0.16663907  0.49998883  0.46648351
   0.49988683  0.83336437  0.46642354
   0.49988683  0.16674880  0.46642354
   0.50871321  0.49564340  0.46466042
   0.94447311  0.94443482  0.54474051
   0.94443322  0.27778339  0.54475203
   0.94447311  0.61109207  0.54474051
   0.27786380  0.94435674  0.54472878
   0.27786380  0.27777946  0.54472878
   0.27764061  0.61117969  0.54550828
   0.61111465  0.94444267  0.54467287
   0.61131293  0.27752582  0.54473647
   0.61131293  0.61116125  0.54473647
   0.27775042  0.44441709  0.07873984
   0.27775042  0.77783249  0.07873984
   0.27777386  0.11111307  0.07874156
   0.61116583  0.44441709  0.07873984
   0.61110181  0.77776847  0.07873749
   0.61110181  0.11112972  0.07873749
   0.94444640  0.44444053  0.07874156
   0.94446305  0.77776847  0.07873749
   0.94444640  0.11111307  0.07874156
   0.38888889  0.55555556  0.15706727
   0.38885609  0.88885328  0.15703037
   0.38885609  0.22229063  0.15703037
   0.72218661  0.55552276  0.15703037
   0.72222222  0.88888889  0.15705214
   0.72218661  0.22229063  0.15703037
   0.05562397  0.55552276  0.15703037
   0.05562397  0.88885328  0.15703037
   0.05555556  0.22222222  0.15700277
   0.49995877  0.66662544  0.23378115
   0.50007541 -0.00003770  0.23374245
   0.49995877  0.33341579  0.23378115
   0.83329563  0.66674207  0.23374245
   0.83329563 -0.00003770  0.23374245
   0.83337510  0.33331245  0.23375687
   0.16674913  0.66662544  0.23378115
   0.16664578  0.00004177  0.23375687
   0.16664578  0.33331245  0.23375687
   0.61113038  0.77779705  0.31173448
   0.61113038  0.11107258  0.31173448
   0.61099182  0.44450409  0.31177333
   0.94440591  0.77779705  0.31173448
   0.94446044  0.11112711  0.31169076
   0.94446044  0.44441245  0.31169076
   0.27783742  0.77765849  0.31177333
   0.27774579  0.11112711  0.31169076
   0.27783742  0.44450409  0.31177333
   0.72222222  0.88888889  0.38965306
   0.72215987  0.22224857  0.38968745
   0.72215987  0.55559156  0.38968745
   0.05558191  0.88882654  0.38968745
   0.05555556  0.22222222  0.38964796
   0.05558191  0.55559156  0.38968745
   0.38892489  0.88882654  0.38968745
   0.38892489  0.22224857  0.38968745
   0.38888889  0.55555556  0.38812743
   0.83328302 -0.00005032  0.46645121
   0.83333711  0.33333144  0.46642900
   0.83328302  0.66676730  0.46645121
   0.16666478  0.00000378  0.46642900
   0.16666478  0.33333144  0.46642900
   0.16590793  0.66704604  0.46643055
   0.50010064 -0.00005032  0.46645121
   0.50037937  0.33257459  0.46643055
   0.50037937  0.66704604  0.46643055
   0.94445299  0.11111966  0.54469109
   0.94445299  0.44442735  0.54469109
   0.94410831  0.77794585  0.54470413
   0.27776069  0.11111966  0.54469109
   0.27787907  0.44454573  0.54460529
   0.27787907  0.77757520  0.54460529
   0.61127918  0.11077498  0.54470413
   0.61090853  0.44454573  0.54460529
   0.61127918  0.77794585  0.54470413
   0.44439218  0.27782891  0.07875865
   0.44449039  0.61115705  0.07868364
   0.44440868  0.94443077  0.07874505
   0.77776664  0.27775681  0.07876917
   0.77776411  0.61107535  0.07874505
   0.77779631  0.94446298  0.07877309
   0.11114248  0.27780915  0.07875986
   0.11116224  0.61105884  0.07875865
   0.11109015  0.94443330  0.07876917
   0.55559593  0.38887111  0.15699060
   0.55555148  0.72221815  0.15701212
   0.55560129  0.05551007  0.15702892
   0.88892940  0.38883195  0.15700714
   0.88884340  0.72226796  0.15702892
   0.88889760  0.05556426  0.15700853
   0.22223616  0.38890283  0.15699920
   0.22220445  0.72226259  0.15699060
   0.22216528  0.05559606  0.15700714
   0.66662670  0.50003339  0.23374685
   0.66668020  0.83334687  0.23377106
   0.66670515  0.16664271  0.23378016
   0.00005272  0.49997101  0.23376962
  -0.00002396  0.83337182  0.23378016
   0.00000829  0.16667495  0.23374273
   0.33335835  0.50002502  0.23385764
   0.33336672  0.83329337  0.23374685
   0.33330434  0.16671939  0.23376962
   0.77773957  0.61113067  0.31173692
   0.77785411  0.94452078  0.31170753
   0.77776648  0.27778758  0.31170996
   0.11116348  0.61109014  0.31173317
   0.11112091  0.94443315  0.31170996
   0.11116161  0.27782828  0.31176110
   0.44445555  0.61112222  0.31178772
   0.44446401  0.94440623  0.31173692
   0.44442347  0.27783014  0.31173317
   0.88893694  0.72228577  0.38972771
   0.88888535  0.05555202  0.38970311
   0.88888218  0.38885820  0.38970128
   0.22236659  0.72202682  0.38967280
   0.22219153  0.05554885  0.38970128
   0.22228243  0.38894909  0.38970882
   0.55547425  0.72214091  0.38969449
   0.55561910  0.05560361  0.38972771
   0.55536015  0.38903326  0.38967280
   0.00008214  0.83336437  0.46642354
  -0.00003879  0.16662787  0.46645401
   0.00003526  0.49994071  0.46642356
   0.33332216  0.83337210  0.46648351
   0.33327404  0.16670193  0.46642356
   0.32897673  0.49564340  0.46466042
   0.66668305  0.83334971  0.46645058
   0.66669771  0.16674880  0.46642354
   0.66670544  0.49998883  0.46648351
   0.11111279  0.94435674  0.54472878
   0.11111672  0.27778339  0.54475203
   0.11085916  0.61116125  0.54473647
   0.44442540  0.94443482  0.54474051
   0.44449458  0.27752582  0.54473647
   0.44451303  0.61117969  0.54550828
   0.77777601  0.94444267  0.54467287
   0.77769007  0.27777946  0.54472878
   0.77776815  0.61109207  0.54474051
   0.38888889  0.55555556  0.49434738
Direct configuration=     4
   0.44448625  0.44436084  0.07868825
   0.44439689  0.77777881  0.07875649
   0.44441191  0.11115609  0.07874412
   0.77776764  0.44447366  0.07876606
   0.77779464  0.77774404  0.07876964
   0.77776534  0.11115609  0.07874412
   0.11109204  0.44447366  0.07876606
   0.11115763  0.77777881  0.07875649
   0.11113965  0.11105403  0.07875760
   0.55559229  0.55553500  0.15699378
   0.55559717  0.88888866  0.15702864
   0.55555185  0.22222963  0.15701335
   0.88889681  0.55553971  0.15701009
   0.88884750  0.88888866  0.15702864
   0.88892575  0.22223717  0.15700882
   0.22220605  0.55553500  0.15699378
   0.22223490  0.88886353  0.15700160
   0.22217041  0.22223717  0.15700882
   0.66670168  0.66665345  0.23377811
   0.66667898 -0.00002463  0.23376983
   0.66663030  0.33333931  0.23374780
  -0.00002180  0.66665345  0.23377811