 254 254   0   0
  0.3019211E+02  0.1718057E-08  0.1718057E-08  0.3000000E-08  0.2000000E-15
  1.000000000000000E-004
  CAR 
 NiAl                                    
      5.10206747    -15.01911024  301      1.82805148      1.00000000
    -15.019  0.0000E+00  0.0000E+00
    -14.952  0.0000E+00  0.0000E+00
    -14.885  0.0000E+00  0.0000E+00
    -14.818  0.0000E+00  0.0000E+00
    -14.751  0.0000E+00  0.0000E+00
    -14.684  0.0000E+00  0.0000E+00
    -14.617  0.0000E+00  0.0000E+00
    -14.550  0.0000E+00  0.0000E+00
    -14.483  0.0000E+00  0.0000E+00
    -14.415  0.0000E+00  0.0000E+00
    -14.348  0.1956E-11  0.1312E-12
    -14.281  0.2118E-06  0.1421E-07
    -14.214  0.7098E-03  0.4762E-04
    -14.147  0.8397E-01  0.5680E-02
    -14.080  0.4779E+00  0.3774E-01
    -14.013  0.1792E+00  0.4976E-01
    -13.946  0.3612E-02  0.5000E-01
    -13.879  0.2737E-05  0.5000E-01
    -13.812  0.6577E-10  0.5000E-01
    -13.745  0.0000E+00  0.5000E-01
    -13.678  0.0000E+00  0.5000E-01
    -13.611  0.0000E+00  0.5000E-01
    -13.544  0.0000E+00  0.5000E-01
    -13.476  0.0000E+00  0.5000E-01
    -13.409  0.0000E+00  0.5000E-01
    -13.342  0.0000E+00  0.5000E-01
    -13.275  0.1241E-15  0.5000E-01
    -13.208  0.1434E-09  0.5000E-01
    -13.141  0.4782E-05  0.5000E-01
    -13.074  0.5088E-02  0.5034E-01
    -13.007  0.2071E+00  0.6424E-01
    -12.940  0.4646E+00  0.9540E-01
    -12.873  0.6817E-01  0.9997E-01
    -12.806  0.4692E-03  0.1000E+00
    -12.739  0.1126E-06  0.1000E+00
    -12.672  0.8315E-12  0.1000E+00
    -12.605  0.0000E+00  0.1000E+00
    -12.537  0.0000E+00  0.1000E+00
    -12.470  0.0000E+00  0.1000E+00
    -12.403  0.0000E+00  0.1000E+00
    -12.336  0.0000E+00  0.1000E+00
    -12.269  0.0000E+00  0.1000E+00
    -12.202  0.0000E+00  0.1000E+00
    -12.135  0.0000E+00  0.1000E+00
    -12.068  0.0000E+00  0.1000E+00
    -12.001  0.0000E+00  0.1000E+00
    -11.934  0.0000E+00  0.1000E+00
    -11.867  0.0000E+00  0.1000E+00
    -11.800  0.0000E+00  0.1000E+00
    -11.733  0.0000E+00  0.1000E+00
    -11.666  0.0000E+00  0.1000E+00
    -11.599  0.0000E+00  0.1000E+00
    -11.531  0.0000E+00  0.1000E+00
    -11.464  0.0000E+00  0.1000E+00
    -11.397  0.0000E+00  0.1000E+00
    -11.330  0.0000E+00  0.1000E+00
    -11.263  0.0000E+00  0.1000E+00
    -11.196  0.0000E+00  0.1000E+00
    -11.129  0.0000E+00  0.1000E+00
    -11.062  0.0000E+00  0.1000E+00
    -10.995  0.0000E+00  0.1000E+00
    -10.928  0.0000E+00  0.1000E+00
    -10.861  0.0000E+00  0.1000E+00
    -10.794  0.0000E+00  0.1000E+00
    -10.727  0.0000E+00  0.1000E+00
    -10.660  0.0000E+00  0.1000E+00
    -10.592  0.0000E+00  0.1000E+00
    -10.525  0.0000E+00  0.1000E+00
    -10.458  0.0000E+00  0.1000E+00
    -10.391  0.0000E+00  0.1000E+00
    -10.324  0.0000E+00  0.1000E+00
    -10.257  0.0000E+00  0.1000E+00
    -10.190  0.0000E+00  0.1000E+00
    -10.123  0.0000E+00  0.1000E+00
    -10.056  0.0000E+00  0.1000E+00
     -9.989  0.0000E+00  0.1000E+00
     -9.922  0.0000E+00  0.1000E+00
     -9.855  0.0000E+00  0.1000E+00
     -9.788  0.0000E+00  0.1000E+00
     -9.721  0.0000E+00  0.1000E+00
     -9.653  0.0000E+00  0.1000E+00
     -9.586  0.0000E+00  0.1000E+00
     -9.519  0.0000E+00  0.1000E+00
     -9.452  0.0000E+00  0.1000E+00
     -9.385  0.1862E-15  0.1000E+00
     -9.318  0.1397E-09  0.1000E+00
     -9.251  0.3133E-05  0.1000E+00
     -9.184  0.2273E-02  0.1002E+00
     -9.117  0.6518E-01  0.1045E+00
     -9.050  0.1102E+00  0.1119E+00
     -8.983  0.1692E+00  0.1233E+00
     -8.916  0.6612E+00  0.1676E+00
     -8.849  0.2867E+00  0.1868E+00
     -8.782  0.3725E-01  0.1893E+00
     -8.714  0.1276E+00  0.1979E+00
     -8.647  0.3563E+00  0.2218E+00
     -8.580  0.1095E+01  0.2952E+00
     -8.513  0.6068E+00  0.3359E+00
     -8.446  0.7852E+00  0.3886E+00
     -8.379  0.4311E+00  0.4175E+00
     -8.312  0.1790E+00  0.4295E+00
     -8.245  0.4595E+00  0.4603E+00
     -8.178  0.5183E+00  0.4951E+00
     -8.111  0.5978E+00  0.5352E+00
     -8.044  0.5728E+00  0.5736E+00
     -7.977  0.8337E+00  0.6295E+00
     -7.910  0.1814E+01  0.7512E+00
     -7.843  0.7285E+00  0.8001E+00
     -7.775  0.1813E+00  0.8122E+00
     -7.708  0.3141E-01  0.8143E+00
     -7.641  0.1012E+01  0.8822E+00
     -7.574  0.2423E+01  0.1045E+01
     -7.507  0.5385E+00  0.1081E+01
     -7.440  0.7769E+00  0.1133E+01
     -7.373  0.6349E+00  0.1175E+01
     -7.306  0.3386E+00  0.1198E+01
     -7.239  0.5494E+00  0.1235E+01
     -7.172  0.6628E+00  0.1280E+01
     -7.105  0.1350E+01  0.1370E+01
     -7.038  0.8156E+00  0.1425E+01
     -6.971  0.1852E+01  0.1549E+01
     -6.904  0.1931E+01  0.1679E+01
     -6.836  0.5761E+00  0.1717E+01
     -6.769  0.1455E+01  0.1815E+01
     -6.702  0.7992E+00  0.1868E+01
     -6.635  0.1774E+01  0.1987E+01
     -6.568  0.1977E+01  0.2120E+01
     -6.501  0.5351E+00  0.2156E+01
     -6.434  0.5941E+00  0.2196E+01
     -6.367  0.4555E+00  0.2226E+01
     -6.300  0.3384E+00  0.2249E+01
     -6.233  0.1336E+00  0.2258E+01
     -6.166  0.1142E+01  0.2334E+01
     -6.099  0.2910E+01  0.2530E+01
     -6.032  0.1688E+01  0.2643E+01
     -5.965  0.2634E+01  0.2819E+01
     -5.898  0.1092E+01  0.2893E+01
     -5.830  0.7338E+00  0.2942E+01
     -5.763  0.1225E+01  0.3024E+01
     -5.696  0.1582E+01  0.3130E+01
     -5.629  0.2610E+01  0.3305E+01
     -5.562  0.1517E+01  0.3407E+01
     -5.495  0.7524E+00  0.3458E+01
     -5.428  0.9257E+00  0.3520E+01
     -5.361  0.8415E+00  0.3576E+01
     -5.294  0.1582E+01  0.3682E+01
     -5.227  0.7270E+00  0.3731E+01
     -5.160  0.1766E+01  0.3849E+01
     -5.093  0.2422E+01  0.4012E+01
     -5.026  0.1829E+01  0.4134E+01
     -4.959  0.1562E+01  0.4239E+01
     -4.891  0.4613E+00  0.4270E+01
     -4.824  0.9866E+00  0.4336E+01
     -4.757  0.1847E+01  0.4460E+01
     -4.690  0.2556E+01  0.4632E+01
     -4.623  0.2427E+01  0.4794E+01
     -4.556  0.5786E+00  0.4833E+01
     -4.489  0.1570E+01  0.4938E+01
     -4.422  0.1536E+01  0.5041E+01
     -4.355  0.1250E+01  0.5125E+01
     -4.288  0.1716E+01  0.5240E+01
     -4.221  0.2370E+01  0.5399E+01
     -4.154  0.2774E+01  0.5585E+01
     -4.087  0.2451E+01  0.5750E+01
     -4.020  0.1695E+01  0.5864E+01
     -3.952  0.1060E+01  0.5935E+01
     -3.885  0.1802E+01  0.6055E+01
     -3.818  0.2265E+01  0.6207E+01
     -3.751  0.1611E+01  0.6315E+01
     -3.684  0.2102E+01  0.6456E+01
     -3.617  0.1428E+01  0.6552E+01
     -3.550  0.1246E+01  0.6636E+01
     -3.483  0.1235E+01  0.6718E+01
     -3.416  0.8313E+00  0.6774E+01
     -3.349  0.1889E+01  0.6901E+01
     -3.282  0.1260E+01  0.6985E+01
     -3.215  0.1739E+01  0.7102E+01
     -3.148  0.2168E+01  0.7247E+01
     -3.081  0.1981E+01  0.7380E+01
     -3.013  0.2612E+01  0.7556E+01
     -2.946  0.2254E+01  0.7707E+01
     -2.879  0.3058E+01  0.7912E+01
     -2.812  0.3017E+01  0.8114E+01
     -2.745  0.3484E+01  0.8348E+01
     -2.678  0.2445E+01  0.8512E+01
     -2.611  0.4837E+00  0.8544E+01
     -2.544  0.1510E+01  0.8646E+01
     -2.477  0.1590E+01  0.8752E+01
     -2.410  0.1384E+01  0.8845E+01
     -2.343  0.1385E+01  0.8938E+01
     -2.276  0.2934E+01  0.9135E+01
     -2.209  0.2233E+01  0.9285E+01
     -2.142  0.2108E+01  0.9426E+01
     -2.074  0.2532E+01  0.9596E+01
     -2.007  0.1237E+01  0.9679E+01
     -1.940  0.2003E+01  0.9813E+01
     -1.873  0.2248E+01  0.9964E+01
     -1.806  0.2419E+01  0.1013E+02
     -1.739  0.3531E+01  0.1036E+02
     -1.672  0.1673E+01  0.1048E+02
     -1.605  0.1037E+01  0.1054E+02
     -1.538  0.1995E+01  0.1068E+02
     -1.471  0.2513E+01  0.1085E+02
     -1.404  0.1622E+01  0.1096E+02
     -1.337  0.3493E+01  0.1119E+02
     -1.270  0.3338E+01  0.1141E+02
     -1.203  0.2456E+01  0.1158E+02
     -1.135  0.2880E+01  0.1177E+02
     -1.068  0.2051E+01  0.1191E+02
     -1.001  0.2239E+01  0.1206E+02
     -0.934  0.2210E+01  0.1221E+02
     -0.867  0.2855E+01  0.1240E+02
     -0.800  0.2686E+01  0.1258E+02
     -0.733  0.1876E+01  0.1271E+02
     -0.666  0.1621E+01  0.1281E+02
     -0.599  0.1643E+01  0.1292E+02
     -0.532  0.2063E+01  0.1306E+02
     -0.465  0.2918E+01  0.1326E+02
     -0.398  0.4254E+01  0.1354E+02
     -0.331  0.3042E+01  0.1375E+02
     -0.264  0.2881E+01  0.1394E+02
     -0.197  0.2658E+01  0.1412E+02
     -0.129  0.1390E+01  0.1421E+02
     -0.062  0.1853E+01  0.1434E+02
      0.005  0.1296E+01  0.1442E+02
      0.072  0.2876E+01  0.1462E+02
      0.139  0.2370E+01  0.1478E+02
      0.206  0.1611E+01  0.1488E+02
      0.273  0.2421E+01  0.1505E+02
      0.340  0.2010E+01  0.1518E+02
      0.407  0.2107E+01  0.1532E+02
      0.474  0.2859E+01  0.1551E+02
      0.541  0.3160E+01  0.1573E+02
      0.608  0.1775E+01  0.1584E+02
      0.675  0.1743E+01  0.1596E+02
      0.742  0.1527E+01  0.1606E+02
      0.810  0.1415E+01  0.1616E+02
      0.877  0.1635E+01  0.1627E+02
      0.944  0.3525E+01  0.1650E+02
      1.011  0.5639E+01  0.1688E+02
      1.078  0.4053E+01  0.1715E+02
      1.145  0.3026E+01  0.1736E+02
      1.212  0.2243E+01  0.1751E+02
      1.279  0.1806E+01  0.1763E+02
      1.346  0.2213E+01  0.1778E+02
      1.413  0.2201E+01  0.1793E+02
      1.480  0.1654E+01  0.1804E+02
      1.547  0.2850E+01  0.1823E+02
      1.614  0.3934E+01  0.1849E+02
      1.681  0.4110E+01  0.1877E+02
      1.749  0.3073E+01  0.1897E+02
      1.816  0.2316E+01  0.1913E+02
      1.883  0.1804E+01  0.1925E+02
      1.950  0.2644E+01  0.1943E+02
      2.017  0.3467E+01  0.1966E+02
      2.084  0.1984E+01  0.1979E+02
      2.151  0.2005E+01  0.1993E+02
      2.218  0.1936E+01  0.2006E+02
      2.285  0.2195E+01  0.2020E+02
      2.352  0.2401E+01  0.2037E+02
      2.419  0.2601E+01  0.2054E+02
      2.486  0.2394E+01  0.2070E+02
      2.553  0.1989E+01  0.2083E+02
      2.620  0.3457E+01  0.2107E+02
      2.688  0.2700E+01  0.2125E+02
      2.755  0.2054E+01  0.2138E+02
      2.822  0.2867E+01  0.2158E+02
      2.889  0.2866E+01  0.2177E+02
      2.956  0.6827E+01  0.2223E+02
      3.023  0.4731E+01  0.2254E+02
      3.090  0.2490E+01  0.2271E+02
      3.157  0.2086E+01  0.2285E+02
      3.224  0.2411E+01  0.2301E+02
      3.291  0.2518E+01  0.2318E+02
      3.358  0.4019E+01  0.2345E+02
      3.425  0.2971E+01  0.2365E+02
      3.492  0.2847E+01  0.2384E+02
      3.559  0.2581E+01  0.2401E+02
      3.627  0.1995E+01  0.2415E+02
      3.694  0.2636E+01  0.2432E+02
      3.761  0.2785E+01  0.2451E+02
      3.828  0.1851E+01  0.2464E+02
      3.895  0.2757E+01  0.2482E+02
      3.962  0.3918E+01  0.2508E+02
      4.029  0.3684E+01  0.2533E+02
      4.096  0.3228E+01  0.2555E+02
      4.163  0.2899E+01  0.2574E+02
      4.230  0.8287E+00  0.2580E+02
      4.297  0.4168E-01  0.2580E+02
      4.364  0.2093E-03  0.2580E+02
      4.431  0.5480E-07  0.2580E+02
      4.498  0.4933E-12  0.2580E+02
      4.566  0.0000E+00  0.2580E+02
      4.633  0.0000E+00  0.2580E+02
      4.700  0.0000E+00  0.2580E+02
      4.767  0.0000E+00  0.2580E+02
      4.834  0.0000E+00  0.2580E+02
      4.901  0.0000E+00  0.2580E+02
      4.968  0.0000E+00  0.2580E+02
      5.035  0.0000E+00  0.2580E+02
      5.102  0.0000E+00  0.2580E+02
