         262
 Energy:  -928.41045220000001     
 X   0.00000000       0.00000000       0.00000000    
 X   0.00000000      -17.1805725       0.00000000    
 X   0.00000000      -8.59028625      -14.8788128    
 X   30.0000000       0.00000000       0.00000000    
 X   0.00000000      -25.7708588      -14.8788128    
 X   30.0000000      -17.1805725       0.00000000    
 X   30.0000000      -8.59028625      -14.8788128    
 X   30.0000000      -25.7708588      -14.8788128    
 Al   16.4439507      -12.9376402      -9.12275028    
 Al   16.2822094      -14.3899899      -6.57075024    
 Al   16.3373108      -15.7641802      -4.11330986    
 Al   16.3367100      -17.1810398      -1.65347004    
 Al   16.3318901      -18.6155605      -4.13111019    
 Al   16.3367100      -20.0440006      -6.61226988    
 Al   16.3431492      -18.6112709      -9.09716988    
 Al   16.3515396      -17.1690807      -11.5657701    
 Al   16.3431492      -15.7523003      -14.0490503    
 Al   16.3271103      -18.6119003      -14.0524397    
 Al   16.3271103      -21.4761105      -14.0524397    
 Al   16.3515396      -22.9189301      -11.5657701    
 Al   16.3431492      -21.4767399      -9.09716988    
 Al   13.9885502      -20.0440006      -9.91751957    
 Al   13.9873304      -18.6103497      -12.3978901    
 Al   11.6967001      -20.0440006      -13.2256098    
 Al   11.6911297      -21.4792805      -10.7430801    
 Al   9.35289001      -22.9064407      -11.5729799    
 Al   9.35383034      -21.4744492      -14.0514803    
 Al   9.35109997      -24.3428993      -14.0538397    
 Al   11.6911297      -22.9115696      -13.2238903    
 Al   13.9873304      -21.4776497      -12.3978901    
 Al   16.3271103      -20.0440006      -11.5719604    
 Al   16.3373108      -17.2052898      -6.60937977    
 Al   13.9794598      -15.7666998      -7.43983984    
 Al   13.9853201      -17.1907597      -4.95372009    
 Al   11.6883602      -18.6108704      -5.78883982    
 Al   11.6867304      -17.1757698      -8.26881981    
 Al   9.35109997      -18.6118202      -9.08854961    
 Al   9.35289001      -17.1815701      -11.5729799    
 Al   7.01515007      -18.6151505      -12.4006596    
 Al   7.01658010      -20.0440006      -9.92591953    
 Al   4.71038008      -21.4766293      -10.7481604    
 Al   4.70238018      -20.0440006      -13.2256098    
 Al   2.35502005      -21.4790592      -14.0541401    
 Al   2.36761999      -22.9097805      -11.5710497    
 Al   2.37217999      -24.3370609      -14.0507698    
 Al   4.71038008      -22.9058495      -13.2236404    
 Al   7.01515007      -21.4728508      -12.4006596    
 Al   9.35383034      -20.0440006      -11.5738697    
 Al   11.6911297      -18.6087208      -10.7430801    
 Al   13.9984198      -17.1803207      -9.92306995    
 Al   11.6980696      -15.7425098      -10.7421398    
 Al   13.9984198      -15.7520800      -12.3968601    
 Al   13.9794598      -12.8947296      -12.4142504    
 Al   16.2822094      -11.4537201      -11.6565304    
 Al   16.3373108      -10.0126104      -14.0753298    
 Al   16.3373108      -12.8948202      -14.0753298    
 Al   16.3567696      -14.3030796      -11.5800600    
 Al   14.0103703      -14.3057699      -9.91263962    
 Al   16.3567696      -15.7484503      -9.07660007    
 Al   9.35383034      -18.6135502      -14.0514803    
 Al   9.35109997      -15.7451096      -14.0538397    
 Al   11.6867304      -14.3171797      -13.2200403    
 Al   11.6997299      -12.8813400      -10.7392101    
 Al   11.6997299      -10.0260897      -10.7392101    
 Al   11.6867304      -8.59025002      -13.2200403    
 Al   13.9984198      -24.3359203      -12.3968601    
 Al   14.0103703      -8.60165977      -9.91263962    
 Al   16.4439507      -9.96979046      -9.12275028    
 Al   16.3567696      -7.15897989      -9.07660007    
 Al   16.2822094      -8.51743984      -6.57075024    
 Al   16.3567696      -10.0083504      -4.14135981    
 Al   16.3515396      -11.4537201      -1.66647995    
 Al   13.9984198      -12.8819599      -2.47809005    
 Al   13.9885502      -14.3186102      -8.50000011E-04
 Al   11.6878796      -15.7479897     -0.826099992    
 Al   11.6867304      -14.3122997      -3.30914998    
 Al   9.35138035      -15.7456102      -4.13579988    
 Al   9.35929012      -14.3099699      -6.61695004    
 Al   7.01747990      -15.7408199      -7.44076014    
 Al   7.01268005      -14.3104696      -9.91534996    
 Al   4.71907997      -15.7468700      -10.7446604    
 Al   4.71726990      -14.3157101      -13.2254295    
 Al   7.01747990      -12.8825798      -12.3913698    
 Al   9.35929012      -11.4537201      -11.5641203    
 Al   9.35138035      -10.0228004      -14.0480003    
 Al   9.35138035      -12.8846302      -14.0480003    
 Al   11.6863604      -11.4537201      -13.2257996    
 Al   13.9794598      -10.0127001      -12.4142504    
 Al   16.3567696      -8.60435009      -11.5800600    
 Al   9.35109997      -21.4761791      -9.08854961    
 Al   9.35517025      -20.0440006      -6.60957003    
 Al   9.35816956      -18.6119804      -4.13318014    
 Al   9.35517025      -17.1833706      -1.65481997    
 Al   7.01823997      -15.7497196      -2.48123002    
 Al   7.02108002      -12.8839197      -2.47949004    
 Al   7.01268005      -11.4537201      -4.96730995    
 Al   4.71093988      -12.8825598      -5.79212999    
 Al   4.70695019      -11.4537201      -8.26601028    
 Al   2.35477996      -12.8813896      -9.09027958    
 Al   2.35466003      -14.3178701      -6.61239004    
 Al   2.36887002      -15.7508698      -4.13240004    
 Al   4.71726990      -14.3177099      -3.30773997    
 Al   4.71038008      -12.8829403     -0.826219976    
 Al   4.71707010      -15.7511396     -0.827920020    
 Al   7.01658010      -22.9016209      -14.8754501    
 Al   9.35109997      -14.3204298      -1.65564001    
 Al   9.35289001      -11.4537201      -1.65205002    
 Al   11.6911297      -10.0214195     -0.831049979    
 Al   13.9885397      -8.58882046      -8.50000011E-04
 Al   13.9934797      -7.16161013      -2.47666001    
 Al   13.9853096      -5.71667004      -4.95372009    
 Al   13.9934797      -21.4745102      -7.44361019    
 Al   11.6867199      -5.73165989      -8.26881981    
 Al   11.6863499      -7.15841007      -5.78610992    
 Al   9.35929012      -8.59745979      -6.61695004    
 Al   9.35268021      -7.16559982      -9.09202003    
 Al   7.01267004      -8.59696007      -9.91534996    
 Al   7.02107000      -24.3381195      -12.3978596    
 Al   4.71725988      -8.59171963      -13.2254295    
 Al   4.71093988      -10.0256996      -10.7403603    
 Al   2.35465002      -11.4537201      -11.5732498    
 Al   2.36886001      -10.0224895      -14.0542603    
 Al   2.36886001      -12.8849401      -14.0542603    
 Al   2.37217999      -15.7509403      -14.0507698    
 Al   2.36761999      -17.1782303      -11.5710497    
 Al   2.37217999      -18.6120796      -9.09512997    
 Al   4.71726990      -17.1797009      -8.26484966    
 Al   7.01823997      -18.6114807      -7.43795013    
 Al   4.71341991      -18.6116104      -5.78355980    
 Al   7.01683998      -17.1808109      -4.95946980    
 Al   4.71456003      -15.7461004      -5.78779984    
 Al   7.01747990      -14.3119497      -4.96588993    
 Al   9.35268974      -12.8824301      -4.13938999    
 Al   11.6980600      -11.4537201      -3.31374002    
 Al   9.35268021      -10.0249996      -4.13938999    
 Al   11.6997204      -10.0256701      -5.79304981    
 Al   14.0103598      -11.4537096      -4.97273016    
 Al   13.9966698      -10.0158005      -7.43582010    
 Al   11.6742401      -11.4537096      -8.26601028    
 Al   9.36065960      -12.8851900      -9.09247971    
 Al   9.36065006      -10.0222197      -9.09247971    
 Al   7.01771021      -10.0253496      -7.44133997    
 Al   7.01746988      -7.16660976      -7.44075012    
 Al   7.01822996      -4.29594994      -7.43794012    
 Al   7.01682997      -5.72662020      -4.95945978    
 Al   4.71455002      -7.16133022      -5.78779984    
 Al   4.71725988      -8.58971977      -3.30773997    
 Al   4.71037006      -10.0244999     -0.826219976    
 Al   7.01657009      -17.1863899      -14.8754501    
 Al   7.01822996      -7.15772009      -2.48123002    
 Al   9.35136986      -7.16181993      -4.13578987    
 Al   9.35816002      -4.29545021      -4.13317013    
 Al   11.6849804      -2.86342001      -3.30639005    
 Al   13.9863997      -1.43262994      -2.48032999    
 Al   13.9853096      -2.86342001      -1.17499996E-02
 Al   11.6883497      -4.29671001     -0.824039996    
 Al   9.35515976      -5.72406006      -1.65480995    
 Al   11.6878700      -7.15944004     -0.826089978    
 Al   11.6867199      -8.59512043      -3.30913997    
 Al   13.9984102      -10.0254602      -2.47809005    
 Al   16.3431396      -8.59473991      -1.65179002    
 Al   16.3367004      -5.72637987      -1.65346003    
 Al   16.3318806      -4.29186010      -4.13110018    
 Al   16.3372993      -7.14323997      -4.11329985    
 Al   16.3372993      -5.70212984      -6.60937023    
 Al   13.9794502      -7.14071989      -7.43982983    
 Al   13.9794502      -8.58172989      -4.94393015    
 Al   7.01772022      -12.8820801      -7.44133997    
 Al   9.36065960      -11.4537201      -6.61307001    
 Al   11.6911297      -12.8860102     -0.831049979    
 Al   13.9873304      -11.4537201      -2.24000006E-03
 Al   13.9934902      -18.6134892      -7.44361019    
 Al   11.6878796      -20.0440006      -8.26700974    
 Al   2.37468004      -14.3126297      -11.5728397    
 Al   4.71093988      -12.8817396      -10.7403603    
 Al   7.01772022      -11.4537096      -9.91534042    
 Al   7.01746988      -10.0248404      -12.3913698    
 Al   9.35268021      -8.59430027      -11.5666199    
 Al   11.6980600      -7.16490984      -10.7421398    
 Al   13.9984102      -22.9076691      -9.92306995    
 Al   2.37468004      -15.7469702      -9.08848953    
 Al   4.71093988      -14.3105803      -8.26552963    
 Al   4.71455002      -11.4537201      -13.2224197    
 Al   2.36888003      -17.1821003      -6.61136007    
 Al   2.36664009      -20.0440006      -6.61328983    
 Al   2.37219000      -21.4759197      -9.09512997    
 Al   4.71708012      -20.0439892      -8.26336956    
 Al   4.71038008      -18.6113701      -10.7481604    
 Al   7.02108002      -17.1800804      -9.92066956    
 Al   9.35268974      -15.7418203      -9.09202003    
 Al   11.6997299      -14.3093700      -8.26576042    
 Al   13.9966803      -12.8915997      -7.43583012    
 Al   11.6997299      -12.8817501      -5.79304981    
 Al   11.6863604      -15.7490196      -5.78610992    
 Al   13.9794598      -14.3256702      -4.94393015    
 Al   16.3567696      -12.8990698      -4.14136982    
 Al   16.3431606      -14.3126602      -1.65181005    
 Al   13.9934998      -15.7458000      -2.47666001    
 Al   11.6883698      -17.1775703      -3.30631995    
 Al   2.35909009      -18.6111698      -4.13364983    
 Al   2.36664009      -17.1801605      -1.65295994    
 Al   4.71342993      -17.1825294      -3.30831003    
 Al   7.02108002      -15.7498798      -12.3978596    
 Al   9.35268974      -14.3131104      -11.5666199    
 Al   2.35503006      -20.0440006      -11.5685396    
 Al   2.35502005      -18.6089401      -14.0541401    
 Al   4.71038008      -17.1821404      -13.2236404    
 Al   2.37217999      -14.3148699      -1.65211999    
 Al   2.36760998      -11.4537296      -1.65591002    
 Al   2.37466002      -10.0193901      -4.13670015    
 Al   2.35462999      -8.58957005      -6.61239004    
 Al   2.37463999      -7.16047001      -9.08848953    
 Al   4.71722984      -5.72772980      -8.26484966    
 Al   4.71903992      -7.16056013      -10.7446604    
 Al   7.02103996      -22.9078999      -9.92066956    
 Al   2.37467003      -12.8880596      -4.13670015    
 Al   4.71906996      -11.4537201      -3.30870008    
 Al   7.02105999      -10.0235004      -2.47949004    
 Al   9.35107994      -8.58699036      -1.65565002    
 Al   4.71091986      -10.0248699      -5.79212999    
 Al   7.01745987      -8.59547043      -4.96588993    
 Al   2.35475993      -11.4537296      -6.61746979    
 Al   2.35474992      -10.0260496      -9.09027958    
 Al   4.71090984      -8.59685040      -8.26552963    
 Al   2.37465000      -8.59480953      -11.5728397    
 Al   7.01514006      -20.0440006      -14.8755198    
 Al   9.35136986      -17.1765099      -6.61422014    
 Al   9.35138035      -5.73090982      -6.61422014    
 Al   11.6883602      -4.29657984      -5.78883982    
 Al   13.9864197      -2.86345005      -4.95852995    
 Al   13.9869099      -4.29483986      -2.48069000    
 Al   16.3323994      -2.86405993      -1.65734005    
 Al   11.6911297      -17.1764297      -13.2238903    
 Al   11.6997204      -8.59805012      -8.26574993    
 Al   11.6883602      -5.72984982      -3.30631995    
 Al   13.9966898      -11.4537201      -9.92636013    
 Al   13.9934902      -14.3213902      -14.8777399    
 Al   16.4439507      -11.4537001      -6.55251980    
 Al   2.36882997      -5.72533989      -6.61135006    
 Al   2.35904002      -4.29626989      -4.13364983    
 Al   4.70754004      -2.86343002      -3.30640006    
 Al   7.01859999      -1.43467999      -2.48151994    
 Al   7.01679993      -2.86342001      -2.69999990E-04
 Al   4.71338987      -4.29251003     -0.827340007    
 Al   2.36660004      -5.72728014      -1.65295994    
 Al   4.71705008      -7.15629005     -0.827920020    
 Al   7.01820993      -5.72518015      -2.99999992E-05
 Al   7.01859999      -4.29216003      -2.48151994    
 Al   9.35813046      -2.86342001      -1.65285003    
 Al   11.6883202      -1.43011999     -0.824060023    
 Al   13.9934397      -25.7665901      -14.8777704    
 Al   2.36883998      -7.15656996      -4.13240004    
 Al   4.71338987      -5.72489977      -3.30831003    
 Al   4.71337986      -4.29582024      -5.78355980    
 Al   7.01859999      -2.86342001      -4.95617008    
 Al   2.37215996      -8.59257984      -1.65211999    
 Al   2.35904002      -2.86344004      -1.65190995    
 Al   4.71337986      -1.43434000     -0.827340007    
 Al   7.01819992      -1.67000003E-03  -2.99999992E-05
 Al   16.3431492      -24.3356991      -14.0490503    
 N    14.5000000      -11.4537201      -8.26601028    
 N    15.5000000      -11.2140903      -7.87874985    
         262
 Energy:  -931.87589620000006     
 X   0.00000000       0.00000000       0.00000000    
 X   0.00000000      -17.1805725       0.00000000    
 X   0.00000000      -8.59028625      -14.8788128    
 X   30.0000000       0.00000000       0.00000000    
 X   0.00000000      -25.7708588      -14.8788128    
 X   30.0000000      -17.1805725       0.00000000    
 X   30.0000000      -8.59028625      -14.8788128    
 X   30.0000000      -25.7708588      -14.8788128    
 Al   16.4583702      -12.9541101      -9.13259983    
 Al   16.2838802      -14.3839598      -6.57446003    
 Al   16.3375397      -15.7641201      -4.11316013    
 Al   16.3366604      -17.1808605      -1.65342999    
 Al   16.3320007      -18.6161308      -4.13075018    
 Al   16.3365898      -20.0441799      -6.61207008    
 Al   16.3433609      -18.6108894      -9.09696007    
 Al   16.3511105      -17.1705799      -11.5666399    
 Al   16.3433399      -15.7517796      -14.0487404    
 Al   16.3270607      -18.6117992      -14.0526695    
 Al   16.3271809      -21.4760494      -14.0522804    
 Al   16.3516293      -22.9180107      -11.5664501    
 Al   16.3434200      -21.4768200      -9.09698009    
 Al   13.9891100      -20.0436993      -9.91767025    
 Al   13.9872503      -18.6106205      -12.3980503    
 Al   11.6966000      -20.0438995      -13.2252302    
 Al   11.6910601      -21.4796505      -10.7437601    
 Al   9.35336018      -22.9062500      -11.5727100    
 Al   9.35406971      -21.4751091      -14.0519600    
 Al   9.35120964      -24.3426991      -14.0541401    
 Al   11.6909599      -22.9114399      -13.2234297    
 Al   13.9874401      -21.4766598      -12.3983402    
 Al   16.3271294      -20.0441704      -11.5716200    
 Al   16.3378906      -17.2055092      -6.60918999    
 Al   13.9793396      -15.7669897      -7.43981981    
 Al   13.9853001      -17.1902504      -4.95377016    
 Al   11.6880798      -18.6110001      -5.78868008    
 Al   11.6865301      -17.1759701      -8.26900005    
 Al   9.35097980      -18.6117706      -9.08887005    
 Al   9.35295010      -17.1818199      -11.5731001    
 Al   7.01511002      -18.6149502      -12.4006701    
 Al   7.01621008      -20.0441303      -9.92566967    
 Al   4.71081018      -21.4766407      -10.7484102    
 Al   4.70287991      -20.0445194      -13.2257700    
 Al   2.35548997      -21.4791107      -14.0538702    
 Al   2.36730003      -22.9099293      -11.5711098    
 Al   2.37214994      -24.3373394      -14.0507498    
 Al   4.71074009      -22.9056797      -13.2235403    
 Al   7.01487017      -21.4727497      -12.4007597    
 Al   9.35379982      -20.0442905      -11.5731697    
 Al   11.6912403      -18.6080894      -10.7435703    
 Al   13.9980898      -17.1806507      -9.92273998    
 Al   11.6977596      -15.7420797      -10.7419205    
 Al   13.9981298      -15.7517996      -12.3971796    
 Al   13.9794302      -12.8947001      -12.4139299    
 Al   16.2833900      -11.4534798      -11.6472502    
 Al   16.3379402      -10.0123997      -14.0756702    
 Al   16.3380203      -12.8950195      -14.0758696    
 Al   16.3569603      -14.3054399      -11.5818701    
 Al   14.0118399      -14.3091202      -9.91438961    
 Al   16.3569908      -15.7512503      -9.07793999    
 Al   9.35377979      -18.6127796      -14.0520201    
 Al   9.35109997      -15.7451000      -14.0537796    
 Al   11.6862803      -14.3175602      -13.2203102    
 Al   11.6997004      -12.8814201      -10.7384300    
 Al   11.6994696      -10.0258799      -10.7391796    
 Al   11.6866503      -8.59004021      -13.2202902    
 Al   13.9979000      -24.3364792      -12.3970003    
 Al   14.0127296      -8.60027027      -9.91308022    
 Al   16.4611092      -9.95265007      -9.13393974    
 Al   16.3566208      -7.15763998      -9.07726955    
 Al   16.2880592      -8.51727962      -6.57125998    
 Al   16.3559704      -10.0081797      -4.13968992    
 Al   16.3515701      -11.4537096      -1.66589999    
 Al   13.9982300      -12.8823900      -2.47886992    
 Al   13.9886999      -14.3183899      -4.49999992E-04
 Al   11.6875401      -15.7480803     -0.826319993    
 Al   11.6865797      -14.3126097      -3.30882001    
 Al   9.35138988      -15.7457504      -4.13574982    
 Al   9.35960960      -14.3097496      -6.61708021    
 Al   7.01722002      -15.7410803      -7.44070005    
 Al   7.01274014      -14.3104095      -9.91539001    
 Al   4.71915007      -15.7471905      -10.7449799    
 Al   4.71745014      -14.3154297      -13.2252903    
 Al   7.01754999      -12.8827000      -12.3917303    
 Al   9.35933971      -11.4538097      -11.5639601    
 Al   9.35136986      -10.0228004      -14.0480099    
 Al   9.35122013      -12.8846703      -14.0482903    
 Al   11.6864204      -11.4536896      -13.2252903    
 Al   13.9793797      -10.0124197      -12.4141102    
 Al   16.3567600      -8.60196018      -11.5815697    
 Al   9.35114956      -21.4761791      -9.08913040    
 Al   9.35445976      -20.0438499      -6.60944986    
 Al   9.35840034      -18.6117592      -4.13330984    
 Al   9.35513973      -17.1832504      -1.65468001    
 Al   7.01808023      -15.7494602      -2.48126006    
 Al   7.02084017      -12.8841801      -2.47941995    
 Al   7.01288986      -11.4537802      -4.96733999    
 Al   4.71084023      -12.8831100      -5.79179001    
 Al   4.70761013      -11.4538498      -8.26638031    
 Al   2.35425997      -12.8813801      -9.09016037    
 Al   2.35482001      -14.3176203      -6.61220980    
 Al   2.36916995      -15.7505302      -4.13244009    
 Al   4.71715021      -14.3176699      -3.30795002    
 Al   4.71081018      -12.8829002     -0.826210022    
 Al   4.71700001      -15.7512598     -0.827910006    
 Al   7.01645994      -22.9018192      -14.8754501    
 Al   9.35132980      -14.3205099      -1.65526998    
 Al   9.35330009      -11.4535599      -1.65196002    
 Al   11.6910601      -10.0220299     -0.830820024    
 Al   13.9890299      -8.58893967      -3.99999990E-04
 Al   13.9929104      -7.16097021      -2.47657990    
 Al   13.9853802      -5.71685982      -4.95379019    
 Al   13.9929304      -21.4743595      -7.44323015    
 Al   11.6863699      -5.73097992      -8.26873970    
 Al   11.6864300      -7.15884018      -5.78633022    
 Al   9.35953045      -8.59749031      -6.61694002    
 Al   9.35326958      -7.16539001      -9.09204960    
 Al   7.01283979      -8.59704018      -9.91553020    
 Al   7.02111006      -24.3382092      -12.3980703    
 Al   4.71730995      -8.59199047      -13.2252998    
 Al   4.71069002      -10.0257998      -10.7407799    
 Al   2.35503006      -11.4534302      -11.5732803    
 Al   2.36923003      -10.0223198      -14.0541697    
 Al   2.36924005      -12.8852100      -14.0543499    
 Al   2.37210011      -15.7506504      -14.0508900    
 Al   2.36720991      -17.1783009      -11.5711403    
 Al   2.37219000      -18.6120701      -9.09475994    
 Al   4.71735001      -17.1794701      -8.26453018    
 Al   7.01826000      -18.6114101      -7.43795013    
 Al   4.71346998      -18.6116791      -5.78333998    
 Al   7.01683998      -17.1808491      -4.95965004    
 Al   4.71432018      -15.7462397      -5.78794003    
 Al   7.01725006      -14.3119497      -4.96566010    
 Al   9.35309029      -12.8822803      -4.13933992    
 Al   11.6977196      -11.4534998      -3.31432009    
 Al   9.35317993      -10.0251598      -4.13924980    
 Al   11.6983900      -10.0256300      -5.79272985    
 Al   14.0096903      -11.4542999      -4.96846008    
 Al   13.9514399      -9.92652035      -7.38848019    
 Al   11.6562700      -11.4536505      -8.26583004    
 Al   9.36096954      -12.8849802      -9.09243965    
 Al   9.36030960      -10.0223703      -9.09253979    
 Al   7.01842022      -10.0257502      -7.44154978    
 Al   7.01723003      -7.16632986      -7.44074011    
 Al   7.01838017      -4.29601002      -7.43800020    
 Al   7.01654005      -5.72675991      -4.95951986    
 Al   4.71432018      -7.16122007      -5.78777981    
 Al   4.71724987      -8.58979988      -3.30784988    
 Al   4.71079016      -10.0246496     -0.826240003    
 Al   7.01655006      -17.1864700      -14.8755903    
 Al   7.01844978      -7.15783024      -2.48127007    
 Al   9.35126972      -7.16156006      -4.13584995    
 Al   9.35840988      -4.29555988      -4.13321018    
 Al   11.6847696      -2.86314988      -3.30602002    
 Al   13.9863596      -1.43221998      -2.48022008    
 Al   13.9855003      -2.86346006      -1.10600004E-02
 Al   11.6881704      -4.29641008     -0.824220002    
 Al   9.35466957      -5.72372007      -1.65471995    
 Al   11.6876097      -7.15931988     -0.826399982    
 Al   11.6863899      -8.59477997      -3.30862999    
 Al   13.9981804      -10.0250702      -2.47890997    
 Al   16.3432999      -8.59465027      -1.65155005    
 Al   16.3363094      -5.72641993      -1.65350997    
 Al   16.3318195      -4.29144001      -4.13086987    
 Al   16.3375607      -7.14340019      -4.11351013    
 Al   16.3374691      -5.70201015      -6.60937023    
 Al   13.9800701      -7.14064980      -7.43994999    
 Al   13.9803200      -8.58216000      -4.94401979    
 Al   7.01838017      -12.8817596      -7.44167995    
 Al   9.36003971      -11.4537897      -6.61309004    
 Al   11.6908998      -12.8855495     -0.830810010    
 Al   13.9876404      -11.4537802      -1.27999997E-03
 Al   13.9931602      -18.6136208      -7.44355011    
 Al   11.6878405      -20.0441608      -8.26698017    
 Al   2.37496996      -14.3125095      -11.5729103    
 Al   4.71058989      -12.8814802      -10.7407703    
 Al   7.01820993      -11.4538403      -9.91487026    
 Al   7.01739979      -10.0245504      -12.3915300    
 Al   9.35276031      -8.59420013      -11.5667801    
 Al   11.6975803      -7.16480017      -10.7420597    
 Al   13.9980097      -22.9082699      -9.92257977    
 Al   2.37480998      -15.7469196      -9.08821964    
 Al   4.71055984      -14.3109398      -8.26506042    
 Al   4.71424007      -11.4538298      -13.2224903    
 Al   2.36917996      -17.1820698      -6.61156988    
 Al   2.36685991      -20.0439491      -6.61327982    
 Al   2.37212992      -21.4762497      -9.09461975    
 Al   4.71708012      -20.0438709      -8.26346016    
 Al   4.71078014      -18.6114006      -10.7481699    
 Al   7.02097988      -17.1802502      -9.92041016    
 Al   9.35286999      -15.7421703      -9.09206963    
 Al   11.6996803      -14.3087702      -8.26585007    
 Al   13.9562798      -12.9782200      -7.39201021    
 Al   11.6986399      -12.8821201      -5.79261017    
 Al   11.6861897      -15.7487497      -5.78607988    
 Al   13.9794502      -14.3260098      -4.94317007    
 Al   16.3560696      -12.8989296      -4.13987017    
 Al   16.3435593      -14.3129301      -1.65177000    
 Al   13.9930096      -15.7463598      -2.47691011    
 Al   11.6883097      -17.1777992      -3.30625010    
 Al   2.35929990      -18.6112595      -4.13363981    
 Al   2.36698008      -17.1799603      -1.65272999    
 Al   4.71328020      -17.1827202      -3.30850005    
 Al   7.02105999      -15.7495699      -12.3980303    
 Al   9.35258007      -14.3133402      -11.5670500    
 Al   2.35530996      -20.0440807      -11.5686502    
 Al   2.35534000      -18.6089001      -14.0540104    
 Al   4.71074009      -17.1822395      -13.2234697    
 Al   2.37234998      -14.3150301      -1.65259004    
 Al   2.36704993      -11.4537201      -1.65609002    
 Al   2.37434006      -10.0190096      -4.13663006    
 Al   2.35462999      -8.58946037      -6.61237001    
 Al   2.37445998      -7.16040993      -9.08823967    
 Al   4.71716022      -5.72792006      -8.26471043    
 Al   4.71887016      -7.16048002      -10.7449198    
 Al   7.02096987      -22.9075508      -9.92063046    
 Al   2.37475991      -12.8883104      -4.13667011    
 Al   4.71908998      -11.4538803      -3.30854011    
 Al   7.02097988      -10.0231400      -2.47923994    
 Al   9.35101986      -8.58726978      -1.65523005    
 Al   4.71083021      -10.0243702      -5.79167986    
 Al   7.01724005      -8.59547043      -4.96565008    
 Al   2.35402989      -11.4537096      -6.61737013    
 Al   2.35429001      -10.0257597      -9.09041023    
 Al   4.71068001      -8.59632015      -8.26529980    
 Al   2.37487006      -8.59482002      -11.5727901    
 Al   7.01496983      -20.0439796      -14.8752298    
 Al   9.35109043      -17.1768799      -6.61424017    
 Al   9.35122967      -5.73075008      -6.61409998    
 Al   11.6882801      -4.29628992      -5.78893995    
 Al   13.9867001      -2.86346006      -4.95892000    
 Al   13.9871702      -4.29518986      -2.48053002    
 Al   16.3324394      -2.86405993      -1.65848005    
 Al   11.6911402      -17.1766796      -13.2230396    
 Al   11.6983004      -8.59757996      -8.26591969    
 Al   11.6883497      -5.72958994      -3.30599999    
 Al   13.9669199      -11.4540396      -10.0107403    
 Al   13.9933300      -14.3211803      -14.8783102    
 Al   16.5211105      -11.4690905      -6.45242023    
 Al   2.36882997      -5.72567987      -6.61183977    
 Al   2.35935998      -4.29628992      -4.13366985    
 Al   4.70791006      -2.86332011      -3.30679989    
 Al   7.01842022      -1.43479002      -2.48171997    
 Al   7.01675987      -2.86369991      -2.09999998E-04
 Al   4.71339989      -4.29247999     -0.827419996    
 Al   2.36687994      -5.72726011      -1.65279996    
 Al   4.71697998      -7.15613985     -0.827870011    
 Al   7.01814985      -5.72515011       1.50000007E-04
 Al   7.01849985      -4.29205990      -2.48146009    
 Al   9.35867977      -2.86352992      -1.65240002    
 Al   11.6883602      -1.43025005     -0.824190021    
 Al   13.9932203      -25.7670097      -14.8781700    
 Al   2.36879992      -7.15712023      -4.13246012    
 Al   4.71333981      -5.72485018      -3.30851007    
 Al   4.71332979      -4.29582024      -5.78345013    
 Al   7.01828003      -2.86319995      -4.95600986    
 Al   2.37224007      -8.59241962      -1.65270996    
 Al   2.35923004      -2.86350989      -1.65184999    
 Al   4.71324015      -1.43436003     -0.827380002    
 Al   7.01803017      -1.56000000E-03   1.90000006E-04
 Al   16.3434391      -24.3360004      -14.0488396    
 N    14.0626001      -11.5830297      -8.45623016    
 N    15.9536104      -11.0759201      -7.78126001    
         262
 Energy:  -931.90750030000004     
 X   0.00000000       0.00000000       0.00000000    
 X   0.00000000      -17.1805725       0.00000000    
 X   0.00000000      -8.59028625      -14.8788128    
 X   30.0000000       0.00000000       0.00000000    
 X   0.00000000      -25.7708588      -14.8788128    
 X   30.0000000      -17.1805725       0.00000000    
 X   30.0000000      -8.59028625      -14.8788128    
 X   30.0000000      -25.7708588      -14.8788128    
 Al   16.4588795      -12.9547005      -9.13296032    
 Al   16.2839394      -14.3837404      -6.57460022    
 Al   16.3375492      -15.7641201      -4.11315012    
 Al   16.3366604      -17.1808605      -1.65342999    
 Al   16.3320007      -18.6161499      -4.13073015    
 Al   16.3365898      -20.0441895      -6.61207008    
 Al   16.3433609      -18.6108799      -9.09694958    
 Al   16.3511009      -17.1706409      -11.5666704    
 Al   16.3433495      -15.7517595      -14.0487299    
 Al   16.3270607      -18.6117992      -14.0526695    
 Al   16.3271809      -21.4760399      -14.0522804    