         262
 Energy:  -937.87390819999996     
 X   0.00000000       0.00000000       0.00000000    
 X   0.00000000      -17.1805725       0.00000000    
 X   0.00000000      -8.59028625      -14.8788128    
 X   30.0000000       0.00000000       0.00000000    
 X   0.00000000      -25.7708588      -14.8788128    
 X   30.0000000      -17.1805725       0.00000000    
 X   30.0000000      -8.59028625      -14.8788128    
 X   30.0000000      -25.7708588      -14.8788128    
 Al   16.4575005      -12.9837399      -9.14486980    
 Al   16.3078098      -14.3941402      -6.55795002    
 Al   16.3384209      -15.7720604      -4.10168982    
 Al   16.3420696      -17.1878700      -1.65417004    
 Al   16.3571606      -18.6213493      -4.12269020    
 Al   16.3383503      -20.0363007      -6.60283995    
 Al   16.3453999      -18.6084309      -9.09286976    
 Al   16.3428593      -17.1869507      -11.5744305    
 Al   16.3460102      -15.7470198      -14.0455198    
 Al   16.3394909      -18.6106491      -14.0446701    
 Al   16.3388405      -21.4730492      -14.0481300    
 Al   16.3460903      -22.8891697      -11.5791397    
 Al   16.3473206      -21.4616394      -9.09496975    
 Al   13.9905701      -20.0401497      -9.92387962    
 Al   13.9863901      -18.6122208      -12.3978500    
 Al   11.6891899      -20.0443001      -13.2249899    
 Al   11.6919498      -21.4793205      -10.7476301    
 Al   9.35142040      -22.9068203      -11.5744495    
 Al   9.35476017      -21.4808292      -14.0547400    
 Al   9.34788990      -24.3424606      -14.0495996    
 Al   11.6927500      -22.9090099      -13.2218103    
 Al   13.9873800      -21.4723396      -12.3992500    
 Al   16.3389797      -20.0387096      -11.5727596    
 Al   16.3358097      -17.2105598      -6.59922981    
 Al   13.9757795      -15.8091497      -7.42775011    
 Al   13.9888296      -17.2072506      -4.94184017    
 Al   11.6818304      -18.6171703      -5.78150988    
 Al   11.6732197      -17.1905403      -8.26819992    
 Al   9.34568024      -18.6104698      -9.09356022    
 Al   9.34796047      -17.1846294      -11.5748501    
 Al   7.01355982      -18.6165695      -12.4018602    
 Al   7.00910997      -20.0453892      -9.92523003    
 Al   4.70491982      -21.4744205      -10.7494297    
 Al   4.70601988      -20.0445404      -13.2258797    
 Al   2.35870004      -21.4843998      -14.0570402    
 Al   2.36181998      -22.9058495      -11.5728502    
 Al   2.36312008      -24.3375702      -14.0497103    
 Al   4.70508003      -22.9040298      -13.2255898    
 Al   7.01466990      -21.4735909      -12.4014997    
 Al   9.35319996      -20.0464001      -11.5688000    
 Al   11.6889400      -18.6086102      -10.7479696    
 Al   13.9921398      -17.1875305      -9.91714001    
 Al   11.6875095      -15.7496500      -10.7451696    
 Al   13.9924603      -15.7510796      -12.4032497    
 Al   13.9764099      -12.9068604      -12.4528303    
 Al   16.3084602      -11.4475298      -11.6599798    
 Al   16.3382702      -10.0090199      -14.0825500    
 Al   16.3365192      -12.8898497      -14.0800200    
 Al   16.3726902      -14.3156004      -11.6019897    
 Al   14.0255699      -14.3424702      -9.93087006    
 Al   16.3727894      -15.7770796      -9.07242012    
 Al   9.35354042      -18.6100998      -14.0560303    
 Al   9.34613991      -15.7481298      -14.0499697    
 Al   11.6735497      -14.3237104      -13.2314196    
 Al   11.6692305      -12.8903103      -10.7747297    
 Al   11.6723804      -10.0142498      -10.7759199    
 Al   11.6769600      -8.58384991      -13.2332602    
 Al   13.9971304      -7.15365982      -12.4056196    
 Al   14.0336800      -8.55692005      -9.92984009    
 Al   16.4606304      -9.90235996      -9.14093971    
 Al   16.3839607      -7.10857010      -9.07271957    
 Al   16.3101501      -8.49355030      -6.55350018    
 Al   16.3840694      -9.98143005      -4.09393978    
 Al   16.3477497      -11.4520102      -1.62954998    
 Al   13.9974604      -12.8904696      -2.46788001    
 Al   13.9927902      -14.3156204       3.40000005E-03
 Al   11.6844301      -15.7485304     -0.824339986    
 Al   11.6775799      -14.3223896      -3.29369998    
 Al   9.33703995      -15.7493401      -4.12859011    
 Al   9.33874989      -14.3253899      -6.60803986    
 Al   7.00793982      -15.7473402      -7.44391012    
 Al   7.00517988      -14.3176603      -9.91971970    
 Al   4.70780993      -15.7539101      -10.7490301    
 Al   4.70469999      -14.3195801      -13.2272701    
 Al   7.00818014      -12.8883305      -12.3956499    
 Al   9.33876991      -11.4541302      -11.5807104    
 Al   9.33718014      -10.0186100      -14.0540705    
 Al   9.33590031      -12.8904696      -14.0538301    
 Al   11.6725397      -11.4533300      -13.2484398    
 Al   13.9796400      -9.99561977      -12.4529800    
 Al   16.3792305      -8.57919025      -11.6045599    
 Al   9.34786034      -21.4811707      -9.09259033    
 Al   9.34412956      -20.0453892      -6.61160994    
 Al   9.35252953      -18.6111794      -4.13473988    
 Al   9.34574986      -17.1835709      -1.65454996    
 Al   7.01493979      -15.7456102      -2.47602010    
 Al   7.01501989      -12.8859501      -2.47570992    
 Al   7.00832987      -11.4551001      -4.96013021    
 Al   4.70554018      -12.8867702      -5.78701019    
 Al   4.71032000      -11.4540501      -8.26642036    
 Al   2.35623002      -12.8841801      -9.09226990    
 Al   2.36257005      -14.3181105      -6.61147022    
 Al   2.36724997      -15.7512302      -4.13157988    
 Al   4.70608997      -14.3174000      -3.30380011    
 Al   4.70516014      -12.8837204     -0.823530018    
 Al   4.70981979      -15.7494297     -0.826870024    
 Al   7.00998020      -22.9028893      -14.8763504    
 Al   9.34817982      -14.3171196      -1.65629005    
 Al   9.35186005      -11.4553499      -1.65081000    
 Al   11.6928902      -10.0256205     -0.826879978    
 Al   13.9916697      -8.59202003       7.74999987E-03
 Al   13.9946699      -7.14496994      -2.46069002    
 Al   13.9921999      -5.69513988      -4.93981981    
 Al   13.9932899      -21.4541798      -7.43591976    
 Al   11.6795702      -5.71506023      -8.26791954    
 Al   11.6791096      -7.13659000      -5.77195978    
 Al   9.34175014      -8.58374023      -6.60820007    
 Al   9.34428978      -7.16468000      -9.09387016    
 Al   7.00793982      -8.59193993      -9.91991997    
 Al   7.01488018      -24.3361702      -12.4013300    
 Al   4.70602989      -8.58815002      -13.2273598    
 Al   4.70538998      -10.0235300      -10.7470703    
 Al   2.36254001      -11.4530001      -11.5746403    
 Al   2.36743999      -10.0219097      -14.0557098    
 Al   2.36668992      -12.8848696      -14.0560398    
 Al   2.36224008      -15.7497196      -14.0497303    
 Al   2.36056995      -17.1813202      -11.5727301    
 Al   2.36209011      -18.6105309      -9.09440041    
 Al   4.70448017      -17.1830196      -8.26756954    
 Al   7.01325989      -18.6149902      -7.44565010    
 Al   4.71147013      -18.6128006      -5.78749990    
 Al   7.01083994      -17.1827507      -4.95956993    
 Al   4.71064997      -15.7499304      -5.78600979    
 Al   7.00901985      -14.3131504      -4.95940018    
 Al   9.34442997      -12.8835497      -4.13635015    
 Al   11.6941099      -11.4542704      -3.30111003    
 Al   9.34500027      -10.0262899      -4.13613987    
 Al   11.6743298      -9.99542046      -5.76029015    
 Al   14.0349998      -11.4487600      -4.92087984    
 Al   14.0290604      -9.87683010      -7.35203981    
 Al   11.6351995      -11.4515305      -8.26224995    
 Al   9.35147953      -12.8866196      -9.09234047    
 Al   9.35521030      -10.0215702      -9.09224987    
 Al   7.00916004      -10.0275097      -7.44237995    
 Al   7.01052999      -7.16233015      -7.44421005    
 Al   7.01469994      -4.29514980      -7.44515991    
 Al   7.01225996      -5.72672987      -4.95955992    
 Al   4.71274996      -7.15869999      -5.78621006    
 Al   4.70699978      -8.59080982      -3.30448008    
 Al   4.70510006      -10.0243502     -0.823599994    
 Al   7.00956011      -17.1862907      -14.8773003    
 Al   7.01498985      -7.16341019      -2.47683001    
 Al   9.33926010      -7.16101980      -4.13009977    
 Al   9.35239029      -4.29847002      -4.13487005    
 Al   11.6774302      -2.86455989      -3.30672002    
 Al   13.9970503      -1.44139004      -2.48337007    
 Al   13.9889097      -2.86263990      -2.83100009E-02
 Al   11.6823502      -4.29304981     -0.831929982    
 Al   9.34451008      -5.72601986      -1.65489995    
 Al   11.6837902      -7.16123009     -0.822149992    
 Al   11.6806698      -8.58637047      -3.29279995    
 Al   13.9984798      -10.0154104      -2.46549010    
 Al   16.3488693      -8.58524036      -1.63650000    
 Al   16.3394394      -5.71437979      -1.64838004    
 Al   16.3556595      -4.27683020      -4.12083006    
 Al   16.3434792      -7.12339020      -4.09596014    
 Al   16.3425407      -5.67930984      -6.59819984    
 Al   13.9834900      -7.08827019      -7.42759991    
 Al   13.9837904      -8.54666996      -4.90095997    
 Al   7.00690985      -12.8821497      -7.44177008    
 Al   9.35538960      -11.4541903      -6.61046982    
 Al   11.6932497      -12.8841105     -0.827090025    
 Al   13.9882803      -11.4533997       5.77999977E-03
 Al   13.9906197      -18.6241703      -7.43698978    
 Al   11.6828403      -20.0430393      -8.27087975    
 Al   2.37047005      -14.3132000      -11.5724497    
 Al   4.70433998      -12.8842497      -10.7467003    
 Al   7.00680017      -11.4541798      -9.91534042    
 Al   7.00928020      -10.0199203      -12.3957396    
 Al   9.34405994      -8.59325981      -11.5676298    
 Al   11.6929502      -7.15617990      -10.7461596    
 Al   13.9978504      -5.71352005      -9.91755962    
 Al   2.37050009      -15.7466202      -9.08942032    
 Al   4.70437002      -14.3169203      -8.26506042    
 Al   4.71080017      -11.4540701      -13.2271099    
 Al   2.36635995      -17.1830902      -6.61074018    
 Al   2.36338997      -20.0443306      -6.61174011    
 Al   2.36344004      -21.4771500      -9.09438038    
 Al   4.70882988      -20.0445709      -8.26574039    
 Al   4.70416021      -18.6144505      -10.7495899    
 Al   7.01252985      -17.1850300      -9.92234039    
 Al   9.34060001      -15.7443600      -9.09379959    
 Al   11.6692696      -14.3463402      -8.25286961    
 Al   14.0240602      -13.0223799      -7.35300016    
 Al   11.6724300      -12.9095001      -5.76063013    
 Al   11.6725302      -15.7702999      -5.77229023    
 Al   13.9790401      -14.3537502      -4.90495014    
 Al   16.3792095      -12.9119701      -4.10068989    
 Al   16.3488598      -14.3176298      -1.64289999    
 Al   13.9937496      -15.7617903      -2.46465993    
 Al   11.6837301      -17.1903000      -3.30479002    
 Al   2.37196994      -18.6083107      -4.13546991    
 Al   2.36550999      -17.1809502      -1.65360999    
 Al   4.71237993      -17.1803799      -3.30661988    
 Al   7.01269007      -15.7535801      -12.4017200    
 Al   9.34062958      -14.3158197      -11.5674105    
 Al   2.35871005      -20.0436306      -11.5615702    
 Al   2.35876012      -18.6028900      -14.0569897    
 Al   4.70427990      -17.1847496      -13.2257204    
 Al   2.36335993      -14.3141403      -1.65280998    
 Al   2.36212993      -11.4534197      -1.65100002    
 Al   2.37362003      -10.0204496      -4.13544989    
 Al   2.36560011      -8.58926964      -6.61218977    
 Al   2.37347007      -7.16018009      -9.08979988    
 Al   4.70669985      -5.72549009      -8.26745033    
 Al   4.70991993      -7.15431023      -10.7490101    
 Al   7.01457977      -22.9051304      -9.92238998    
 Al   2.37217999      -12.8867302      -4.13519001    
 Al   4.71027994      -11.4541502      -3.30112004    
 Al   7.01490021      -10.0234604      -2.47585011    
 Al   9.34875965      -8.59265041      -1.65753996    
 Al   4.70741987      -10.0221004      -5.78750992    
 Al   7.01054001      -8.59636021      -4.96027994    
 Al   2.35743999      -11.4535398      -6.61260986    
 Al   2.35757995      -10.0219297      -9.09276009    
 Al   4.70727015      -8.59154987      -8.26541996    
 Al   2.37200999      -8.59311962      -11.5726099    
 Al   7.01473999      -20.0448608      -14.8756599    
 Al   9.33563995      -17.1848297      -6.61614990    
 Al   9.33893967      -5.72609997      -6.61582994    
 Al   11.6830196      -4.29082012      -5.78108978    
 Al   13.9943895      -2.86085010      -4.94991016    
 Al   13.9948301      -4.28588009      -2.48024011    
 Al   16.3575497      -2.86087990      -1.66200995    
 Al   11.6894197      -17.1801796      -13.2202301    
 Al   11.6742296      -8.55683041      -8.25245953    
 Al   11.6834297      -5.71986008      -3.30405998    
 Al   14.0238304      -11.4506798      -10.0760298    
 Al   13.9913197      -5.73075008      -9.41000041E-03
 Al   16.4626694      -11.4400997      -6.47629023    
 Al   2.36770010      -5.72516012      -6.61121988    
 Al   2.37122989      -4.29972982      -4.13572979    
 Al   4.71362019      -2.86408997      -3.30707002    
 Al   7.01348019      -1.43203998      -2.48019004    
 Al   7.01100016      -2.86440992      -2.43000011E-03
 Al   4.71170998      -4.29644012     -0.826560020    
 Al   2.36397004      -5.72622013      -1.65408003    
 Al   4.70914984      -7.15856981     -0.827210009    
 Al   7.01355982      -5.73347998       4.49999992E-04
 Al   7.01306009      -4.29652023      -2.48008990    
 Al   9.35287952      -2.86429000      -1.65134001    
 Al   11.6838102      -1.43613994     -0.833350003    
 Al   13.9932098      -17.1761303      -1.48499999E-02
 Al   2.36788988      -7.15644979      -4.13237000    
 Al   4.71193981      -5.72806978      -3.30651999    
 Al   4.71185017      -4.29571009      -5.78733015    
 Al   7.01290989      -2.86423993      -4.96099997    
 Al   2.36386991      -8.59272957      -1.65300000    
 Al   2.37231994      -2.86350012      -1.64890003    
 Al   4.71245003      -1.43158996     -0.826539993    
 Al   7.01492023       4.93999990E-03   7.80000002E-04
 Al   16.3481197      -24.3340397      -14.0522604    
 N    13.5438900      -11.4482498      -8.25990009    
 N    16.9787807      -11.4444399      -8.25500011    
