NiAl                                    
           1
     0.000000  -17.180573    0.000000
     0.000000   -8.590287  -14.878813
    30.000000    0.000000    0.000000
   Al   N 
 252   2
Direct configuration=     1
   0.44647042  0.61313695  0.54813167
   0.61676438  0.44161789  0.54274033
   0.77933134  0.27645418  0.54457700
   0.94446263  0.11112916  0.54455700
   0.94469853  0.27765051  0.54439633
   0.94446231  0.44440843  0.54455703
   0.77756522  0.61141772  0.54477170
   0.61066527  0.77733149  0.54505137
   0.44475100  0.94423190  0.54477170
   0.61108088  0.94445975  0.54423703
   0.77779301  0.94445975  0.54423703
   0.94533687  0.77733149  0.54505140
   0.94435069  0.61141772  0.54477170
   0.83338994  0.66655317  0.46628503
   0.66659154  0.83325800  0.46624437
   0.72222214  0.88888878  0.38989003
   0.88918804  0.72203871  0.38970437
   0.94436763  0.77781601  0.31176303
   0.77772874  0.94439516  0.31179437
   0.94460836  0.94455377  0.31170337
   0.88918767  0.88877311  0.38970437
   0.83348356  0.83325793  0.46624437
   0.77779271  0.77774752  0.54423703
   0.77933153  0.44421420  0.54457700
   0.66769054  0.50002913  0.46598200
   0.83412399  0.33293785  0.46617733
   0.88871778  0.38906605  0.38961200
   0.72184811  0.55574460  0.38955770
   0.77788688  0.61083844  0.31170337
   0.61114991  0.77781608  0.31176303
   0.66677775  0.83344424  0.23383837
   0.83310763  0.66711780  0.23388603
   0.88886298  0.72238034  0.15701270
   0.72222205  0.88888885  0.15674603
   0.77790746  0.94457414  0.07850070
   0.94462679  0.77768650  0.07892070
   0.94437139  0.94434764  0.07907270
   0.88886298  0.88875651  0.15701270
   0.83311096  0.83344424  0.23383837
   0.77772849  0.77787596  0.31179433
   0.72210616  0.72203878  0.38970433
   0.66652204  0.66692618  0.46661397
   0.55530926  0.72197560  0.38993563
   0.50025968  0.83318871  0.46661397
   0.33336245  0.83435748  0.46598197
   0.27495109  0.78343131  0.54274027
   0.10978752  0.94599804  0.54457697
   0.27754735  0.94599804  0.54457697
   0.44336860  0.77829185  0.54522563
   0.49955860  0.66622512  0.46701230
   0.61162511  0.61003515  0.54522563
   0.61120903  0.94439529  0.31179433
   0.44417142  0.94455384  0.31170333
   0.38907810  0.88851436  0.38955763
   0.38887251  0.72177861  0.38999097
   0.22268194  0.72177854  0.38999097
   0.05574060  0.88851429  0.38955763
   0.99988468  0.83318864  0.46661397
   0.16754934  0.66622505  0.46701230
   0.27372584  0.61313681  0.54813163
   0.11167277  0.61003502  0.54522560
   0.27495100  0.44161775  0.54274027
   0.44336913  0.27833927  0.54522560
   0.61066523  0.11200349  0.54505127
   0.66652232  0.16655152  0.46661393
   0.83339018  0.00005713  0.46628493
   0.88885516  0.05552197  0.38959593
   0.72184793  0.22240685  0.38955760
   0.77749466  0.27796579  0.31171260
   0.61055419  0.44472297  0.31197627
   0.66615318  0.50009103  0.23391593
   0.49974106  0.66640732  0.23375593
   0.55547826  0.72214504  0.15730260
   0.38881138  0.88887668  0.15724227
   0.33342410  0.83281979  0.23391593
   0.27805654  0.77722053  0.31197627
   0.11129902  0.94416127  0.31171260
   0.27787259  0.94416133  0.31171260
   0.22221603  0.88890155  0.38954527
   0.16561310  0.83435748  0.46598193
   0.11167251  0.77829185  0.54522560
   0.94460768  0.61083844  0.31170333
   0.94455295  0.44422703  0.31183900
   0.94442060  0.27778963  0.31193897
   0.94455283  0.11121989  0.31183893
   0.83333552  0.16676263  0.23394127
   0.66658932  0.16664569  0.23403587
   0.49974140  0.33385116  0.23375590
   0.55518945  0.38928710  0.15703123
   0.38888911  0.55555574  0.15689827
   0.44428755  0.61095472  0.07849263
   0.61116739  0.44441657  0.07848860
   0.77791516  0.27773734  0.07896227
   0.72221023  0.22231216  0.15724223
   0.72209020  0.05552997  0.15701253
   0.88897740  0.05564429  0.15723557
   0.83310787  0.99977418  0.23388587
   0.77788709  0.11127494  0.31170323
   0.61115009  0.11103366  0.31176287
   0.55537222  0.05585446  0.38970417
   0.49988611  0.00005693  0.46628480
   0.33361572  0.16645528  0.46644947
   0.16627138  0.33293758  0.46617713
   0.99978866  0.50028224  0.46644947
   0.05574051  0.55574433  0.38955747
   0.22221596  0.38888230  0.38954517
   0.27805602  0.44472277  0.31197617
   0.11153985  0.61107139  0.31175613
   0.16718468  0.66640712  0.23375580
   0.99997910  0.83325578  0.23403580
   0.05564501  0.88887648  0.15724213
   0.22262062  0.72185577  0.15703117
   0.27774979  0.77783402  0.07848850
   0.11107074  0.94458187  0.07896217
   0.27768042  0.94458187  0.07896217
   0.44461397  0.94434730  0.07907253
   0.61102037  0.77768623  0.07892053
   0.77768087  0.61128048  0.07907257
   0.72221020  0.55547757  0.15724220
   0.83333518  0.49990191  0.23394123
   0.88893830  0.38871091  0.15711390
   0.83335154  0.33332410  0.23389453
   0.72200796  0.38899588  0.15715187
   0.66615301  0.33375559  0.23391587
   0.61072178  0.27820673  0.31175617
   0.55530915  0.22271508  0.38993547
   0.44440428  0.27820673  0.31175613
   0.38887225  0.38934866  0.38999080
   0.49955895  0.33421523  0.46701213
   0.33309298  0.49975929  0.46655580
   0.38888884  0.55555547  0.38914117
   0.44443520  0.61110224  0.31202187
   0.27779524  0.61110224  0.31202180
   0.33346324  0.50012968  0.23392380
   0.16708902  0.50009063  0.23391577
   0.00009589  0.49990177  0.23394103
   0.16665739  0.33332397  0.23389437
   0.22232922  0.38899581  0.15715173
   0.38881110  0.22231182  0.15724210
   0.55571389  0.05552977  0.15701243
   0.50045135  0.99977391  0.23388573
   0.33323580  0.16676229  0.23394107
   0.27787278  0.27796538  0.31171240
   0.11112300  0.27778923  0.31193867
   0.05555560  0.22222156  0.38949930
   0.00003566  0.16670228  0.46621327
   0.16627146  0.00078985  0.46617693
   0.22239965  0.05538365  0.38961167
   0.27756057  0.11121949  0.31183870
   0.38895613  0.05552150  0.38959573
   0.38907830  0.22240652  0.38955743
   0.50025917  0.16655132  0.46661380
   0.44475103  0.11101658  0.54477143
   0.27774129  0.11112869  0.54455670
   0.11098393  0.27765004  0.54439600
   0.27754742  0.27645377  0.54457673
   0.10978712  0.44421373  0.54457673
   0.16561323  0.50002880  0.46598177
   0.33336230  0.33227953  0.46598177
   0.49974012  0.50012988  0.23392397
   0.44443589  0.44446207  0.31202193
   0.72210653  0.05585446  0.38970420
   0.66659178  0.00015028  0.46624420
   0.83326199  0.50028251  0.46644963
   0.88885496  0.55562302  0.38959600
   0.44416718  0.77780653  0.07915597
   0.38885698  0.72185590  0.15703123
   0.33346313  0.66640665  0.23392387
   0.16708879  0.83281979  0.23391573
   0.11153913  0.77738869  0.31175600
   0.05604740  0.72197573  0.38993530
   0.99988377  0.66692638  0.46661357
   0.61113950  0.61083421  0.07915607
   0.55518924  0.55552341  0.15703137
   0.22232947  0.88867431  0.15715180
   0.77791523  0.44434714  0.07896253
   0.94442801  0.44447692  0.07888800
   0.94437144  0.61128055  0.07907300
   0.88897708  0.55537831  0.15723597
   0.72208951  0.72238020  0.15701283
   0.66658892  0.66676495  0.23403613
   0.61072104  0.61107173  0.31175643
   0.55511101  0.55553914  0.38999103
   0.50047935  0.49975989  0.46655600
   0.55511109  0.38934907  0.38999103
   0.72223451  0.38888270  0.38954550
   0.66768973  0.33228013  0.46598210
   0.61162410  0.27833974  0.54522573
   0.77756380  0.11101726  0.54477187
   0.83326097  0.16645575  0.46644990
   0.88871658  0.22221685  0.38961227
   0.94435766  0.27782109  0.07863630
   0.94442850  0.11109475  0.07888793
   0.88893848  0.22235033  0.15711423
   0.50009816  0.83325598  0.23403603
   0.44440404  0.77738869  0.31175633
   0.77790761  0.77751760  0.07850090
   0.61085136  0.94457387  0.07850077
   0.55571326  0.88875631  0.15701273
   0.77768183  0.11103823  0.07907267
   0.61102103  0.11129295  0.07892033
   0.44416832  0.27802594  0.07915537
   0.27775011  0.44441623  0.07848777
   0.11135997  0.61083407  0.07915480
   0.05564524  0.55547771  0.15724100
   0.05570985  0.72214490  0.15730137
   0.99997833  0.66676508  0.23403457
   0.61114001  0.27802601  0.07915570
   0.55547867  0.22237661  0.15730227
   0.50009777  0.16664595  0.23403547
   0.44417008  0.11127548  0.31170267
   0.38885682  0.38928710  0.15703063
   0.33342384  0.33375606  0.23391517
   0.44428858  0.44475772  0.07849207
   0.27809169  0.61095438  0.07849180
   0.22262034  0.55552348  0.15703033
   0.11135996  0.77780640  0.07915483
   0.66677737  0.99977841  0.23383807
   0.77749393  0.44453922  0.31171240
   0.11129962  0.44453949  0.31171260
   0.05555034  0.38906632  0.38961210
   0.00003705  0.33326146  0.46621397
   0.16661913  0.16672654  0.46623047
   0.11100844  0.11138933  0.54441333
   0.55537212  0.88877318  0.38970433
   0.22268253  0.55553820  0.38999077
   0.22239932  0.22221658  0.38961190
   0.33309350  0.66714730  0.46655623
   0.33361674  0.99992795  0.46644957
   0.44646926  0.44039299  0.54813160
   0.11107146  0.44434694  0.07896110
   0.11115508  0.27782088  0.07863473
   0.05555587  0.22222196  0.15691797
   0.00011505  0.16678226  0.23395320
   0.16665724  0.00001828  0.23389347
   0.22204425  0.05560517  0.15711293
   0.27781057  0.11109455  0.07888670
   0.38871183  0.05564422  0.15723490
   0.33323480  0.00000222  0.23394047
   0.16643546  0.16678226  0.23395350
   0.11112230  0.11108722  0.31193773
   0.05554805  0.05538473  0.38961060
   0.99978668  0.99992956  0.46644813
   0.27768160  0.27773694  0.07896140
   0.22204433  0.22235033  0.15711293
   0.05568395  0.38871098  0.15711267
   0.00011506  0.33310265  0.23395323
   0.44461440  0.11103816  0.07907200
   0.11115527  0.11102398  0.07863473
   0.05568368  0.05560517  0.15711263
   0.00009584  0.00000215  0.23393987
   0.94435015  0.94423190  0.54477173
   0.38888905  0.55555574  0.48333333
   0.38795474  0.52952833  0.51666667
Direct configuration=     2
   0.44709812  0.61379930  0.54861217
   0.61628848  0.44186744  0.54279611
   0.77933311  0.27644402  0.54458470
   0.94445349  0.11112679  0.54455534
   0.94474413  0.27762606  0.54439994
   0.94447943  0.44439520  0.54455301
   0.77755006  0.61140369  0.54477852
   0.61072344  0.77739015  0.54503712
   0.44473121  0.94421119  0.54477797
   0.61106756  0.94447493  0.54423534
   0.77779465  0.94444911  0.54423925
   0.94526063  0.77737724  0.54505424
   0.94436203  0.61140477  0.54478053
   0.83336731  0.66656345  0.46630351
   0.66660168  0.83326879  0.46624182
   0.72222933  0.88886300  0.38988655
   0.88918684  0.72208440  0.38970199
   0.94436582  0.77779809  0.31177882
   0.77775054  0.94442778  0.31180237
   0.94458624  0.94457428  0.31170698
   0.88919546  0.88874259  0.38969863
   0.83341059  0.83328821  0.46624800
   0.77781390  0.77772472  0.54423775
   0.77935072  0.44420137  0.54459643
   0.66770807  0.50002762  0.46597813
   0.83409244  0.33294150  0.46617668
   0.88873103  0.38905490  0.38960266
   0.72185328  0.55575698  0.38955100
   0.77787309  0.61086004  0.31169935
   0.61116062  0.77782391  0.31176497
   0.66676595  0.83344454  0.23383702
   0.83312351  0.66710119  0.23387353
   0.88885504  0.72239707  0.15702715
   0.72224681  0.88889944  0.15676264
   0.77791960  0.94455583  0.07851626
   0.94463349  0.77769016  0.07891002
   0.94438830  0.94434606  0.07907163
   0.88885668  0.88874953  0.15702480
   0.83310183  0.83345110  0.23382887
   0.77776890  0.77782855  0.31179332
   0.72205300  0.72207147  0.38970813
   0.66655235  0.66690384  0.46660306
   0.55529179  0.72196051  0.38992536
   0.50023284  0.83321001  0.46660417
   0.33337126  0.83433637  0.46598104
   0.27524890  0.78280794  0.54277955
   0.10976406  0.94602105  0.54459791
   0.27754105  0.94603433  0.54460054
   0.44344514  0.77841355  0.54523211
   0.49969494  0.66634292  0.46706127
   0.61174333  0.61012523  0.54523292
   0.61114597  0.94443172  0.31179250
   0.44417287  0.94454964  0.31170326
   0.38909129  0.88853226  0.38954254
   0.38890345  0.72172619  0.38999003
   0.22267095  0.72177674  0.38998241
   0.05571999  0.88853090  0.38955495
   0.99991235  0.83319824  0.46659651
   0.16745356  0.66625503  0.46709096
   0.27235250  0.61388895  0.54870371
   0.11157229  0.61008030  0.54522074
   0.27492430  0.44165214  0.54293518
   0.44341547  0.27822690  0.54519891
   0.61068431  0.11196447  0.54505240
   0.66652080  0.16660409  0.46660778
   0.83339074  0.00003050  0.46629008
   0.88885329  0.05553645  0.38958459
   0.72187683  0.22238475  0.38955256
   0.77750459  0.27796221  0.31171300
   0.61053696  0.44473204  0.31198692
   0.66617057  0.50008716  0.23390731
   0.49973649  0.66641007  0.23375787
   0.55548643  0.72216631  0.15730504
   0.38879998  0.88886724  0.15724828
   0.33341948  0.83284377  0.23391820
   0.27806748  0.77720967  0.31197801
   0.11129877  0.94416184  0.31171232
   0.27786553  0.94418074  0.31170720
   0.22223156  0.88886713  0.38954742
   0.16560161  0.83434802  0.46597939
   0.11148285  0.77839310  0.54522517
   0.94458826  0.61087767  0.31170511
   0.94454834  0.44421868  0.31181535
   0.94440321  0.27779870  0.31194674
   0.94455065  0.11121072  0.31183812
   0.83331948  0.16676485  0.23393589
   0.66660660  0.16664122  0.23402792
   0.49974372  0.33385336  0.23376298
   0.55523289  0.38926449  0.15702808
   0.38888429  0.55558027  0.15692039
   0.44429075  0.61094672  0.07847542
   0.61115876  0.44440468  0.07849387
   0.77789390  0.27773973  0.07897247
   0.72220105  0.22232617  0.15723837
   0.72208821  0.05552941  0.15702708
   0.88898457  0.05564333  0.15723345
   0.83311991  0.99977420  0.23388197
   0.77790427  0.11125029  0.31171113
   0.61114387  0.11102794  0.31177675
   0.55541516  0.05583935  0.38970215
   0.49990796  0.00002684  0.46630104
   0.33358111  0.16645035  0.46643026
   0.16627995  0.33294239  0.46617931
   0.99979255  0.50025694  0.46643085
   0.05570374  0.55573941  0.38954568
   0.22223386  0.38889731  0.38954772
   0.27805828  0.44472243  0.31198424
   0.11152633  0.61107389  0.31177551
   0.16718308  0.66641972  0.23376135
   0.99997705  0.83326978  0.23403716
   0.05566484  0.88886820  0.15724350
   0.22261225  0.72188404  0.15702299
   0.27773196  0.77783632  0.07850092
   0.11106389  0.94457595  0.07897419
   0.27769354  0.94458786  0.07897452
   0.44459350  0.94435528  0.07907010
   0.61102153  0.77769271  0.07890695
   0.77769258  0.61125562  0.07907307
   0.72220773  0.55545658  0.15724487
   0.83333111  0.49990223  0.23394192
   0.88894996  0.38869614  0.15711566
   0.83334818  0.33333610  0.23389474
   0.72201172  0.38900539  0.15714384
   0.66616093  0.33374020  0.23390842
   0.61071515  0.27820340  0.31176955
   0.55527687  0.22275464  0.38992400
   0.44441857  0.27819753  0.31177270
   0.38888049  0.38932771  0.38994626
   0.49973641  0.33392820  0.46698969
   0.32948700  0.49657723  0.46504789
   0.38889079  0.55554353  0.38854221
   0.44442405  0.61109968  0.31203220
   0.27780170  0.61110665  0.31201039
   0.33347961  0.50014416  0.23394728
   0.16707311  0.50008961  0.23390766
   0.00009786  0.49990544  0.23394611
   0.16666391  0.33332800  0.23388462
   0.22232346  0.38899500  0.15714399
   0.38881205  0.22231922  0.15724159
   0.55572195  0.05553162  0.15702627
   0.50045122  0.99978366  0.23388487
   0.33324071  0.16676531  0.23394823
   0.27785583  0.27796918  0.31170909
   0.11112865  0.27779153  0.31194692
   0.05555207  0.22219640  0.38949234
   0.00001571  0.16669448  0.46621205
   0.16629698  0.00074325  0.46618347
   0.22237579  0.05539546  0.38960554
   0.27754424  0.11121302  0.31182232
   0.38893897  0.05554223  0.38958710
   0.38907557  0.22237178  0.38954626
   0.50020854  0.16660692  0.46660591
   0.44475354  0.11100039  0.54477660
   0.27774214  0.11113183  0.54454365
   0.11096704  0.27763446  0.54439397
   0.27754983  0.27646784  0.54458528
   0.10978026  0.44421355  0.54458250
   0.16560528  0.50003645  0.46600227
   0.33338417  0.33228583  0.46601068
   0.49971011  0.50015291  0.23394616
   0.44443915  0.44446337  0.31200145
   0.72208780  0.05583830  0.38969681
   0.66662708  0.00008609  0.46625457
   0.83327194  0.50027836  0.46643860
   0.88886557  0.55562069  0.38959462
   0.44415799  0.77781105  0.07916558
   0.38882818  0.72188383  0.15701950
   0.33348633  0.66637480  0.23394043
   0.16706626  0.83283078  0.23391326
   0.11152823  0.77739960  0.31175871
   0.05604419  0.72197042  0.38991949
   0.99993522  0.66689335  0.46660040
   0.61114592  0.61081610  0.07916037
   0.55522610  0.55549182  0.15701870
   0.22233400  0.88867907  0.15714130
   0.77790651  0.44436108  0.07897275
   0.94442528  0.44447634  0.07889529
   0.94440789  0.61124660  0.07907105
   0.88896649  0.55538446  0.15723606
   0.72209098  0.72238106  0.15702586
   0.66660737  0.66674740  0.23403267
   0.61074011  0.61107495  0.31176227
   0.55507314  0.55554522  0.38998947
   0.50699371  0.49681431  0.46520934
   0.55514788  0.38931923  0.38995454
   0.72222015  0.38888074  0.38953975
   0.66773504  0.33222849  0.46598161
   0.61166643  0.27823920  0.54520229
   0.77758042  0.11101521  0.54478543
   0.83328523  0.16647221  0.46643379
   0.88873264  0.22221181  0.38961032
   0.94436333  0.27782052  0.07864337
   0.94442472  0.11107973  0.07889918
   0.88894306  0.22236322  0.15710937
   0.50007416  0.83326727  0.23403529
   0.44440322  0.77741762  0.31175276
   0.77790874  0.77752499  0.07851047
   0.61085341  0.94456515  0.07851138
   0.55572460  0.88874486  0.15702454
   0.77767560  0.11106968  0.07907830
   0.61101439  0.11130494  0.07890176
   0.44414838  0.27802168  0.07914481
   0.27774433  0.44441541  0.07848766
   0.11136473  0.61081744  0.07914879
   0.05566093  0.55546845  0.15723860
   0.05569660  0.72216270  0.15729576
   0.99995889  0.66676236  0.23403228
   0.61115546  0.27802446  0.07915874
   0.55549319  0.22236589  0.15730294
   0.50008517  0.16662912  0.23403274
   0.44420056  0.11124766  0.31170077
   0.38884300  0.38925652  0.15702775
   0.33343212  0.33373940  0.23390787
   0.44429105  0.44475094  0.07846773
   0.27807026  0.61096327  0.07847621
   0.22259756  0.55550771  0.15702273
   0.11136185  0.77780359  0.07916224
   0.66678556  0.99975918  0.23383235
   0.77751480  0.44454087  0.31170316
   0.11129419  0.44453148  0.31170772
   0.05553078  0.38907245  0.38960919
   0.00002509  0.33328715  0.46622325
   0.16664496  0.16671589  0.46623888
   0.11097027  0.11146613  0.54441451
   0.55541508  0.88871622  0.38970467
   0.22264970  0.55554955  0.38994349
   0.22239480  0.22219534  0.38961170
   0.33027636  0.67281847  0.46556385
   0.33358477  0.99996649  0.46644436
   0.45072900  0.43366498  0.55070373
   0.11107490  0.44437943  0.07896094
   0.11115541  0.27782256  0.07864528
   0.05553593  0.22224908  0.15693024
   0.00011495  0.16679532  0.23394748
   0.16667519  0.00001445  0.23389202
   0.22203961  0.05561047  0.15711348
   0.27781449  0.11108440  0.07889603
   0.38870480  0.05564111  0.15723281
   0.33323894 -0.00001035  0.23393839
   0.16643117  0.16677839  0.23394999
   0.11114399  0.11105745  0.31195590
   0.05555119  0.05539385  0.38961214
   0.99979769  0.99995678  0.46644051
   0.27771131  0.27774142  0.07896009
   0.22203458  0.22236393  0.15711134
   0.05568791  0.38870349  0.15711092
   0.00010730  0.33309154  0.23394254
   0.44458547  0.11107795  0.07907480
   0.11116132  0.11102024  0.07864097
   0.05568346  0.05560773  0.15710790
   0.00009736 -0.00001263  0.23393428
   0.94437440  0.94421809  0.54478141
   0.39002300  0.56834032  0.46875340
   0.38318905  0.52297604  0.53178700
Direct configuration=     3
   0.44712059  0.61382300  0.54862937
   0.61627145  0.44187637  0.54279811
   0.77933317  0.27644365  0.54458498
   0.94445316  0.11112671  0.54455528
   0.94474576  0.27762519  0.54440006
   0.94448004  0.44439472  0.54455287
   0.77754952  0.61140318  0.54477877
   0.61072552  0.77739225  0.54503661
   0.44473050  0.94421045  0.54477819
   0.61106708  0.94447548  0.54423528
   0.77779471  0.94444873  0.54423933
   0.94525790  0.77737888  0.54505434
   0.94436244  0.61140430  0.54478085
   0.83336650  0.66656382  0.46630417
   0.66660205  0.83326918  0.46624173
   0.72222959  0.88886207  0.38988643
   0.88918680  0.72208604  0.38970190
   0.94436575  0.77779745  0.31177938
   0.77775132  0.94442894  0.31180265
   0.94458545  0.94457501  0.31170711
   0.88919574  0.88874150  0.38969842
   0.83340798  0.83328930  0.46624813
   0.77781466  0.77772390  0.54423778
   0.77935141  0.44420091  0.54459712
   0.66770870  0.50002756  0.46597800
   0.83409132  0.33294163  0.46617665
   0.88873150  0.38905450  0.38960232
   0.72185347  0.55575742  0.38955076
   0.77787260  0.61086081  0.31169920
   0.61116100  0.77782419  0.31176504
   0.66676553  0.83344455  0.23383698
   0.83312408  0.66710060  0.23387308
   0.88885476  0.72239767  0.15702766
   0.72224769  0.88889982  0.15676324
   0.77792003  0.94455518  0.07851682
   0.94463373  0.77769029  0.07890963
   0.94438891  0.94434600  0.07907159
   0.88885645  0.88874928  0.15702523
   0.83310150  0.83345135  0.23382853
   0.77777035  0.77782685  0.31179329
   0.72205110  0.72207264  0.38970827
   0.66655343  0.66690304  0.46660267
   0.55529116  0.72195997  0.38992499
   0.50023188  0.83321077  0.46660382
   0.33337157  0.83433562  0.46598101
   0.27525956  0.78278563  0.54278095
   0.10976322  0.94602187  0.54459866
   0.27754082  0.94603562  0.54460138
   0.44344788  0.77841790  0.54523234
   0.49969982  0.66634713  0.46706303
   0.61174756  0.61012846  0.54523318
   0.61114371  0.94443302  0.31179244
   0.44417292  0.94454949  0.31170326
   0.38909176  0.88853290  0.38954200
   0.38890456  0.72172431  0.38998999
   0.22267055  0.72177667  0.38998211
   0.05571925  0.88853149  0.38955486
   0.99991334  0.83319858  0.46659588
   0.16745013  0.66625610  0.46709378
   0.27230335  0.61391586  0.54872419
   0.11156869  0.61008192  0.54522057
   0.27492334  0.44165337  0.54294216
   0.44341713  0.27822288  0.54519796
   0.61068499  0.11196308  0.54505244
   0.66652074  0.16660597  0.46660756
   0.83339076  0.00002954  0.46629026
   0.88885322  0.05553697  0.38958418
   0.72187787  0.22238396  0.38955238
   0.77750494  0.27796209  0.31171302
   0.61053634  0.44473237  0.31198730
   0.66617119  0.50008702  0.23390700
   0.49973633  0.66641017  0.23375794
   0.55548673  0.72216707  0.15730512
   0.38879957  0.88886690  0.15724850
   0.33341932  0.83284463  0.23391828
   0.27806787  0.77720928  0.31197807
   0.11129876  0.94416186  0.31171231
   0.27786528  0.94418144  0.31170700
   0.22223212  0.88886590  0.38954750
   0.16560119  0.83434768  0.46597930
   0.11147606  0.77839673  0.54522516
   0.94458756  0.61087907  0.31170517
   0.94454817  0.44421838  0.31181451
   0.94440259  0.27779903  0.31194702
   0.94455058  0.11121039  0.31183809
   0.83331890  0.16676493  0.23393570
   0.66660722  0.16664106  0.23402764
   0.49974381  0.33385344  0.23376323
   0.55523444  0.38926368  0.15702797
   0.38888412  0.55558115  0.15692119
   0.44429087  0.61094644  0.07847481
   0.61115846  0.44440425  0.07849406
   0.77789314  0.27773982  0.07897283
   0.72220072  0.22232667  0.15723823
   0.72208814  0.05552939  0.15702760
   0.88898483  0.05564329  0.15723337
   0.83312034  0.99977420  0.23388183
   0.77790489  0.11124941  0.31171141
   0.61114364  0.11102774  0.31177725
   0.55541670  0.05583881  0.38970208
   0.49990875  0.00002576  0.46630162
   0.33357988  0.16645017  0.46642958
   0.16628026  0.33294256  0.46617939
   0.99979269  0.50025604  0.46643018
   0.05570243  0.55573924  0.38954526
   0.22223450  0.38889785  0.38954781
   0.27805837  0.44472242  0.31198453
   0.11152584  0.61107398  0.31177620
   0.16718303  0.66642017  0.23376155
   0.99997698  0.83327029  0.23403721
   0.05566555  0.88886790  0.15724355
   0.22261195  0.72188505  0.15702269
   0.27773132  0.77783640  0.07850136
   0.11106364  0.94457573  0.07897463
   0.27769401  0.94458807  0.07897497
   0.44459277  0.94435556  0.07907001
   0.61102157  0.77769295  0.07890646
   0.77769300  0.61125474  0.07907309
   0.72220764  0.55545583  0.15724496
   0.83333096  0.49990225  0.23394194
   0.88895038  0.38869561  0.15711572
   0.83334806  0.33333653  0.23389474
   0.72201185  0.38900573  0.15714355
   0.66616121  0.33373965  0.23390816
   0.61071492  0.27820328  0.31177002
   0.55527571  0.22275606  0.38992358
   0.44441908  0.27819720  0.31177329
   0.38888079  0.38932696  0.38994466
   0.49974276  0.33391793  0.46698889
   0.32935795  0.49646334  0.46499392
   0.38889086  0.55554310  0.38852078
   0.44442365  0.61109958  0.31203257
   0.27780193  0.61110681  0.31200999
   0.33348020  0.50014468  0.23394812
   0.16707255  0.50008957  0.23390737
   0.00009793  0.49990557  0.23394629
   0.16666414  0.33332814  0.23388427
   0.22232326  0.38899497  0.15714371
   0.38881209  0.22231949  0.15724157
   0.55572223  0.05553169  0.15702676
   0.50045121  0.99978401  0.23388484
   0.33324089  0.16676542  0.23394848
   0.27785522  0.27796932  0.31170897
   0.11112886  0.27779162  0.31194721
   0.05555194  0.22219550  0.38949209
   0.00001499  0.16669421  0.46621201
   0.16629789  0.00074158  0.46618371
   0.22237494  0.05539588  0.38960532
   0.27754365  0.11121279  0.31182174
   0.38893835  0.05554297  0.38958679
   0.38907548  0.22237053  0.38954586
   0.50020673  0.16660891  0.46660563
   0.44475363  0.11099981  0.54477678
   0.27774218  0.11113194  0.54454318
   0.11096644  0.27763390  0.54439390
   0.27754991  0.27646834  0.54458559
   0.10978002  0.44421354  0.54458271
   0.16560500  0.50003672  0.46600300
   0.33338495  0.33228605  0.46601171
   0.49970903  0.50015373  0.23394695
   0.44443927  0.44446342  0.31200072
   0.72208713  0.05583772  0.38969655
   0.66662835  0.00008380  0.46625494
   0.83327230  0.50027821  0.46643821
   0.88886595  0.55562061  0.38959457
   0.44415766  0.77781121  0.07916593
   0.38882715  0.72188483  0.15701908
   0.33348716  0.66637366  0.23394102
   0.16706545  0.83283117  0.23391317
   0.11152784  0.77739999  0.31175881
   0.05604408  0.72197023  0.38991893
   0.99993706  0.66689217  0.46659993
   0.61114615  0.61081545  0.07916053
   0.55522742  0.55549069  0.15701824
   0.22233416  0.88867924  0.15714093
   0.77790620  0.44436158  0.07897311
   0.94442518  0.44447632  0.07889555
   0.94440920  0.61124538  0.07907098
   0.88896612  0.55538468  0.15723606
   0.72209103  0.72238109  0.15702632
   0.66660803  0.66674677  0.23403254
   0.61074079  0.61107507  0.31176248
   0.55507178  0.55554544  0.38998942
   0.50722686  0.49670888  0.46516115
   0.55514919  0.38931816  0.38995324
   0.72221964  0.38888067  0.38953954
   0.66773666  0.33222664  0.46598160
   0.61166795  0.27823560  0.54520145
   0.77758102  0.11101514  0.54478592
   0.83328610  0.16647280  0.46643321
   0.88873322  0.22221163  0.38961025
   0.94436353  0.27782050  0.07864362
   0.94442458  0.11107919  0.07889959
   0.88894322  0.22236368  0.15710919
   0.50007330  0.83326767  0.23403526
   0.44440319  0.77741866  0.31175264
   0.77790878  0.77752526  0.07851081
   0.61085348  0.94456484  0.07851176
   0.55572501  0.88874445  0.15702496
   0.77767538  0.11107081  0.07907850
   0.61101416  0.11130537  0.07890109
   0.44414767  0.27802153  0.07914444
   0.27774413  0.44441539  0.07848765
   0.11136490  0.61081684  0.07914858
   0.05566149  0.55546812  0.15723852
   0.05569613  0.72216334  0.15729556
   0.99995820  0.66676226  0.23403220
   0.61115602  0.27802441  0.07915885
   0.55549371  0.22236551  0.15730297
   0.50008472  0.16662851  0.23403264
   0.44420165  0.11124666  0.31170070
   0.38884251  0.38925543  0.15702764
   0.33343242  0.33373881  0.23390761
   0.44429114  0.44475070  0.07846686
   0.27806949  0.61096359  0.07847566
   0.22259675  0.55550714  0.15702246
   0.11136192  0.77780349  0.07916250
   0.66678586  0.99975849  0.23383214
   0.77751554  0.44454093  0.31170283
   0.11129399  0.44453119  0.31170755
   0.05553008  0.38907267  0.38960909
   0.00002466  0.33328807  0.46622358
   0.16664588  0.16671551  0.46623918
   0.11096891  0.11146888  0.54441455
   0.55541662  0.88871419  0.38970468
   0.22264853  0.55554996  0.38994180
   0.22239464  0.22219458  0.38961169
   0.33017554  0.67302145  0.46552833
   0.33358362  0.99996787  0.46644417
   0.45088146  0.43342419  0.55079579
   0.11107502  0.44438059  0.07896093
   0.11115543  0.27782262  0.07864565
   0.05553521  0.22225005  0.15693067
   0.00011495  0.16679579  0.23394728
   0.16667583  0.00001431  0.23389197
   0.22203944  0.05561066  0.15711350
   0.27781463  0.11108403  0.07889636
   0.38870455  0.05564100  0.15723273
   0.33323909 -0.00001080  0.23393832
   0.16643102  0.16677826  0.23394986
   0.11114477  0.11105638  0.31195655
   0.05555130  0.05539417  0.38961219
   0.99979809  0.99995775  0.46644024
   0.27771237  0.27774158  0.07896004
   0.22203423  0.22236442  0.15711128
   0.05568805  0.38870322  0.15711086
   0.00010702  0.33309114  0.23394216
   0.44458443  0.11107938  0.07907490
   0.11116154  0.11102010  0.07864119
   0.05568345  0.05560782  0.15710773
   0.00009742 -0.00001316  0.23393408
   0.94437527  0.94421760  0.54478175
   0.39006359  0.56879788  0.46823158
   0.38301848  0.52274154  0.53232816
Direct configuration=     4
   0.44727018  0.61381630  0.54867181
   0.61587806  0.44211178  0.54294308
   0.77931168  0.27644224  0.54456995
   0.94444468  0.11113591  0.54455599
   0.94477735  0.27762417  0.54441476
   0.94453223  0.44436347  0.54454681
   0.77754872  0.61140853  0.54478607
   0.61081407  0.77748193  0.54501963
   0.44474015  0.94419304  0.54478314
   0.61105600  0.94450012  0.54424198
   0.77778767  0.94443056  0.54424108
   0.94518415  0.77742177  0.54505615
   0.94435889  0.61139195  0.54480242
   0.83334322  0.66658419  0.46631961
   0.66659004  0.83325593  0.46624327
   0.72223524  0.88883506  0.38987076
   0.88918741  0.72215138  0.38969786
   0.94436090  0.77779166  0.31179859
   0.77777800  0.94444494  0.31181167