 257 257   0   0
  0.1653678E+02  0.1619800E-08  0.1619800E-08  0.1619800E-08  0.2000000E-15
  1.000000000000000E-004
  CAR 
 NiAl                                    
     10.23660713    -10.65625634  301      6.81271309      1.00000000
    -10.656  0.0000E+00  0.0000E+00
    -10.587  0.0000E+00  0.0000E+00
    -10.517  0.0000E+00  0.0000E+00
    -10.447  0.0000E+00  0.0000E+00
    -10.378  0.0000E+00  0.0000E+00
    -10.308  0.0000E+00  0.0000E+00
    -10.238  0.0000E+00  0.0000E+00
    -10.169  0.0000E+00  0.0000E+00
    -10.099  0.0000E+00  0.0000E+00
    -10.029  0.0000E+00  0.0000E+00
     -9.960  0.2826E-12  0.1968E-13
     -9.890  0.7405E-07  0.5157E-08
     -9.821  0.4541E-03  0.3163E-04
     -9.751  0.7488E-01  0.5246E-02
     -9.681  0.4724E+00  0.3815E-01
     -9.612  0.1676E+00  0.4982E-01
     -9.542  0.2598E-02  0.5000E-01
     -9.472  0.1161E-05  0.5000E-01
     -9.403  0.1245E-10  0.5000E-01
     -9.333  0.0000E+00  0.5000E-01
     -9.263  0.0000E+00  0.5000E-01
     -9.194  0.0000E+00  0.5000E-01
     -9.124  0.0000E+00  0.5000E-01
     -9.054  0.0000E+00  0.5000E-01
     -8.985  0.0000E+00  0.5000E-01
     -8.915  0.0000E+00  0.5000E-01
     -8.846  0.0000E+00  0.5000E-01
     -8.776  0.0000E+00  0.5000E-01
     -8.706  0.0000E+00  0.5000E-01
     -8.637  0.0000E+00  0.5000E-01
     -8.567  0.0000E+00  0.5000E-01
     -8.497  0.0000E+00  0.5000E-01
     -8.428  0.0000E+00  0.5000E-01
     -8.358  0.0000E+00  0.5000E-01
     -8.288  0.0000E+00  0.5000E-01
     -8.219  0.0000E+00  0.5000E-01
     -8.149  0.0000E+00  0.5000E-01
     -8.079  0.0000E+00  0.5000E-01
     -8.010  0.0000E+00  0.5000E-01
     -7.940  0.0000E+00  0.5000E-01
     -7.871  0.0000E+00  0.5000E-01
     -7.801  0.0000E+00  0.5000E-01
     -7.731  0.0000E+00  0.5000E-01
     -7.662  0.0000E+00  0.5000E-01
     -7.592  0.0000E+00  0.5000E-01
     -7.522  0.0000E+00  0.5000E-01
     -7.453  0.0000E+00  0.5000E-01
     -7.383  0.0000E+00  0.5000E-01
     -7.313  0.0000E+00  0.5000E-01
     -7.244  0.0000E+00  0.5000E-01
     -7.174  0.0000E+00  0.5000E-01
     -7.104  0.0000E+00  0.5000E-01
     -7.035  0.0000E+00  0.5000E-01
     -6.965  0.0000E+00  0.5000E-01
     -6.896  0.0000E+00  0.5000E-01
     -6.826  0.0000E+00  0.5000E-01
     -6.756  0.0000E+00  0.5000E-01
     -6.687  0.0000E+00  0.5000E-01
     -6.617  0.0000E+00  0.5000E-01
     -6.547  0.0000E+00  0.5000E-01
     -6.478  0.0000E+00  0.5000E-01
     -6.408  0.0000E+00  0.5000E-01
     -6.338  0.0000E+00  0.5000E-01
     -6.269  0.0000E+00  0.5000E-01
     -6.199  0.0000E+00  0.5000E-01
     -6.129  0.0000E+00  0.5000E-01
     -6.060  0.0000E+00  0.5000E-01
     -5.990  0.0000E+00  0.5000E-01
     -5.921  0.0000E+00  0.5000E-01
     -5.851  0.0000E+00  0.5000E-01
     -5.781  0.0000E+00  0.5000E-01
     -5.712  0.0000E+00  0.5000E-01
     -5.642  0.0000E+00  0.5000E-01
     -5.572  0.0000E+00  0.5000E-01
     -5.503  0.0000E+00  0.5000E-01
     -5.433  0.0000E+00  0.5000E-01
     -5.363  0.0000E+00  0.5000E-01
     -5.294  0.0000E+00  0.5000E-01
     -5.224  0.0000E+00  0.5000E-01
     -5.154  0.0000E+00  0.5000E-01
     -5.085  0.0000E+00  0.5000E-01
     -5.015  0.0000E+00  0.5000E-01
     -4.946  0.0000E+00  0.5000E-01
     -4.876  0.0000E+00  0.5000E-01
     -4.806  0.0000E+00  0.5000E-01
     -4.737  0.0000E+00  0.5000E-01
     -4.667  0.3587E-15  0.5000E-01
     -4.597  0.3019E-09  0.5000E-01
     -4.528  0.5801E-05  0.5000E-01
     -4.458  0.2829E-02  0.5020E-01
     -4.388  0.4614E-01  0.5341E-01
     -4.319  0.6425E-01  0.5789E-01
     -4.249  0.2693E+00  0.7664E-01
     -4.179  0.2957E+00  0.9723E-01
     -4.110  0.5553E+00  0.1359E+00
     -4.040  0.4568E+00  0.1677E+00
     -3.971  0.4559E+00  0.1995E+00
     -3.901  0.2263E+00  0.2152E+00
     -3.831  0.3478E+00  0.2394E+00
     -3.762  0.3416E+00  0.2632E+00
     -3.692  0.1216E+01  0.3479E+00
     -3.622  0.7595E+00  0.4008E+00
     -3.553  0.1342E+01  0.4943E+00
     -3.483  0.6569E+00  0.5400E+00
     -3.413  0.1962E+00  0.5537E+00
     -3.344  0.1182E+00  0.5619E+00
     -3.274  0.5994E+00  0.6037E+00
     -3.204  0.5007E+00  0.6385E+00
     -3.135  0.1502E+01  0.7432E+00
     -3.065  0.9595E+00  0.8100E+00
     -2.996  0.1301E+01  0.9006E+00
     -2.926  0.9684E+00  0.9680E+00
     -2.856  0.1363E+01  0.1063E+01
     -2.787  0.7480E+00  0.1115E+01
     -2.717  0.4100E+00  0.1144E+01
     -2.647  0.3800E+00  0.1170E+01
     -2.578  0.1201E+01  0.1254E+01
     -2.508  0.1166E+01  0.1335E+01
     -2.438  0.2527E+01  0.1511E+01
     -2.369  0.1242E+01  0.1597E+01
     -2.299  0.4994E-01  0.1601E+01
     -2.229  0.2085E+00  0.1615E+01
     -2.160  0.4376E+00  0.1646E+01
     -2.090  0.7798E+00  0.1700E+01
     -2.021  0.2294E+01  0.1860E+01
     -1.951  0.1560E+01  0.1969E+01
     -1.881  0.1829E+01  0.2096E+01
     -1.812  0.1242E+01  0.2183E+01
     -1.742  0.1324E+01  0.2275E+01
     -1.672  0.1038E+01  0.2347E+01
     -1.603  0.1372E+01  0.2443E+01
     -1.533  0.1125E+01  0.2521E+01
     -1.463  0.2219E+01  0.2675E+01
     -1.394  0.1659E+01  0.2791E+01
     -1.324  0.1111E+01  0.2868E+01
     -1.254  0.5789E+00  0.2909E+01
     -1.185  0.4597E+00  0.2941E+01
     -1.115  0.3285E+00  0.2963E+01
     -1.046  0.1356E+01  0.3058E+01
     -0.976  0.1413E+01  0.3156E+01
     -0.906  0.1757E+01  0.3279E+01
     -0.837  0.1123E+01  0.3357E+01
     -0.767  0.3657E+01  0.3612E+01
     -0.697  0.1736E+01  0.3733E+01
     -0.628  0.1827E+01  0.3860E+01
     -0.558  0.1017E+01  0.3931E+01
     -0.488  0.5096E+00  0.3966E+01
     -0.419  0.1002E+01  0.4036E+01
     -0.349  0.3847E+01  0.4304E+01
     -0.279  0.1807E+01  0.4430E+01
     -0.210  0.2378E+01  0.4595E+01
     -0.140  0.7764E+00  0.4649E+01
     -0.071  0.2885E+00  0.4669E+01
     -0.001  0.7589E+00  0.4722E+01
      0.069  0.1191E+01  0.4805E+01
      0.138  0.1299E+01  0.4896E+01
      0.208  0.2509E+01  0.5070E+01
      0.278  0.1321E+01  0.5162E+01
      0.347  0.2233E+01  0.5318E+01
      0.417  0.1487E+01  0.5421E+01
      0.487  0.3101E+01  0.5637E+01
      0.556  0.1646E+01  0.5752E+01
      0.626  0.1836E+01  0.5880E+01
      0.696  0.9718E+00  0.5948E+01
      0.765  0.8664E+00  0.6008E+01
      0.835  0.2316E+01  0.6169E+01
      0.904  0.3884E+01  0.6440E+01
      0.974  0.5881E+00  0.6481E+01
      1.044  0.8273E-01  0.6486E+01
      1.113  0.9988E+00  0.6556E+01
      1.183  0.1748E+01  0.6678E+01
      1.253  0.3986E+01  0.6955E+01
      1.322  0.3812E+01  0.7221E+01
      1.392  0.1811E+01  0.7347E+01
      1.462  0.1953E+01  0.7483E+01
      1.531  0.1341E+01  0.7576E+01
      1.601  0.1521E+01  0.7682E+01
      1.671  0.1704E+01  0.7801E+01
      1.740  0.1332E+01  0.7894E+01
      1.810  0.3321E+01  0.8125E+01
      1.879  0.2240E+01  0.8281E+01
      1.949  0.2359E+01  0.8445E+01
      2.019  0.1430E+01  0.8545E+01
      2.088  0.9267E+00  0.8609E+01
      2.158  0.9035E+00  0.8672E+01
      2.228  0.1414E+00  0.8682E+01
      2.297  0.9130E+00  0.8746E+01
      2.367  0.3552E+01  0.8993E+01
      2.437  0.2879E+01  0.9194E+01
      2.506  0.2058E+01  0.9337E+01
      2.576  0.2830E+01  0.9534E+01
      2.646  0.3397E+01  0.9771E+01
      2.715  0.1304E+01  0.9861E+01
      2.785  0.1812E+01  0.9988E+01
      2.854  0.2866E+01  0.1019E+02
      2.924  0.4390E+01  0.1049E+02
      2.994  0.3324E+01  0.1072E+02
      3.063  0.1562E+01  0.1083E+02
      3.133  0.1769E+01  0.1096E+02
      3.203  0.2435E+01  0.1113E+02
      3.272  0.5254E+00  0.1116E+02
      3.342  0.8351E+00  0.1122E+02
      3.412  0.3383E+01  0.1146E+02
      3.481  0.2348E+01  0.1162E+02
      3.551  0.1389E+01  0.1172E+02
      3.621  0.1845E+01  0.1185E+02
      3.690  0.3954E+01  0.1212E+02
      3.760  0.1907E+01  0.1225E+02
      3.829  0.1623E+00  0.1226E+02
      3.899  0.1643E+01  0.1238E+02
      3.969  0.6519E+01  0.1283E+02
      4.038  0.2940E+01  0.1304E+02
      4.108  0.8912E+00  0.1310E+02
      4.178  0.1983E+01  0.1324E+02
      4.247  0.2498E+01  0.1341E+02
      4.317  0.1081E+01  0.1349E+02
      4.387  0.1405E+01  0.1358E+02
      4.456  0.4514E+01  0.1390E+02
      4.526  0.4281E+01  0.1420E+02
      4.596  0.1098E+01  0.1427E+02
      4.665  0.1766E+01  0.1440E+02
      4.735  0.2938E+01  0.1460E+02
      4.804  0.1824E+01  0.1473E+02
      4.874  0.1578E+01  0.1484E+02
      4.944  0.2495E+01  0.1501E+02
      5.013  0.3343E+01  0.1525E+02
      5.083  0.2298E+01  0.1541E+02
      5.153  0.2982E+01  0.1561E+02
      5.222  0.2482E+01  0.1579E+02
      5.292  0.1094E+01  0.1586E+02
      5.362  0.1350E+01  0.1596E+02
      5.431  0.1354E+01  0.1605E+02
      5.501  0.2097E+01  0.1620E+02
      5.571  0.2549E+01  0.1637E+02
      5.640  0.3903E+01  0.1665E+02
      5.710  0.2960E+01  0.1685E+02
      5.779  0.4072E+01  0.1714E+02
      5.849  0.2710E+01  0.1732E+02
      5.919  0.2078E+01  0.1747E+02
      5.988  0.2627E+01  0.1765E+02
      6.058  0.2099E+01  0.1780E+02
      6.128  0.3562E+01  0.1805E+02
      6.197  0.3370E+01  0.1828E+02
      6.267  0.1608E+01  0.1839E+02
      6.337  0.1836E+01  0.1852E+02
      6.406  0.2054E+01  0.1866E+02
      6.476  0.9678E+00  0.1873E+02
      6.546  0.1790E+01  0.1886E+02
      6.615  0.2680E+01  0.1904E+02
      6.685  0.1108E+01  0.1912E+02
      6.754  0.9751E+00  0.1919E+02
      6.824  0.2573E+01  0.1937E+02
      6.894  0.3095E+01  0.1958E+02
      6.963  0.2974E+01  0.1979E+02
      7.033  0.3477E+01  0.2003E+02
      7.103  0.4692E+01  0.2036E+02
      7.172  0.4496E+01  0.2067E+02
      7.242  0.2000E+01  0.2081E+02
      7.312  0.2282E+01  0.2097E+02
      7.381  0.2454E+01  0.2114E+02
      7.451  0.1538E+01  0.2125E+02
      7.521  0.2497E+01  0.2142E+02
      7.590  0.6562E+01  0.2188E+02
      7.660  0.4043E+01  0.2216E+02
      7.729  0.2105E+01  0.2231E+02
      7.799  0.3304E+01  0.2254E+02
      7.869  0.3677E+01  0.2279E+02
      7.938  0.2411E+01  0.2296E+02
      8.008  0.7761E+00  0.2301E+02
      8.078  0.9149E+00  0.2308E+02
      8.147  0.2885E+01  0.2328E+02
      8.217  0.3794E+01  0.2354E+02
      8.287  0.2984E+01  0.2375E+02
      8.356  0.8408E+00  0.2381E+02
      8.426  0.9398E+00  0.2388E+02
      8.496  0.1867E+01  0.2401E+02
      8.565  0.4240E+01  0.2430E+02
      8.635  0.3304E+01  0.2453E+02
      8.704  0.2093E+01  0.2468E+02
      8.774  0.2434E+01  0.2485E+02
      8.844  0.2537E+01  0.2502E+02
      8.913  0.2325E+01  0.2518E+02
      8.983  0.3299E+01  0.2541E+02
      9.053  0.2566E+01  0.2559E+02
      9.122  0.2085E+01  0.2574E+02
      9.192  0.5878E+00  0.2578E+02
      9.262  0.1575E+00  0.2579E+02
      9.331  0.1308E+00  0.2580E+02
      9.401  0.1191E-01  0.2580E+02
      9.471  0.5968E-04  0.2580E+02
      9.540  0.9358E-08  0.2580E+02
      9.610  0.3548E-13  0.2580E+02
      9.679  0.0000E+00  0.2580E+02
      9.749  0.0000E+00  0.2580E+02
      9.819  0.0000E+00  0.2580E+02
      9.888  0.0000E+00  0.2580E+02
      9.958  0.0000E+00  0.2580E+02
     10.028  0.0000E+00  0.2580E+02
     10.097  0.0000E+00  0.2580E+02
     10.167  0.0000E+00  0.2580E+02
     10.237  0.0000E+00  0.2580E+02
