         265
 Energy:  -938.99219979999998     
 X   0.00000000       0.00000000       0.00000000    
 X   16.1980000       0.00000000       0.00000000    
 X   0.00000000       16.1980000       0.00000000    
 X   0.00000000       0.00000000       16.1980000    
 X   16.1980000       16.1980000       0.00000000    
 X   16.1980000       0.00000000       16.1980000    
 X   0.00000000       16.1980000       16.1980000    
 X   16.1980000       16.1980000       16.1980000    
 Al   0.00000000       0.00000000       0.00000000    
 Al   0.00000000       2.02474999       2.02474999    
 Al   2.02474999       0.00000000       2.02474999    
 Al   2.02474999       2.02474999       0.00000000    
 Al   0.00000000       0.00000000       4.04949999    
 Al   0.00000000       2.02474999       6.07425022    
 Al   2.02474999       0.00000000       6.07425022    
 Al   2.02474999       2.02474999       4.04949999    
 Al   0.00000000       0.00000000       8.09899998    
 Al   0.00000000       2.02474999       10.1237497    
 Al   2.02474999       0.00000000       10.1237497    
 Al   2.02474999       2.02474999       8.09899998    
 Al   0.00000000       0.00000000       12.1485004    
 Al   0.00000000       2.02474999       14.1732502    
 Al   2.02474999       0.00000000       14.1732502    
 Al   2.02474999       2.02474999       12.1485004    
 Al   0.00000000       4.04949999       0.00000000    
 Al   0.00000000       6.07425022       2.02474999    
 Al   2.02474999       4.04949999       2.02474999    
 Al   2.02474999       6.07425022       0.00000000    
 Al   0.00000000       4.04949999       4.04949999    
 Al   0.00000000       6.07425022       6.07425022    
 Al   2.02474999       4.04949999       6.07425022    
 Al   2.02474999       6.07425022       4.04949999    
 Al   0.00000000       4.04949999       8.09899998    
 Al   0.00000000       6.07425022       10.1237497    
 Al   2.02474999       4.04949999       10.1237497    
 Al   2.02474999       6.07425022       8.09899998    
 Al   0.00000000       4.04949999       12.1485004    
 Al   0.00000000       6.07425022       14.1732502    
 Al   2.02474999       4.04949999       14.1732502    
 Al   2.02474999       6.07425022       12.1485004    
 Al   0.00000000       8.09899998       0.00000000    
 Al   0.00000000       10.1237497       2.02474999    
 Al   2.02474999       8.09899998       2.02474999    
 Al   2.02474999       10.1237497       0.00000000    
 Al   0.00000000       8.09899998       4.04949999    
 Al   0.00000000       10.1237497       6.07425022    
 Al   2.02474999       8.09899998       6.07425022    
 Al   2.02474999       10.1237497       4.04949999    
 Al   0.00000000       8.09899998       8.09899998    
 Al   0.00000000       10.1237497       10.1237497    
 Al   2.02474999       8.09899998       10.1237497    
 Al   2.02474999       10.1237497       8.09899998    
 Al   0.00000000       8.09899998       12.1485004    
 Al   0.00000000       10.1237497       14.1732502    
 Al   2.02474999       8.09899998       14.1732502    
 Al   2.02474999       10.1237497       12.1485004    
 Al   0.00000000       12.1485004       0.00000000    
 Al   0.00000000       14.1732502       2.02474999    
 Al   2.02474999       12.1485004       2.02474999    
 Al   2.02474999       14.1732502       0.00000000    
 Al   0.00000000       12.1485004       4.04949999    
 Al   0.00000000       14.1732502       6.07425022    
 Al   2.02474999       12.1485004       6.07425022    
 Al   2.02474999       14.1732502       4.04949999    
 Al   0.00000000       12.1485004       8.09899998    
 Al   0.00000000       14.1732502       10.1237497    
 Al   2.02474999       12.1485004       10.1237497    
 Al   2.02474999       14.1732502       8.09899998    
 Al   0.00000000       12.1485004       12.1485004    
 Al   0.00000000       14.1732502       14.1732502    
 Al   2.02474999       12.1485004       14.1732502    
 Al   2.02474999       14.1732502       12.1485004    
 Al   4.04949999       0.00000000       0.00000000    
 Al   4.04949999       2.02474999       2.02474999    
 Al   6.07425022       0.00000000       2.02474999    
 Al   6.07425022       2.02474999       0.00000000    
 Al   4.04949999       0.00000000       4.04949999    
 Al   4.04949999       2.02474999       6.07425022    
 Al   6.07425022       0.00000000       6.07425022    
 Al   6.07425022       2.02474999       4.04949999    
 Al   4.04949999       0.00000000       8.09899998    
 Al   4.04949999       2.02474999       10.1237497    
 Al   6.07425022       0.00000000       10.1237497    
 Al   6.07425022       2.02474999       8.09899998    
 Al   4.04949999       0.00000000       12.1485004    
 Al   4.04949999       2.02474999       14.1732502    
 Al   6.07425022       0.00000000       14.1732502    
 Al   6.07425022       2.02474999       12.1485004    
 Al   4.04949999       4.04949999       0.00000000    
 Al   4.04949999       6.07425022       2.02474999    
 Al   6.07425022       4.04949999       2.02474999    
 Al   6.07425022       6.07425022       0.00000000    
 Al   4.04949999       4.04949999       4.04949999    
 Al   4.04949999       6.07425022       6.07425022    
 Al   6.07425022       4.04949999       6.07425022    
 Al   6.07425022       6.07425022       4.04949999    
 Al   4.04949999       4.04949999       8.09899998    
 Al   4.04949999       6.07425022       10.1237497    
 Al   6.07425022       4.04949999       10.1237497    
 Al   6.07425022       6.07425022       8.09899998    
 Al   4.04949999       4.04949999       12.1485004    
 Al   4.04949999       6.07425022       14.1732502    
 Al   6.07425022       4.04949999       14.1732502    
 Al   6.07425022       6.07425022       12.1485004    
 Al   4.04949999       8.09899998       0.00000000    
 Al   4.04949999       10.1237497       2.02474999    
 Al   6.07425022       8.09899998       2.02474999    
 Al   6.07425022       10.1237497       0.00000000    
 Al   4.04949999       8.09899998       4.04949999    
 Al   4.04949999       10.1237497       6.07425022    
 Al   6.07425022       8.09899998       6.07425022    
 Al   6.07425022       10.1237497       4.04949999    
 Al   4.04949999       8.09899998       8.09899998    
 Al   4.04949999       10.1237497       10.1237497    
 Al   6.07425022       8.09899998       10.1237497    
 Al   6.07425022       10.1237497       8.09899998    
 Al   4.04949999       8.09899998       12.1485004    
 Al   4.04949999       10.1237497       14.1732502    
 Al   6.07425022       8.09899998       14.1732502    
 Al   6.07425022       10.1237497       12.1485004    
 Al   4.04949999       12.1485004       0.00000000    
 Al   4.04949999       14.1732502       2.02474999    
 Al   6.07425022       12.1485004       2.02474999    
 Al   6.07425022       14.1732502       0.00000000    
 Al   4.04949999       12.1485004       4.04949999    
 Al   4.04949999       14.1732502       6.07425022    
 Al   6.07425022       12.1485004       6.07425022    
 Al   6.07425022       14.1732502       4.04949999    
 Al   4.04949999       12.1485004       8.09899998    
 Al   4.04949999       14.1732502       10.1237497    
 Al   6.07425022       12.1485004       10.1237497    
 Al   6.07425022       14.1732502       8.09899998    
 Al   4.04949999       12.1485004       12.1485004    
 Al   4.04949999       14.1732502       14.1732502    
 Al   6.07425022       12.1485004       14.1732502    
 Al   6.07425022       14.1732502       12.1485004    
 Al   8.09899998       0.00000000       0.00000000    
 Al   8.09899998       2.02474999       2.02474999    
 Al   10.1237497       0.00000000       2.02474999    
 Al   10.1237497       2.02474999       0.00000000    
 Al   8.09899998       0.00000000       4.04949999    
 Al   8.09899998       2.02474999       6.07425022    
 Al   10.1237497       0.00000000       6.07425022    
 Al   10.1237497       2.02474999       4.04949999    
 Al   8.09899998       0.00000000       8.09899998    
 Al   8.09899998       2.02474999       10.1237497    
 Al   10.1237497       0.00000000       10.1237497    
 Al   10.1237497       2.02474999       8.09899998    
 Al   8.09899998       0.00000000       12.1485004    
 Al   8.09899998       2.02474999       14.1732502    
 Al   10.1237497       0.00000000       14.1732502    
 Al   10.1237497       2.02474999       12.1485004    
 Al   8.09899998       4.04949999       0.00000000    
 Al   8.09899998       6.07425022       2.02474999    
 Al   10.1237497       4.04949999       2.02474999    
 Al   10.1237497       6.07425022       0.00000000    
 Al   8.09899998       4.04949999       4.04949999    
 Al   8.09899998       6.07425022       6.07425022    
 Al   10.1237497       4.04949999       6.07425022    
 Al   10.1237497       6.07425022       4.04949999    
 Al   8.09899998       4.04949999       8.09899998    
 Al   8.09899998       6.07425022       10.1237497    
 Al   10.1237497       4.04949999       10.1237497    
 Al   10.1237497       6.07425022       8.09899998    
 Al   8.09899998       4.04949999       12.1485004    
 Al   8.09899998       6.07425022       14.1732502    
 Al   10.1237497       4.04949999       14.1732502    
 Al   10.1237497       6.07425022       12.1485004    
 Al   8.09899998       8.09899998       0.00000000    
 Al   8.09899998       10.1237497       2.02474999    
 Al   10.1237497       8.09899998       2.02474999    
 Al   10.1237497       10.1237497       0.00000000    
 Al   8.09899998       8.09899998       4.04949999    
 Al   8.09899998       10.1237497       6.07425022    
 Al   10.1237497       8.09899998       6.07425022    
 Al   10.1237497       10.1237497       4.04949999    
 Al   8.09899998       8.09899998       8.09899998    
 Al   8.09899998       10.1237497       10.1237497    
 Al   10.1237497       8.09899998       10.1237497    
 Al   10.1237497       10.1237497       8.09899998    
 Al   8.09899998       8.09899998       12.1485004    
 Al   8.09899998       10.1237497       14.1732502    
 Al   10.1237497       8.09899998       14.1732502    
 Al   10.1237497       10.1237497       12.1485004    
 Al   8.09899998       12.1485004       0.00000000    
 Al   8.09899998       14.1732502       2.02474999    
 Al   10.1237497       12.1485004       2.02474999    
 Al   10.1237497       14.1732502       0.00000000    
 Al   8.09899998       12.1485004       4.04949999    
 Al   8.09899998       14.1732502       6.07425022    
 Al   10.1237497       12.1485004       6.07425022    
 Al   10.1237497       14.1732502       4.04949999    
 Al   8.09899998       12.1485004       8.09899998    
 Al   8.09899998       14.1732502       10.1237497    
 Al   10.1237497       12.1485004       10.1237497    
 Al   10.1237497       14.1732502       8.09899998    
 Al   8.09899998       12.1485004       12.1485004    
 Al   8.09899998       14.1732502       14.1732502    
 Al   10.1237497       12.1485004       14.1732502    
 Al   10.1237497       14.1732502       12.1485004    
 Al   12.1485004       0.00000000       0.00000000    
 Al   12.1485004       2.02474999       2.02474999    
 Al   14.1732502       0.00000000       2.02474999    
 Al   14.1732502       2.02474999       0.00000000    
 Al   12.1485004       0.00000000       4.04949999    
 Al   12.1485004       2.02474999       6.07425022    
 Al   14.1732502       0.00000000       6.07425022    
 Al   14.1732502       2.02474999       4.04949999    
 Al   12.1485004       0.00000000       8.09899998    
 Al   12.1485004       2.02474999       10.1237497    
 Al   14.1732502       0.00000000       10.1237497    
 Al   14.1732502       2.02474999       8.09899998    
 Al   12.1485004       0.00000000       12.1485004    
 Al   12.1485004       2.02474999       14.1732502    
 Al   14.1732502       0.00000000       14.1732502    
 Al   14.1732502       2.02474999       12.1485004    
 Al   12.1485004       4.04949999       0.00000000    
 Al   12.1485004       6.07425022       2.02474999    
 Al   14.1732502       4.04949999       2.02474999    
 Al   14.1732502       6.07425022       0.00000000    
 Al   12.1485004       4.04949999       4.04949999    
 Al   12.1485004       6.07425022       6.07425022    
 Al   14.1732502       4.04949999       6.07425022    
 Al   14.1732502       6.07425022       4.04949999    
 Al   12.1485004       4.04949999       8.09899998    
 Al   12.1485004       6.07425022       10.1237497    
 Al   14.1732502       4.04949999       10.1237497    
 Al   14.1732502       6.07425022       8.09899998    
 Al   12.1485004       4.04949999       12.1485004    
 Al   12.1485004       6.07425022       14.1732502    
 Al   14.1732502       4.04949999       14.1732502    
 Al   14.1732502       6.07425022       12.1485004    
 Al   12.1485004       8.09899998       0.00000000    
 Al   12.1485004       10.1237497       2.02474999    
 Al   14.1732502       8.09899998       2.02474999    
 Al   14.1732502       10.1237497       0.00000000    
 Al   12.1485004       8.09899998       4.04949999    
 Al   12.1485004       10.1237497       6.07425022    
 Al   14.1732502       8.09899998       6.07425022    
 Al   14.1732502       10.1237497       4.04949999    
 Al   12.1485004       8.09899998       8.09899998    
 Al   12.1485004       10.1237497       10.1237497    
 Al   14.1732502       8.09899998       10.1237497    
 Al   14.1732502       10.1237497       8.09899998    
 Al   12.1485004       8.09899998       12.1485004    
 Al   12.1485004       10.1237497       14.1732502    
 Al   14.1732502       8.09899998       14.1732502    
 Al   14.1732502       10.1237497       12.1485004    
 Al   12.1485004       12.1485004       0.00000000    
 Al   12.1485004       14.1732502       2.02474999    
 Al   14.1732502       12.1485004       2.02474999    
 Al   14.1732502       14.1732502       0.00000000    
 Al   12.1485004       12.1485004       4.04949999    
 Al   12.1485004       14.1732502       6.07425022    
 Al   14.1732502       12.1485004       6.07425022    
 Al   14.1732502       14.1732502       4.04949999    
 Al   12.1485004       12.1485004       8.09899998    
 Al   12.1485004       14.1732502       10.1237497    
 Al   14.1732502       12.1485004       10.1237497    
 Al   14.1732502       14.1732502       8.09899998    
 Al   12.1485004       12.1485004       12.1485004    
 Al   12.1485004       14.1732502       14.1732502    
 Al   14.1732502       12.1485004       14.1732502    
 Al   14.1732502       14.1732502       12.1485004    
 N    1.01238000       0.00000000       0.00000000    
         265
 Energy:  -676.04423710000003     
 X   0.00000000       0.00000000       0.00000000    
 X   16.1980000       0.00000000       0.00000000    
 X   0.00000000       16.1980000       0.00000000    
 X   0.00000000       0.00000000       16.1980000    
 X   16.1980000       16.1980000       0.00000000    
 X   16.1980000       0.00000000       16.1980000    
 X   0.00000000       16.1980000       16.1980000    
 X   16.1980000       16.1980000       16.1980000    
 Al  -2.61276007       0.00000000       0.00000000    
 Al  -2.74999999E-03   2.03126001       2.03126001    
 Al   2.02603006       0.00000000       2.02168989    
 Al   2.02603006       2.02168989       0.00000000    
 Al   5.20000001E-04   0.00000000       4.04877996    
 Al   1.80000003E-04   2.02446008       6.07399988    
 Al   2.02444005       0.00000000       6.07354021    
 Al   2.02480006       2.02456999       4.05024004    
 Al   3.39999999E-04   0.00000000       8.09899998    
 Al   1.80000003E-04   2.02446008       10.1239996    
 Al   2.02444005       0.00000000       10.1244602    
 Al   2.02468991       2.02472997       8.09899998    
 Al   5.20000001E-04   0.00000000       12.1492205    
 Al  -2.74999999E-03   2.03126001       14.1667404    
 Al   2.02603006       0.00000000       14.1763096    
 Al   2.02480006       2.02456999       12.1477604    
 Al   5.20000001E-04   4.04877996       0.00000000    
 Al   1.80000003E-04   6.07399988       2.02446008    
 Al   2.02480006       4.05024004       2.02456999    
 Al   2.02444005       6.07354021       0.00000000    
 Al   3.49999988E-04   4.04870987       4.04870987    
 Al   2.99999992E-05   6.07435989       6.07435989    
 Al   2.02447009       4.04910994       6.07423019    
 Al   2.02447009       6.07423019       4.04910994    
 Al   2.80000007E-04   4.04935980       8.09899998    
 Al   2.99999992E-05   6.07435989       10.1236401    
 Al   2.02447009       4.04910994       10.1237698    
 Al   2.02479005       6.07449007       8.09899998    
 Al   3.49999988E-04   4.04870987       12.1492901    
 Al   1.80000003E-04   6.07399988       14.1735401    
 Al   2.02480006       4.05024004       14.1734304    
 Al   2.02447009       6.07423019       12.1488895    
 Al   3.39999999E-04   8.09899998       0.00000000    
 Al   1.80000003E-04   10.1239996       2.02446008    
 Al   2.02468991       8.09899998       2.02472997    
 Al   2.02444005       10.1244602       0.00000000    
 Al   2.80000007E-04   8.09899998       4.04935980    
 Al   2.99999992E-05   10.1236401       6.07435989    
 Al   2.02479005       8.09899998       6.07449007    
 Al   2.02447009       10.1237698       4.04910994    
 Al  -1.99999995E-05   8.09899998       8.09899998    
 Al   2.99999992E-05   10.1236401       10.1236401    
 Al   2.02479005       8.09899998       10.1235104    
 Al   2.02479005       10.1235104       8.09899998    
 Al   2.80000007E-04   8.09899998       12.1486397    
 Al   1.80000003E-04   10.1239996       14.1735401    
 Al   2.02468991       8.09899998       14.1732702    
 Al   2.02447009       10.1237698       12.1488895    
 Al   5.20000001E-04   12.1492205       0.00000000    
 Al  -2.74999999E-03   14.1667404       2.03126001    
 Al   2.02480006       12.1477604       2.02456999    
 Al   2.02603006       14.1763096       0.00000000    
 Al   3.49999988E-04   12.1492901       4.04870987    
 Al   1.80000003E-04   14.1735401       6.07399988    
 Al   2.02447009       12.1488895       6.07423019    
 Al   2.02480006       14.1734304       4.05024004    
 Al   2.80000007E-04   12.1486397       8.09899998    
 Al   1.80000003E-04   14.1735401       10.1239996    
 Al   2.02447009       12.1488895       10.1237698    
 Al   2.02468991       14.1732702       8.09899998    
 Al   3.49999988E-04   12.1492901       12.1492901    
 Al  -2.74999999E-03   14.1667404       14.1667404    
 Al   2.02480006       12.1477604       14.1734304    
 Al   2.02480006       14.1734304       12.1477604    
 Al   4.05471992       0.00000000       0.00000000    
 Al   4.04762983       2.02288008       2.02288008    
 Al   6.07461023       0.00000000       2.02414989    
 Al   6.07461023       2.02414989       0.00000000    
 Al   4.04895020       0.00000000       4.04990005    
 Al   4.04917002       2.02435994       6.07429981    
 Al   6.07399988       0.00000000       6.07410002    
 Al   6.07455015       2.02494001       4.04957008    
 Al   4.04962015       0.00000000       8.09899998    
 Al   4.04917002       2.02435994       10.1237001    
 Al   6.07399988       0.00000000       10.1239004    
 Al   6.07414007       2.02477002       8.09899998    
 Al   4.04895020       0.00000000       12.1480999    
 Al   4.04762983       2.02288008       14.1751204    
 Al   6.07461023       0.00000000       14.1738501    
 Al   6.07455015       2.02494001       12.1484299    
 Al   4.04895020       4.04990005       0.00000000    
 Al   4.04917002       6.07429981       2.02435994    
 Al   6.07455015       4.04957008       2.02494001    
 Al   6.07399988       6.07410002       0.00000000    
 Al   4.04987001       4.04956007       4.04956007    
 Al   4.04934978       6.07424021       6.07424021    
 Al   6.07413006       4.04941988       6.07423019    
 Al   6.07413006       6.07423019       4.04941988    
 Al   4.04942989       4.04929018       8.09899998    
 Al   4.04934978       6.07424021       10.1237602    
 Al   6.07413006       4.04941988       10.1237698    
 Al   6.07415009       6.07409000       8.09899998    
 Al   4.04987001       4.04956007       12.1484404    
 Al   4.04917002       6.07429981       14.1736403    
 Al   6.07455015       4.04957008       14.1730604    
 Al   6.07413006       6.07423019       12.1485796    
 Al   4.04962015       8.09899998       0.00000000    
 Al   4.04917002       10.1237001       2.02435994    
 Al   6.07414007       8.09899998       2.02477002    
 Al   6.07399988       10.1239004       0.00000000    
 Al   4.04942989       8.09899998       4.04929018    
 Al   4.04934978       10.1237602       6.07424021    
 Al   6.07415009       8.09899998       6.07409000    
 Al   6.07413006       10.1237698       4.04941988    
 Al   4.04946995       8.09899998       8.09899998    
 Al   4.04934978       10.1237602       10.1237602    
 Al   6.07415009       8.09899998       10.1239100    
 Al   6.07415009       10.1239100       8.09899998    
 Al   4.04942989       8.09899998       12.1487103    
 Al   4.04917002       10.1237001       14.1736403    
 Al   6.07414007       8.09899998       14.1732302    
 Al   6.07413006       10.1237698       12.1485796    
 Al   4.04895020       12.1480999       0.00000000    
 Al   4.04762983       14.1751204       2.02288008    
 Al   6.07455015       12.1484299       2.02494001    
 Al   6.07461023       14.1738501       0.00000000    
 Al   4.04987001       12.1484404       4.04956007    
 Al   4.04917002       14.1736403       6.07429981    
 Al   6.07413006       12.1485796       6.07423019    
 Al   6.07455015       14.1730604       4.04957008    
 Al   4.04942989       12.1487103       8.09899998    
 Al   4.04917002       14.1736403       10.1237001    
 Al   6.07413006       12.1485796       10.1237698    
 Al   6.07414007       14.1732302       8.09899998    
 Al   4.04987001       12.1484404       12.1484404    
 Al   4.04762983       14.1751204       14.1751204    
 Al   6.07455015       12.1484299       14.1730604    
 Al   6.07455015       14.1730604       12.1484299    
 Al   8.09932995       0.00000000       0.00000000    
 Al   8.09902000       2.02469993       2.02469993    
 Al   10.1240101       0.00000000       2.02460003    
 Al   10.1240101       2.02460003       0.00000000    
 Al   8.09875011       0.00000000       4.04949999    
 Al   8.09873962       2.02467990       6.07402992    
 Al   10.1239204       0.00000000       6.07403994    
 Al   10.1238298       2.02477002       4.04933977    
 Al   8.09889030       0.00000000       8.09899998    
 Al   8.09873962       2.02467990       10.1239700    
 Al   10.1239204       0.00000000       10.1239595    
 Al   10.1239700       2.02473998       8.09899998    
 Al   8.09875011       0.00000000       12.1485004    
 Al   8.09902000       2.02469993       14.1732998    
 Al   10.1240101       0.00000000       14.1733999    
 Al   10.1238298       2.02477002       12.1486597    
 Al   8.09875011       4.04949999       0.00000000    
 Al   8.09873962       6.07402992       2.02467990    
 Al   10.1238298       4.04933977       2.02477002    
 Al   10.1239204       6.07403994       0.00000000    
 Al   8.09883976       4.04931021       4.04931021    
 Al   8.09904957       6.07425022       6.07425022    
 Al   10.1237202       4.04940987       6.07434988    
 Al   10.1237202       6.07434988       4.04940987    
 Al   8.09889984       4.04932022       8.09899998    
 Al   8.09904957       6.07425022       10.1237497    
 Al   10.1237202       4.04940987       10.1236496    
 Al   10.1237202       6.07445002       8.09899998    
 Al   8.09883976       4.04931021       12.1486902    
 Al   8.09873962       6.07402992       14.1733198    
 Al   10.1238298       4.04933977       14.1732302    
 Al   10.1237202       6.07434988       12.1485901    
 Al   8.09889030       8.09899998       0.00000000    
 Al   8.09873962       10.1239700       2.02467990    
 Al   10.1239700       8.09899998       2.02473998    
 Al   10.1239204       10.1239595       0.00000000    
 Al   8.09889984       8.09899998       4.04932022    
 Al   8.09904957       10.1237497       6.07425022    
 Al   10.1237202       8.09899998       6.07445002    
 Al   10.1237202       10.1236496       4.04940987    
 Al   8.09936047       8.09899998       8.09899998    
 Al   8.09904957       10.1237497       10.1237497    
 Al   10.1237202       8.09899998       10.1235504    
 Al   10.1237202       10.1235504       8.09899998    
 Al   8.09889984       8.09899998       12.1486797    
 Al   8.09873962       10.1239700       14.1733198    
 Al   10.1239700       8.09899998       14.1732597    
 Al   10.1237202       10.1236496       12.1485901    
 Al   8.09875011       12.1485004       0.00000000    
 Al   8.09902000       14.1732998       2.02469993    
 Al   10.1238298       12.1486597       2.02477002    
 Al   10.1240101       14.1733999       0.00000000    
 Al   8.09883976       12.1486902       4.04931021    
 Al   8.09873962       14.1733198       6.07402992    
 Al   10.1237202       12.1485901       6.07434988    
 Al   10.1238298       14.1732302       4.04933977    
 Al   8.09889984       12.1486797       8.09899998    
 Al   8.09873962       14.1733198       10.1239700    
 Al   10.1237202       12.1485901       10.1236496    
 Al   10.1239700       14.1732597       8.09899998    
 Al   8.09883976       12.1486902       12.1486902    
 Al   8.09902000       14.1732998       14.1732998    
 Al   10.1238298       12.1486597       14.1732302    
 Al   10.1238298       14.1732302       12.1486597    
 Al   12.1485596       0.00000000       0.00000000    
 Al   12.1484499       2.02431011       2.02431011    
 Al   14.1739302       0.00000000       2.02383995    
 Al   14.1739302       2.02383995       0.00000000    
 Al   12.1481504       0.00000000       4.04962015    
 Al   12.1485300       2.02470994       6.07432985    
 Al   14.1734200       0.00000000       6.07424021    
 Al   14.1737700       2.02433991       4.04959011    
 Al   12.1485395       0.00000000       8.09899998    
 Al   12.1485300       2.02470994       10.1236696    
 Al   14.1734200       0.00000000       10.1237602    
 Al   14.1733799       2.02470994       8.09899998    
 Al   12.1481504       0.00000000       12.1483803    
 Al   12.1484499       2.02431011       14.1736898    
 Al   14.1739302       0.00000000       14.1741600    
 Al   14.1737700       2.02433991       12.1484098    
 Al   12.1481504       4.04962015       0.00000000    
 Al   12.1485300       6.07432985       2.02470994    
 Al   14.1737700       4.04959011       2.02433991    
 Al   14.1734200       6.07424021       0.00000000    
 Al   12.1486797       4.04931021       4.04931021    
 Al   12.1486797       6.07419014       6.07419014    
 Al   14.1732702       4.04936981       6.07406998    
 Al   14.1732702       6.07406998       4.04936981    
 Al   12.1485004       4.04959011       8.09899998    
 Al   12.1486797       6.07419014       10.1238098    
 Al   14.1732702       4.04936981       10.1239300    
 Al   14.1732597       6.07434988       8.09899998    
 Al   12.1486797       4.04931021       12.1486902    
 Al   12.1485300       6.07432985       14.1732903    
 Al   14.1737700       4.04959011       14.1736603    
 Al   14.1732702       6.07406998       12.1486301    
 Al   12.1485395       8.09899998       0.00000000    
 Al   12.1485300       10.1236696       2.02470994    
 Al   14.1733799       8.09899998       2.02470994    
 Al   14.1734200       10.1237602       0.00000000    
 Al   12.1485004       8.09899998       4.04959011    
 Al   12.1486797       10.1238098       6.07419014    
 Al   14.1732597       8.09899998       6.07434988    
 Al   14.1732702       10.1239300       4.04936981    
 Al   12.1484604       8.09899998       8.09899998    
 Al   12.1486797       10.1238098       10.1238098    
 Al   14.1732597       8.09899998       10.1236496    
 Al   14.1732597       10.1236496       8.09899998    
 Al   12.1485004       8.09899998       12.1484098    
 Al   12.1485300       10.1236696       14.1732903    
 Al   14.1733799       8.09899998       14.1732903    
 Al   14.1732702       10.1239300       12.1486301    
 Al   12.1481504       12.1483803       0.00000000    
 Al   12.1484499       14.1736898       2.02431011    
 Al   14.1737700       12.1484098       2.02433991    
 Al   14.1739302       14.1741600       0.00000000    
 Al   12.1486797       12.1486902       4.04931021    
 Al   12.1485300       14.1732903       6.07432985    
 Al   14.1732702       12.1486301       6.07406998    
 Al   14.1737700       14.1736603       4.04959011    
 Al   12.1485004       12.1484098       8.09899998    
 Al   12.1485300       14.1732903       10.1236696    
 Al   14.1732702       12.1486301       10.1239300    
 Al   14.1733799       14.1732903       8.09899998    
 Al   12.1486797       12.1486902       12.1486902    
 Al   12.1484499       14.1736898       14.1736898    
 Al   14.1737700       12.1484098       14.1736603    
 Al   14.1737700       14.1736603       12.1484098    
 N    3.62444997       0.00000000       0.00000000    
         265
 Energy:  -968.99327970000002     
 X   0.00000000       0.00000000       0.00000000    
 X   16.1980000       0.00000000       0.00000000    
 X   0.00000000       16.1980000       0.00000000    
 X   0.00000000       0.00000000       16.1980000    
 X   16.1980000       16.1980000       0.00000000    
 X   16.1980000       0.00000000       16.1980000    
 X   0.00000000       16.1980000       16.1980000    
 X   16.1980000       16.1980000       16.1980000    
 Al -0.491499990       0.00000000       0.00000000    
 Al  -5.20000001E-04   2.02596998       2.02596998    
 Al   2.02499008       0.00000000       2.02416992    
 Al   2.02499008       2.02416992       0.00000000    
 Al   9.99999975E-05   0.00000000       4.04935980    