       N       E                     dE             d eps       ncg     rms          rms(c)
DAV:   1     0.124050339902E+04    0.12405E+04   -0.19022E+05  6192   0.789E+02
DAV:   2    -0.804922647764E+03   -0.20454E+04   -0.19161E+04  8664   0.175E+02
DAV:   3    -0.949995933762E+03   -0.14507E+03   -0.13718E+03  7824   0.340E+01
DAV:   4    -0.956990002431E+03   -0.69941E+01   -0.69031E+01  8484   0.839E+00
DAV:   5    -0.957112170660E+03   -0.12217E+00   -0.12177E+00  7944   0.121E+00    0.253E+01
DAV:   6    -0.941789069274E+03    0.15323E+02   -0.49079E+01  8268   0.665E+00    0.135E+01
DAV:   7    -0.941163675025E+03    0.62539E+00   -0.15525E+01  7308   0.543E+00    0.794E+00
DAV:   8    -0.939922673554E+03    0.12410E+01   -0.73911E+00  7620   0.389E+00    0.539E+00
DAV:   9    -0.939049072130E+03    0.87360E+00   -0.30815E+00  9024   0.237E+00    0.157E+00
DAV:  10    -0.939031483768E+03    0.17588E-01   -0.13106E+00  7272   0.113E+00    0.158E+00
DAV:  11    -0.938977966449E+03    0.53517E-01   -0.32023E-01  9804   0.639E-01    0.446E-01
DAV:  12    -0.939006638167E+03   -0.28672E-01   -0.31932E-01  7644   0.359E-01    0.881E-01
DAV:  13    -0.938993342121E+03    0.13296E-01   -0.14962E-02  9288   0.170E-01    0.563E-01
DAV:  14    -0.938991941603E+03    0.14005E-02   -0.37900E-02  7368   0.120E-01    0.145E-01
DAV:  15    -0.938992397522E+03   -0.45592E-03   -0.23115E-03  8100   0.413E-02    0.109E-01
DAV:  16    -0.938992229824E+03    0.16770E-03   -0.18226E-04 10128   0.164E-02    0.655E-02
DAV:  17    -0.938992184921E+03    0.44904E-04   -0.40660E-04  8148   0.148E-02    0.205E-02
DAV:  18    -0.938992192243E+03   -0.73225E-05   -0.13083E-04  6636   0.772E-03    0.838E-03
DAV:  19    -0.938992197610E+03   -0.53669E-05   -0.23656E-05  6744   0.366E-03    0.113E-02
DAV:  20    -0.938992199821E+03   -0.22107E-05   -0.33796E-06  4536   0.264E-03
   1 F= -.93899220E+03 E0= -.93889857E+03  d E =-.938992E+03
       N       E                     dE             d eps       ncg     rms          rms(c)
DAV:   1    -0.687153180189E+03    0.25184E+03   -0.31176E+03  7404   0.371E+01    0.663E+01
DAV:   2    -0.679115397250E+03    0.80378E+01   -0.14307E+02  6840   0.109E+01    0.298E+01
DAV:   3    -0.678732685006E+03    0.38271E+00   -0.49402E+01  7632   0.843E+00    0.196E+01
DAV:   4    -0.676100486775E+03    0.26322E+01   -0.16464E+01  6972   0.571E+00    0.118E+01
DAV:   5    -0.675953568656E+03    0.14692E+00   -0.71816E+00  8640   0.289E+00    0.339E+00
DAV:   6    -0.676130873820E+03   -0.17731E+00   -0.25842E+00  7728   0.136E+00    0.318E+00
DAV:   7    -0.676051827342E+03    0.79046E-01   -0.25632E-01  7476   0.846E-01    0.198E+00
DAV:   8    -0.676039649692E+03    0.12178E-01   -0.40388E-01  7224   0.702E-01    0.620E-01
DAV:   9    -0.676041871715E+03   -0.22220E-02   -0.62857E-02  8544   0.327E-01    0.404E-01
DAV:  10    -0.676044286899E+03   -0.24152E-02   -0.14560E-02  7584   0.124E-01    0.203E-01
DAV:  11    -0.676044251398E+03    0.35500E-04   -0.18258E-03  8280   0.578E-02    0.639E-02
DAV:  12    -0.676044365947E+03   -0.11455E-03   -0.16707E-03  7692   0.429E-02    0.788E-02
DAV:  13    -0.676044290905E+03    0.75041E-04   -0.24997E-04  7752   0.207E-02    0.603E-02
DAV:  14    -0.676044239258E+03    0.51647E-04   -0.11903E-04  8148   0.125E-02    0.280E-02
DAV:  15    -0.676044235873E+03    0.33860E-05   -0.18946E-04  8076   0.114E-02    0.165E-02
DAV:  16    -0.676044237127E+03   -0.12549E-05   -0.19079E-05  5988   0.383E-03
   2 F= -.67604424E+03 E0= -.67596428E+03  d E =0.262948E+03
       N       E                     dE             d eps       ncg     rms          rms(c)
DAV:   1    -0.967258938778E+03   -0.29121E+03   -0.22128E+03  7512   0.347E+01    0.221E+01
DAV:   2    -0.974495737460E+03   -0.72368E+01   -0.15361E+02  7980   0.104E+01    0.271E+01
DAV:   3    -0.974443775038E+03    0.51962E-01   -0.88473E+00  7896   0.259E+00    0.285E+01
DAV:   4    -0.976645847178E+03   -0.22021E+01   -0.26409E+00 10080   0.234E+00    0.332E+01
DAV:   5    -0.972711182021E+03    0.39347E+01   -0.17365E+01  9396   0.563E+00    0.155E+01
DAV:   6    -0.993979766298E+03   -0.21269E+02   -0.13735E+02  6468   0.848E+00    0.367E+01
DAV:   7    -0.968086477164E+03    0.25893E+02   -0.37671E+01  9540   0.541E+00    0.836E+00
DAV:   8    -0.969743579273E+03   -0.16571E+01   -0.15127E+01  7860   0.309E+00    0.103E+01
DAV:   9    -0.970044335088E+03   -0.30076E+00   -0.27468E+00  7668   0.113E+00    0.978E+00
DAV:  10    -0.968930254163E+03    0.11141E+01   -0.60050E+00 10164   0.176E+00    0.118E+00
DAV:  11    -0.969430762208E+03   -0.50051E+00   -0.31830E+00  7296   0.127E+00    0.483E+00
DAV:  12    -0.968896943961E+03    0.53382E+00   -0.83484E-01  9504   0.101E+00    0.107E+00
DAV:  13    -0.969010114512E+03   -0.11317E+00   -0.14202E+00  6936   0.680E-01    0.118E+00
DAV:  14    -0.968992376089E+03    0.17738E-01   -0.62057E-02  8604   0.221E-01    0.299E-01
DAV:  15    -0.968993898908E+03   -0.15228E-02   -0.54972E-02  7176   0.157E-01    0.250E-01
DAV:  16    -0.968996200041E+03   -0.23011E-02   -0.13704E-02  8256   0.842E-02    0.403E-01
DAV:  17    -0.968992762832E+03    0.34372E-02   -0.60730E-03 10284   0.747E-02    0.746E-02
DAV:  18    -0.968993597917E+03   -0.83508E-03   -0.11119E-02  7008   0.577E-02    0.146E-01
DAV:  19    -0.968993239333E+03    0.35858E-03   -0.72205E-04  7260   0.262E-02    0.549E-02
DAV:  20    -0.968993276123E+03   -0.36789E-04   -0.95681E-04  6720   0.165E-02    0.106E-02
DAV:  21    -0.968993279762E+03   -0.36394E-05   -0.45711E-05  6384   0.501E-03
   3 F= -.96899328E+03 E0= -.96890574E+03  d E =-.300011E+02
       N       E                     dE             d eps       ncg     rms          rms(c)
DAV:   1    -0.969004053829E+03   -0.10778E-01   -0.84943E-02  6612   0.227E-01    0.586E-02
DAV:   2    -0.969004406200E+03   -0.35237E-03   -0.40059E-03  7224   0.361E-02    0.357E-02
DAV:   3    -0.969004384994E+03    0.21206E-04   -0.12456E-04  7848   0.100E-02    0.235E-02
DAV:   4    -0.969004376799E+03    0.81950E-05   -0.41310E-05  6780   0.670E-03    0.122E-02
DAV:   5    -0.969004373960E+03    0.28398E-05   -0.22691E-05  6624   0.591E-03    0.617E-03
DAV:   6    -0.969004373171E+03    0.78865E-06   -0.64020E-06  4908   0.316E-03
   4 F= -.96900437E+03 E0= -.96891671E+03  d E =-.300122E+02
       N       E                     dE             d eps       ncg     rms          rms(c)
DAV:   1    -0.968932880946E+03    0.71493E-01   -0.30656E+01  6264   0.428E+00    0.130E+00
DAV:   2    -0.969084510013E+03   -0.15163E+00   -0.16960E+00  7248   0.731E-01    0.848E-01
DAV:   3    -0.969069047602E+03    0.15462E-01   -0.44358E-02  8268   0.208E-01    0.529E-01
DAV:   4    -0.969065989495E+03    0.30581E-02   -0.45828E-02  7200   0.157E-01    0.231E-01
DAV:   5    -0.969065423600E+03    0.56590E-03   -0.68036E-03  7572   0.104E-01    0.137E-01
DAV:   6    -0.969065317368E+03    0.10623E-03   -0.58841E-03  7500   0.791E-02    0.102E-01
DAV:   7    -0.969065023198E+03    0.29417E-03   -0.11611E-03  7392   0.403E-02    0.665E-02
DAV:   8    -0.969065146822E+03   -0.12362E-03   -0.22432E-03  7188   0.287E-02    0.631E-02
DAV:   9    -0.969065070735E+03    0.76087E-04   -0.12628E-04  7404   0.133E-02    0.324E-02
DAV:  10    -0.969065079752E+03   -0.90166E-05   -0.40248E-04  6552   0.134E-02    0.142E-02
DAV:  11    -0.969065080682E+03   -0.92950E-06   -0.34472E-05  6900   0.556E-03
   5 F= -.96906508E+03 E0= -.96897522E+03  d E =-.300729E+02
       N       E                     dE             d eps       ncg     rms          rms(c)
DAV:   1    -0.969064266219E+03    0.81353E-03   -0.50713E+00  6372   0.174E+00    0.464E-01
DAV:   2    -0.969084960324E+03   -0.20694E-01   -0.24112E-01  6948   0.286E-01    0.301E-01
DAV:   3    -0.969083465074E+03    0.14952E-02   -0.89112E-03  8376   0.870E-02    0.202E-01
DAV:   4    -0.969082999497E+03    0.46558E-03   -0.29244E-03  7356   0.605E-02    0.118E-01
DAV:   5    -0.969082680020E+03    0.31948E-03   -0.13466E-03  7680   0.530E-02    0.568E-02
DAV:   6    -0.969082651150E+03    0.28871E-04   -0.78003E-04  7200   0.287E-02    0.331E-02
DAV:   7    -0.969082662293E+03   -0.11143E-04   -0.40874E-04  7272   0.144E-02    0.330E-02
DAV:   8    -0.969082661124E+03    0.11689E-05   -0.84167E-05  6360   0.691E-03    0.261E-02
DAV:   9    -0.969082651747E+03    0.93762E-05   -0.12398E-05  5904   0.524E-03    0.145E-02
DAV:  10    -0.969082650369E+03    0.13781E-05   -0.40113E-05  5808   0.510E-03
   6 F= -.96908265E+03 E0= -.96899365E+03  d E =-.300905E+02
       N       E                     dE             d eps       ncg     rms          rms(c)
DAV:   1    -0.969083700539E+03   -0.10488E-02   -0.23711E-01  6468   0.377E-01    0.101E-01
DAV:   2    -0.969084732390E+03   -0.10319E-02   -0.11755E-02  7128   0.619E-02    0.673E-02
DAV:   3    -0.969084644298E+03    0.88092E-04   -0.35525E-04  8100   0.179E-02    0.435E-02
DAV:   4    -0.969084618921E+03    0.25377E-04   -0.19772E-04  7032   0.128E-02    0.214E-02
DAV:   5    -0.969084610427E+03    0.84945E-05   -0.56290E-05  6768   0.102E-02    0.116E-02
DAV:   6    -0.969084609334E+03    0.10927E-05   -0.37420E-05  6408   0.630E-03
   7 F= -.96908461E+03 E0= -.96899542E+03  d E =-.300924E+02
       N       E                     dE             d eps       ncg     rms          rms(c)
DAV:   1    -0.969144201480E+03   -0.59591E-01   -0.81664E-01  6420   0.863E-01    0.216E-01
DAV:   2    -0.969148233126E+03   -0.40316E-02   -0.53766E-02  7164   0.177E-01    0.154E-01
DAV:   3    -0.969147665617E+03    0.56751E-03   -0.12713E-03  8556   0.469E-02    0.936E-02
DAV:   4    -0.969147727064E+03   -0.61447E-04   -0.32452E-03  7392   0.448E-02    0.504E-02
DAV:   5    -0.969147647910E+03    0.79154E-04   -0.35019E-04  7560   0.254E-02    0.403E-02
DAV:   6    -0.969147624038E+03    0.23872E-04   -0.30259E-04  9276   0.168E-02    0.193E-02
DAV:   7    -0.969147628115E+03   -0.40766E-05   -0.14903E-04  6528   0.966E-03    0.179E-02
DAV:   8    -0.969147621512E+03    0.66033E-05   -0.52440E-05  6528   0.598E-03    0.460E-03
DAV:   9    -0.969147623137E+03   -0.16249E-05   -0.22581E-05  5400   0.365E-03
   8 F= -.96914762E+03 E0= -.96905809E+03  d E =-.630138E-01
       N       E                     dE             d eps       ncg     rms          rms(c)
DAV:   1    -0.969250899627E+03   -0.10328E+00   -0.73239E+00  6348   0.258E+00    0.674E-01
DAV:   2    -0.969289408213E+03   -0.38509E-01   -0.50461E-01  7224   0.535E-01    0.491E-01
DAV:   3    -0.969283502588E+03    0.59056E-02   -0.11555E-02  8484   0.144E-01    0.306E-01
DAV:   4    -0.969284132658E+03   -0.63007E-03   -0.36410E-02  7404   0.146E-01    0.158E-01
DAV:   5    -0.969283451289E+03    0.68137E-03   -0.40459E-03  7704   0.823E-02    0.137E-01
DAV:   6    -0.969283026168E+03    0.42512E-03   -0.23833E-03  9828   0.491E-02    0.496E-02
DAV:   7    -0.969283181368E+03   -0.15520E-03   -0.20008E-03  6972   0.310E-02    0.555E-02
DAV:   8    -0.969283091991E+03    0.89377E-04   -0.18206E-04  8664   0.159E-02    0.231E-02
DAV:   9    -0.969283122717E+03   -0.30726E-04   -0.49783E-04  6360   0.138E-02    0.249E-02
DAV:  10    -0.969283118639E+03    0.40779E-05   -0.19704E-05  6504   0.499E-03
   9 F= -.96928312E+03 E0= -.96919310E+03  d E =-.198509E+00
       N       E                     dE             d eps       ncg     rms          rms(c)
DAV:   1    -0.969190858834E+03    0.92264E-01   -0.28955E+01  6420   0.512E+00    0.136E+00
DAV:   2    -0.969356853069E+03   -0.16599E+00   -0.20973E+00  7272   0.107E+00    0.105E+00
DAV:   3    -0.969330177016E+03    0.26676E-01   -0.45857E-02  8316   0.290E-01    0.697E-01
DAV:   4    -0.969332093147E+03   -0.19161E-02   -0.19215E-01  7380   0.324E-01    0.352E-01
DAV:   5    -0.969329943679E+03    0.21495E-02   -0.24064E-02  7764   0.183E-01    0.336E-01
DAV:   6    -0.969327007012E+03    0.29367E-02   -0.85647E-03  9696   0.978E-02    0.131E-01
DAV:   7    -0.969328026877E+03   -0.10199E-02   -0.15117E-02  7056   0.791E-02    0.132E-01
DAV:   8    -0.969327574575E+03    0.45230E-03   -0.71385E-04  7464   0.330E-02    0.833E-02
DAV:   9    -0.969327647458E+03   -0.72883E-04   -0.34262E-03  6900   0.350E-02    0.516E-02
DAV:  10    -0.969327636097E+03    0.11361E-04   -0.23593E-04  7560   0.140E-02    0.502E-02
DAV:  11    -0.969327584246E+03    0.51850E-04   -0.18178E-04  6528   0.109E-02    0.170E-02
DAV:  12    -0.969327590738E+03   -0.64923E-05   -0.58929E-05  5880   0.590E-03    0.100E-02
DAV:  13    -0.969327588244E+03    0.24943E-05   -0.68449E-06  5364   0.251E-03
  10 F= -.96932759E+03 E0= -.96923985E+03  d E =-.242979E+00
       N       E                     dE             d eps       ncg     rms          rms(c)
DAV:   1    -0.969329710060E+03   -0.21193E-02   -0.35125E+00  6420   0.179E+00    0.428E-01
DAV:   2    -0.969348029977E+03   -0.18320E-01   -0.23047E-01  7032   0.367E-01    0.321E-01
DAV:   3    -0.969345731880E+03    0.22981E-02   -0.52095E-03  8688   0.883E-02    0.209E-01
DAV:   4    -0.969345729765E+03    0.21145E-05   -0.16186E-02  7224   0.833E-02    0.120E-01
DAV:   5    -0.969345424339E+03    0.30543E-03   -0.16501E-03  7296   0.469E-02    0.820E-02
DAV:   6    -0.969345683874E+03   -0.25954E-03   -0.43197E-03  7248   0.464E-02    0.978E-02
DAV:   7    -0.969345429081E+03    0.25479E-03   -0.68299E-04  7356   0.274E-02    0.631E-02
DAV:   8    -0.969345429238E+03   -0.15690E-06   -0.13855E-03  6852   0.218E-02    0.176E-02
DAV:   9    -0.969345426806E+03    0.24318E-05   -0.10883E-04  6684   0.950E-03    0.105E-02
DAV:  10    -0.969345429620E+03   -0.28142E-05   -0.41775E-05  5760   0.467E-03
  11 F= -.96934543E+03 E0= -.96925643E+03  d E =-.260820E+00
       N       E                     dE             d eps       ncg     rms          rms(c)
DAV:   1    -0.969359425141E+03   -0.13998E-01   -0.25906E+00  6348   0.138E+00    0.338E-01
DAV:   2    -0.969372330972E+03   -0.12906E-01   -0.14361E-01  7080   0.246E-01    0.212E-01
DAV:   3    -0.969371476184E+03    0.85479E-03   -0.31527E-03  8556   0.570E-02    0.148E-01
DAV:   4    -0.969371215810E+03    0.26037E-03   -0.32959E-03  7152   0.370E-02    0.649E-02
DAV:   5    -0.969371180336E+03    0.35474E-04   -0.40429E-04  7692   0.259E-02    0.348E-02
DAV:   6    -0.969371216297E+03   -0.35961E-04   -0.70505E-04  6948   0.239E-02    0.443E-02
DAV:   7    -0.969371155152E+03    0.61145E-04   -0.93873E-05  8244   0.141E-02    0.267E-02
DAV:   8    -0.969371171374E+03   -0.16223E-04   -0.39694E-04  6492   0.119E-02    0.218E-02
DAV:   9    -0.969371163459E+03    0.79150E-05   -0.18154E-05  5988   0.466E-03    0.143E-02
DAV:  10    -0.969371162553E+03    0.90674E-06   -0.62148E-05  5688   0.522E-03    0.524E-03
DAV:  11    -0.969371162065E+03    0.48810E-06   -0.72009E-06  4824   0.266E-03
  12 F= -.96937116E+03 E0= -.96928253E+03  d E =-.257324E-01
       N       E                     dE             d eps       ncg     rms          rms(c)
DAV:   1    -0.969358374550E+03    0.12788E-01   -0.49450E+00  6348   0.190E+00    0.472E-01
DAV:   2    -0.969382754264E+03   -0.24380E-01   -0.27065E-01  7020   0.337E-01    0.283E-01
DAV:   3    -0.969381263821E+03    0.14904E-02   -0.58657E-03  8520   0.767E-02    0.198E-01
DAV:   4    -0.969380810847E+03    0.45297E-03   -0.54584E-03  7164   0.471E-02    0.899E-02
DAV:   5    -0.969380751989E+03    0.58859E-04   -0.82347E-04  7752   0.334E-02    0.459E-02
DAV:   6    -0.969380791515E+03   -0.39526E-04   -0.95780E-04  7056   0.299E-02    0.547E-02
DAV:   7    -0.969380703849E+03    0.87666E-04   -0.13649E-04  8352   0.177E-02    0.345E-02
DAV:   8    -0.969380724710E+03   -0.20862E-04   -0.58867E-04  6696   0.144E-02    0.267E-02
DAV:   9    -0.969380712813E+03    0.11897E-04   -0.31667E-05  6252   0.592E-03    0.160E-02
DAV:  10    -0.969380713207E+03   -0.39454E-06   -0.96429E-05  5784   0.645E-03    0.761E-03
DAV:  11    -0.969380712300E+03    0.90780E-06   -0.11370E-05  5148   0.321E-03
  13 F= -.96938071E+03 E0= -.96929271E+03  d E =-.352827E-01
       N       E                     dE             d eps       ncg     rms          rms(c)
DAV:   1    -0.969394594180E+03   -0.13881E-01   -0.19781E-01  6660   0.555E-01    0.103E-01
DAV:   2    -0.969394937913E+03   -0.34373E-03   -0.83185E-03  7332   0.104E-01    0.621E-02
DAV:   3    -0.969394893839E+03    0.44074E-04   -0.46276E-04  8124   0.305E-02    0.409E-02
DAV:   4    -0.969394889543E+03    0.42964E-05   -0.33460E-04  7452   0.211E-02    0.237E-02
DAV:   5    -0.969394883174E+03    0.63692E-05   -0.85367E-05  7536   0.119E-02    0.148E-02
DAV:   6    -0.969394876943E+03    0.62313E-05   -0.10784E-05  5244   0.566E-03    0.751E-03
DAV:   7    -0.969394878911E+03   -0.19685E-05   -0.40818E-05  5832   0.502E-03
  14 F= -.96939488E+03 E0= -.96930671E+03  d E =-.141666E-01
       N       E                     dE             d eps       ncg     rms          rms(c)
DAV:   1    -0.969400915754E+03   -0.60388E-02   -0.49578E-01  6696   0.878E-01    0.162E-01
DAV:   2    -0.969401756698E+03   -0.84094E-03   -0.20291E-02  7428   0.163E-01    0.983E-02
DAV:   3    -0.969401654732E+03    0.10197E-03   -0.11582E-03  8028   0.487E-02    0.651E-02
DAV:   4    -0.969401635348E+03    0.19384E-04   -0.78639E-04  7512   0.333E-02    0.378E-02
DAV:   5    -0.969401620786E+03    0.14562E-04   -0.20121E-04  7500   0.182E-02    0.218E-02
DAV:   6    -0.969401608180E+03    0.12605E-04   -0.28550E-05  7044   0.866E-03    0.105E-02
DAV:   7    -0.969401612067E+03   -0.38863E-05   -0.75421E-05  6336   0.677E-03    0.857E-03
DAV:   8    -0.969401610281E+03    0.17858E-05   -0.79862E-06  5232   0.369E-03
  15 F= -.96940161E+03 E0= -.96931337E+03  d E =-.208980E-01
       N       E                     dE             d eps       ncg     rms          rms(c)
DAV:   1    -0.969401815950E+03   -0.20388E-03   -0.10750E-02  6792   0.130E-01    0.244E-02
DAV:   2    -0.969401838774E+03   -0.22824E-04   -0.51247E-04  7356   0.249E-02    0.166E-02
DAV:   3    -0.969401833830E+03    0.49441E-05   -0.24005E-05  7224   0.729E-03    0.108E-02
DAV:   4    -0.969401833603E+03    0.22702E-06   -0.26049E-05  6264   0.549E-03    0.572E-03
DAV:   5    -0.969401832993E+03    0.61020E-06   -0.59493E-06  4608   0.334E-03    0.423E-03
DAV:   6    -0.969401832514E+03    0.47881E-06   -0.10671E-06  3564   0.188E-03
  16 F= -.96940183E+03 E0= -.96931359E+03  d E =-.211202E-01
       N       E                     dE             d eps       ncg     rms          rms(c)
DAV:   1    -0.969405154116E+03   -0.33211E-02   -0.17430E-01  6480   0.449E-01    0.100E-01
DAV:   2    -0.969406932361E+03   -0.17782E-02   -0.20951E-02  7056   0.111E-01    0.123E-01
DAV:   3    -0.969406627753E+03    0.30461E-03   -0.41683E-04  8148   0.270E-02    0.925E-02
DAV:   4    -0.969406540254E+03    0.87499E-04   -0.23900E-03  7116   0.342E-02    0.378E-02
DAV:   5    -0.969406530768E+03    0.94865E-05   -0.36039E-04  7092   0.198E-02    0.327E-02
DAV:   6    -0.969406540187E+03   -0.94194E-05   -0.37025E-04  6744   0.136E-02    0.253E-02
DAV:   7    -0.969406521900E+03    0.18287E-04   -0.84393E-05  6540   0.976E-03    0.123E-02
DAV:   8    -0.969406525185E+03   -0.32850E-05   -0.74909E-05  5736   0.539E-03    0.465E-03
DAV:   9    -0.969406524879E+03    0.30617E-06   -0.30123E-06  4212   0.210E-03
  17 F= -.96940652E+03 E0= -.96931798E+03  d E =-.469237E-02
       N       E                     dE             d eps       ncg     rms          rms(c)
DAV:   1    -0.969406785699E+03   -0.26051E-03   -0.10218E-01  6480   0.344E-01    0.767E-02
DAV:   2    -0.969407851985E+03   -0.10663E-02   -0.12525E-02  7044   0.860E-02    0.963E-02
DAV:   3    -0.969407669702E+03    0.18228E-03   -0.25203E-04  8160   0.208E-02    0.726E-02
DAV:   4    -0.969407612623E+03    0.57079E-04   -0.14341E-03  7080   0.265E-02    0.293E-02
DAV:   5    -0.969407607414E+03    0.52098E-05   -0.21802E-04  6936   0.155E-02    0.252E-02
DAV:   6    -0.969407615786E+03   -0.83722E-05   -0.24175E-04  6468   0.110E-02    0.210E-02
DAV:   7    -0.969407601880E+03    0.13906E-04   -0.53968E-05  6324   0.801E-03    0.984E-03
DAV:   8    -0.969407604630E+03   -0.27498E-05   -0.53591E-05  5688   0.445E-03    0.388E-03
DAV:   9    -0.969407604391E+03    0.23927E-06   -0.18197E-06  3744   0.170E-03
  18 F= -.96940760E+03 E0= -.96931886E+03  d E =-.577188E-02
       N       E                     dE             d eps       ncg     rms          rms(c)
DAV:   1    -0.969409878000E+03   -0.22734E-02   -0.97683E-02  6708   0.374E-01    0.735E-02
DAV:   2    -0.969410270591E+03   -0.39259E-03   -0.66777E-03  6948   0.801E-02    0.475E-02
DAV:   3    -0.969410230741E+03    0.39850E-04   -0.24192E-04  8496   0.184E-02    0.308E-02
DAV:   4    -0.969410223464E+03    0.72768E-05   -0.10486E-04  7128   0.128E-02    0.168E-02
DAV:   5    -0.969410211618E+03    0.11846E-04   -0.54524E-05  6768   0.100E-02    0.655E-03
DAV:   6    -0.969410212474E+03   -0.85582E-06   -0.14129E-05  5772   0.401E-03
  19 F= -.96941021E+03 E0= -.96932141E+03  d E =-.260808E-02
       N       E                     dE             d eps       ncg     rms          rms(c)
DAV:   1    -0.969410329727E+03   -0.11811E-03   -0.10420E-02  6732   0.122E-01    0.260E-02
DAV:   2    -0.969410374330E+03   -0.44603E-04   -0.72054E-04  7032   0.261E-02    0.152E-02
DAV:   3    -0.969410370378E+03    0.39522E-05   -0.24020E-05  7380   0.595E-03    0.968E-03
DAV:   4    -0.969410369811E+03    0.56750E-06   -0.11008E-05  6060   0.436E-03    0.529E-03
DAV:   5    -0.969410368574E+03    0.12369E-05   -0.50746E-06  5052   0.330E-03    0.203E-03
DAV:   6    -0.969410368709E+03   -0.13493E-06   -0.16789E-06  3660   0.149E-03
  20 F= -.96941037E+03 E0= -.96932156E+03  d E =-.276432E-02
       N       E                     dE             d eps       ncg     rms          rms(c)
DAV:   1    -0.969411415615E+03   -0.10470E-02   -0.37511E-02  6492   0.237E-01    0.470E-02
DAV:   2    -0.969411690568E+03   -0.27495E-03   -0.33185E-03  7188   0.482E-02    0.447E-02
DAV:   3    -0.969411649717E+03    0.40851E-04   -0.74636E-05  7764   0.129E-02    0.328E-02
DAV:   4    -0.969411644744E+03    0.49735E-05   -0.15821E-04  6672   0.103E-02    0.161E-02
DAV:   5    -0.969411640689E+03    0.40554E-05   -0.36028E-05  7668   0.699E-03    0.988E-03
DAV:   6    -0.969411639201E+03    0.14874E-05   -0.10215E-05  5196   0.450E-03
  21 F= -.96941164E+03 E0= -.96932279E+03  d E =-.127049E-02
       N       E                     dE             d eps       ncg     rms          rms(c)
DAV:   1    -0.969411816353E+03   -0.17566E-03   -0.10133E-01  6492   0.389E-01    0.775E-02
DAV:   2    -0.969412541777E+03   -0.72542E-03   -0.86848E-03  7164   0.784E-02    0.718E-02
DAV:   3    -0.969412434692E+03    0.10709E-03   -0.19240E-04  8052   0.209E-02    0.518E-02
DAV:   4    -0.969412424469E+03    0.10223E-04   -0.43532E-04  6900   0.173E-02    0.250E-02
DAV:   5    -0.969412413804E+03    0.10665E-04   -0.86517E-05  8112   0.112E-02    0.162E-02
DAV:   6    -0.969412410578E+03    0.32259E-05   -0.30296E-05  6816   0.723E-03
  22 F= -.96941241E+03 E0= -.96932350E+03  d E =-.204187E-02
       N       E                     dE             d eps       ncg     rms          rms(c)
DAV:   1    -0.969413401715E+03   -0.98791E-03   -0.23924E-02  6360   0.212E-01    0.311E-02
DAV:   2    -0.969413496573E+03   -0.94858E-04   -0.12893E-03  7320   0.359E-02    0.368E-02
DAV:   3    -0.969413470515E+03    0.26058E-04   -0.49160E-05  7920   0.988E-03    0.269E-02
DAV:   4    -0.969413475229E+03   -0.47138E-05   -0.27582E-04  6708   0.134E-02    0.169E-02
DAV:   5    -0.969413479225E+03   -0.39963E-05   -0.82153E-05  6768   0.957E-03    0.235E-02
DAV:   6    -0.969413466921E+03    0.12304E-04   -0.11707E-05  5772   0.443E-03    0.143E-02
DAV:   7    -0.969413468022E+03   -0.11011E-05   -0.87503E-05  5940   0.576E-03    0.734E-03
DAV:   8    -0.969413467365E+03    0.65715E-06   -0.44095E-06  4680   0.210E-03
  23 F= -.96941347E+03 E0= -.96932466E+03  d E =-.105679E-02
       N       E                     dE             d eps       ncg     rms          rms(c)
DAV:   1    -0.969413898438E+03   -0.43042E-03   -0.48333E-02  6336   0.300E-01    0.417E-02
DAV:   2    -0.969414042444E+03   -0.14401E-03   -0.20879E-03  7308   0.484E-02    0.481E-02
DAV:   3    -0.969413999580E+03    0.42863E-04   -0.96927E-05  8508   0.136E-02    0.344E-02
DAV:   4    -0.969414014809E+03   -0.15229E-04   -0.48912E-04  6972   0.182E-02    0.249E-02
DAV:   5    -0.969414010825E+03    0.39838E-05   -0.10527E-04  6864   0.120E-02    0.284E-02
DAV:   6    -0.969413990884E+03    0.19941E-04   -0.54542E-05  6624   0.708E-03    0.110E-02
DAV:   7    -0.969413995781E+03   -0.48967E-05   -0.74675E-05  6168   0.585E-03    0.570E-03
DAV:   8    -0.969413995657E+03    0.12345E-06   -0.21229E-06  3816   0.178E-03
  24 F= -.96941400E+03 E0= -.96932534E+03  d E =-.158508E-02
       N       E                     dE             d eps       ncg     rms          rms(c)
DAV:   1    -0.969413848267E+03    0.14751E-03   -0.10114E-01  6336   0.353E-01    0.724E-02
DAV:   2    -0.969414482136E+03   -0.63387E-03   -0.71800E-03  6888   0.586E-02    0.540E-02
DAV:   3    -0.969414437093E+03    0.45043E-04   -0.14148E-04  8376   0.132E-02    0.385E-02
DAV:   4    -0.969414422431E+03    0.14662E-04   -0.22861E-04  6816   0.125E-02    0.158E-02
DAV:   5    -0.969414417563E+03    0.48680E-05   -0.47914E-05  6876   0.838E-03    0.117E-02
DAV:   6    -0.969414417016E+03    0.54665E-06   -0.31118E-05  6528   0.548E-03
  25 F= -.96941442E+03 E0= -.96932595E+03  d E =-.421359E-03
       N       E                     dE             d eps       ncg     rms          rms(c)
DAV:   1    -0.969414426863E+03   -0.92999E-05   -0.58821E-03  6396   0.854E-02    0.163E-02
DAV:   2    -0.969414470875E+03   -0.44012E-04   -0.50323E-04  6828   0.155E-02    0.164E-02
DAV:   3    -0.969414466251E+03    0.46245E-05   -0.91176E-06  6216   0.366E-03    0.124E-02
DAV:   4    -0.969414463913E+03    0.23377E-05   -0.26171E-05  5616   0.432E-03    0.512E-03
DAV:   5    -0.969414463856E+03    0.56956E-07   -0.77346E-06  4908   0.291E-03    0.459E-03
DAV:   6    -0.969414463547E+03    0.30936E-06   -0.28616E-06  4116   0.182E-03
  26 F= -.96941446E+03 E0= -.96932595E+03  d E =-.467889E-03
       N       E                     dE             d eps       ncg     rms          rms(c)
DAV:   1    -0.969414703356E+03   -0.23950E-03   -0.36048E-02  6480   0.212E-01    0.421E-02
DAV:   2    -0.969414867514E+03   -0.16416E-03   -0.19839E-03  6984   0.357E-02    0.247E-02
DAV:   3    -0.969414857477E+03    0.10038E-04   -0.43320E-05  7572   0.779E-03    0.173E-02
DAV:   4    -0.969414857239E+03    0.23779E-06   -0.91178E-05  6600   0.770E-03    0.995E-03
DAV:   5    -0.969414855683E+03    0.15561E-05   -0.17167E-05  5916   0.459E-03    0.940E-03
DAV:   6    -0.969414853894E+03    0.17882E-05   -0.10721E-05  5076   0.288E-03
  27 F= -.96941485E+03 E0= -.96932631E+03  d E =-.390348E-03
       N       E                     dE             d eps       ncg     rms          rms(c)
DAV:   1    -0.969414752886E+03    0.10280E-03   -0.59879E-02  6468   0.273E-01    0.539E-02
DAV:   2    -0.969415023345E+03   -0.27046E-03   -0.32267E-03  6960   0.454E-02    0.309E-02
DAV:   3    -0.969415008635E+03    0.14710E-04   -0.70155E-05  7908   0.976E-03    0.216E-02
DAV:   4    -0.969415007878E+03    0.75713E-06   -0.12813E-04  6780   0.937E-03    0.118E-02
DAV:   5    -0.969415005393E+03    0.24848E-05   -0.24964E-05  6312   0.571E-03    0.111E-02
DAV:   6    -0.969415002750E+03    0.26427E-05   -0.16318E-05  5412   0.372E-03
  28 F= -.96941500E+03 E0= -.96932642E+03  d E =-.539204E-03
       N       E                     dE             d eps       ncg     rms          rms(c)
DAV:   1    -0.969414998678E+03    0.67153E-05   -0.39153E-02  6396   0.206E-01    0.447E-02
DAV:   2    -0.969415203685E+03   -0.20501E-03   -0.22668E-03  6984   0.350E-02    0.306E-02
DAV:   3    -0.969415182263E+03    0.21422E-04   -0.47076E-05  7824   0.874E-03    0.197E-02
DAV:   4    -0.969415183762E+03   -0.14993E-05   -0.11737E-04  6552   0.851E-03    0.110E-02
DAV:   5    -0.969415181202E+03    0.25601E-05   -0.13820E-05  6360   0.499E-03    0.869E-03
DAV:   6    -0.969415182549E+03   -0.13474E-05   -0.25109E-05  6828   0.463E-03
  29 F= -.96941518E+03 E0= -.96932660E+03  d E =-.179799E-03
       N       E                     dE             d eps       ncg     rms          rms(c)
DAV:   1    -0.969415181285E+03   -0.83292E-07   -0.41113E-03  6444   0.663E-02    0.153E-02
DAV:   2    -0.969415195857E+03   -0.14571E-04   -0.17752E-04  6876   0.101E-02    0.683E-03
DAV:   3    -0.969415195628E+03    0.22847E-06   -0.89893E-06  5952   0.294E-03    0.444E-03
DAV:   4    -0.969415195583E+03    0.45482E-07   -0.17327E-06  3780   0.189E-03    0.312E-03
DAV:   5    -0.969415195447E+03    0.13566E-06   -0.66229E-07  3504   0.135E-03    0.172E-03
DAV:   6    -0.969415195507E+03   -0.60470E-07   -0.62023E-07  3420   0.869E-04
  30 F= -.96941520E+03 E0= -.96932661E+03  d E =-.192757E-03
       N       E                     dE             d eps       ncg     rms          rms(c)
DAV:   1    -0.969415196298E+03   -0.85142E-06   -0.89402E-03  6456   0.119E-01    0.233E-02
DAV:   2    -0.969415244904E+03   -0.48606E-04   -0.69857E-04  7032   0.243E-02    0.225E-02
DAV:   3    -0.969415237690E+03    0.72141E-05   -0.27391E-05  7500   0.651E-03    0.159E-02
DAV:   4    -0.969415237020E+03    0.67011E-06   -0.31872E-05  6396   0.613E-03    0.835E-03
DAV:   5    -0.969415234949E+03    0.20706E-05   -0.88316E-06  5904   0.433E-03    0.475E-03
DAV:   6    -0.969415234948E+03    0.13388E-08   -0.57723E-06  4740   0.247E-03
  31 F= -.96941523E+03 E0= -.96932673E+03  d E =-.394406E-04
       N       E                     dE             d eps       ncg     rms          rms(c)
DAV:   1    -0.969415270755E+03   -0.35806E-04   -0.15104E-03  6468   0.491E-02    0.926E-03
DAV:   2    -0.969415279613E+03   -0.88580E-05   -0.12815E-04  6996   0.102E-02    0.959E-03
DAV:   3    -0.969415278047E+03    0.15665E-05   -0.31185E-06  4596   0.257E-03    0.712E-03
DAV:   4    -0.969415277652E+03    0.39413E-06   -0.83842E-06  4920   0.295E-03    0.346E-03
DAV:   5    -0.969415277445E+03    0.20750E-06   -0.27547E-06  3996   0.207E-03    0.298E-03
DAV:   6    -0.969415277255E+03    0.18981E-06   -0.93107E-07  3456   0.135E-03
  32 F= -.96941528E+03 E0= -.96932674E+03  d E =-.817477E-04
       N       E                     dE             d eps       ncg     rms          rms(c)
DAV:   1    -0.969415289856E+03   -0.12411E-04   -0.84099E-03  6432   0.973E-02    0.210E-02
DAV:   2    -0.969415328822E+03   -0.38965E-04   -0.47923E-04  7152   0.178E-02    0.119E-02
DAV:   3    -0.969415326090E+03    0.27319E-05   -0.95431E-06  6180   0.396E-03    0.814E-03
DAV:   4    -0.969415325941E+03    0.14888E-06   -0.16605E-05  5496   0.372E-03    0.411E-03
DAV:   5    -0.969415325618E+03    0.32293E-06   -0.31014E-06  4104   0.233E-03    0.369E-03
DAV:   6    -0.969415325305E+03    0.31303E-06   -0.16586E-06  3792   0.145E-03
  33 F= -.96941533E+03 E0= -.96932680E+03  d E =-.480497E-04
       N       E                     dE             d eps       ncg     rms          rms(c)
DAV:   1    -0.969415323270E+03    0.23476E-05   -0.15516E-03  6540   0.419E-02    0.903E-03
DAV:   2    -0.969415330417E+03   -0.71471E-05   -0.84949E-05  6816   0.751E-03    0.527E-03
DAV:   3    -0.969415329906E+03    0.51091E-06   -0.16438E-06  3948   0.188E-03    0.344E-03
DAV:   4    -0.969415329972E+03   -0.65949E-07   -0.28956E-06  4068   0.174E-03    0.179E-03
DAV:   5    -0.969415329919E+03    0.53675E-07   -0.60093E-07  3396   0.115E-03    0.139E-03
DAV:   6    -0.969415329877E+03    0.41862E-07   -0.39746E-07  3456   0.793E-04
  34 F= -.96941533E+03 E0= -.96932681E+03  d E =-.526217E-04
       N       E                     dE             d eps       ncg     rms          rms(c)
DAV:   1    -0.969415345193E+03   -0.15274E-04   -0.95371E-04  6504   0.392E-02    0.699E-03
DAV:   2    -0.969415349071E+03   -0.38788E-05   -0.51612E-05  6876   0.700E-03    0.492E-03
DAV:   3    -0.969415348476E+03    0.59490E-06   -0.11393E-06  3708   0.199E-03    0.323E-03
DAV:   4    -0.969415348490E+03   -0.13890E-07   -0.28251E-06  4092   0.171E-03    0.182E-03
DAV:   5    -0.969415348438E+03    0.51899E-07   -0.47587E-07  3420   0.105E-03    0.131E-03
DAV:   6    -0.969415348427E+03    0.11929E-07   -0.16942E-07  3420   0.753E-04
  35 F= -.96941535E+03 E0= -.96932683E+03  d E =-.185497E-04
       N       E                     dE             d eps       ncg     rms          rms(c)
DAV:   1    -0.969415352701E+03   -0.42629E-05   -0.78790E-04  6504   0.356E-02    0.609E-03
DAV:   2    -0.969415355661E+03   -0.29599E-05   -0.38763E-05  6540   0.616E-03    0.435E-03
DAV:   3    -0.969415355215E+03    0.44598E-06   -0.10433E-06  3720   0.189E-03    0.274E-03
DAV:   4    -0.969415355301E+03   -0.86078E-07   -0.27442E-06  4080   0.162E-03    0.182E-03
DAV:   5    -0.969415355241E+03    0.60456E-07   -0.37240E-07  3420   0.974E-04    0.134E-03
DAV:   6    -0.969415355259E+03   -0.18063E-07   -0.35350E-07  3492   0.841E-04
  36 F= -.96941536E+03 E0= -.96932684E+03  d E =-.253821E-04
