NiAl                                    
           1
    16.198000    0.000000    0.000000
     0.000000   16.198000    0.000000
     0.000000    0.000000   16.198000
   Al   N 
 256   1
Direct configuration=     1
   0.00000000  0.00000000  0.00000000
   0.00000000  0.12500000  0.12500000
   0.12500000  0.00000000  0.12500000
   0.12500000  0.12500000  0.00000000
   0.00000000  0.00000000  0.25000000
   0.00000000  0.12500000  0.37500000
   0.12500000  0.00000000  0.37500000
   0.12500000  0.12500000  0.25000000
   0.00000000  0.00000000  0.50000000
   0.00000000  0.12500000  0.62500000
   0.12500000  0.00000000  0.62500000
   0.12500000  0.12500000  0.50000000
   0.00000000  0.00000000  0.75000000
   0.00000000  0.12500000  0.87500000
   0.12500000  0.00000000  0.87500000
   0.12500000  0.12500000  0.75000000
   0.00000000  0.25000000  0.00000000
   0.00000000  0.37500000  0.12500000
   0.12500000  0.25000000  0.12500000
   0.12500000  0.37500000  0.00000000
   0.00000000  0.25000000  0.25000000
   0.00000000  0.37500000  0.37500000
   0.12500000  0.25000000  0.37500000
   0.12500000  0.37500000  0.25000000
   0.00000000  0.25000000  0.50000000
   0.00000000  0.37500000  0.62500000
   0.12500000  0.25000000  0.62500000
   0.12500000  0.37500000  0.50000000
   0.00000000  0.25000000  0.75000000
   0.00000000  0.37500000  0.87500000
   0.12500000  0.25000000  0.87500000
   0.12500000  0.37500000  0.75000000
   0.00000000  0.50000000  0.00000000
   0.00000000  0.62500000  0.12500000
   0.12500000  0.50000000  0.12500000
   0.12500000  0.62500000  0.00000000
   0.00000000  0.50000000  0.25000000
   0.00000000  0.62500000  0.37500000
   0.12500000  0.50000000  0.37500000
   0.12500000  0.62500000  0.25000000
   0.00000000  0.50000000  0.50000000
   0.00000000  0.62500000  0.62500000
   0.12500000  0.50000000  0.62500000
   0.12500000  0.62500000  0.50000000
   0.00000000  0.50000000  0.75000000
   0.00000000  0.62500000  0.87500000
   0.12500000  0.50000000  0.87500000
   0.12500000  0.62500000  0.75000000
   0.00000000  0.75000000  0.00000000
   0.00000000  0.87500000  0.12500000
   0.12500000  0.75000000  0.12500000
   0.12500000  0.87500000  0.00000000
   0.00000000  0.75000000  0.25000000
   0.00000000  0.87500000  0.37500000
   0.12500000  0.75000000  0.37500000
   0.12500000  0.87500000  0.25000000
   0.00000000  0.75000000  0.50000000
   0.00000000  0.87500000  0.62500000
   0.12500000  0.75000000  0.62500000
   0.12500000  0.87500000  0.50000000
   0.00000000  0.75000000  0.75000000
   0.00000000  0.87500000  0.87500000
   0.12500000  0.75000000  0.87500000
   0.12500000  0.87500000  0.75000000
   0.25000000  0.00000000  0.00000000
   0.25000000  0.12500000  0.12500000
   0.37500000  0.00000000  0.12500000
   0.37500000  0.12500000  0.00000000
   0.25000000  0.00000000  0.25000000
   0.25000000  0.12500000  0.37500000
   0.37500000  0.00000000  0.37500000
   0.37500000  0.12500000  0.25000000
   0.25000000  0.00000000  0.50000000
   0.25000000  0.12500000  0.62500000
   0.37500000  0.00000000  0.62500000
   0.37500000  0.12500000  0.50000000
   0.25000000  0.00000000  0.75000000
   0.25000000  0.12500000  0.87500000
   0.37500000  0.00000000  0.87500000
   0.37500000  0.12500000  0.75000000
   0.25000000  0.25000000  0.00000000
   0.25000000  0.37500000  0.12500000
   0.37500000  0.25000000  0.12500000
   0.37500000  0.37500000  0.00000000
   0.25000000  0.25000000  0.25000000
   0.25000000  0.37500000  0.37500000
   0.37500000  0.25000000  0.37500000
   0.37500000  0.37500000  0.25000000
   0.25000000  0.25000000  0.50000000
   0.25000000  0.37500000  0.62500000
   0.37500000  0.25000000  0.62500000
   0.37500000  0.37500000  0.50000000
   0.25000000  0.25000000  0.75000000
   0.25000000  0.37500000  0.87500000
   0.37500000  0.25000000  0.87500000
   0.37500000  0.37500000  0.75000000
   0.25000000  0.50000000  0.00000000
   0.25000000  0.62500000  0.12500000
   0.37500000  0.50000000  0.12500000
   0.37500000  0.62500000  0.00000000
   0.25000000  0.50000000  0.25000000
   0.25000000  0.62500000  0.37500000
   0.37500000  0.50000000  0.37500000
   0.37500000  0.62500000  0.25000000
   0.25000000  0.50000000  0.50000000
   0.25000000  0.62500000  0.62500000
   0.37500000  0.50000000  0.62500000
   0.37500000  0.62500000  0.50000000
   0.25000000  0.50000000  0.75000000
   0.25000000  0.62500000  0.87500000
   0.37500000  0.50000000  0.87500000
   0.37500000  0.62500000  0.75000000
   0.25000000  0.75000000  0.00000000
   0.25000000  0.87500000  0.12500000
   0.37500000  0.75000000  0.12500000
   0.37500000  0.87500000  0.00000000
   0.25000000  0.75000000  0.25000000
   0.25000000  0.87500000  0.37500000
   0.37500000  0.75000000  0.37500000
   0.37500000  0.87500000  0.25000000
   0.25000000  0.75000000  0.50000000
   0.25000000  0.87500000  0.62500000
   0.37500000  0.75000000  0.62500000
   0.37500000  0.87500000  0.50000000
   0.25000000  0.75000000  0.75000000
   0.25000000  0.87500000  0.87500000
   0.37500000  0.75000000  0.87500000
   0.37500000  0.87500000  0.75000000
   0.50000000  0.00000000  0.00000000
   0.50000000  0.12500000  0.12500000
   0.62500000  0.00000000  0.12500000
   0.62500000  0.12500000  0.00000000
   0.50000000  0.00000000  0.25000000
   0.50000000  0.12500000  0.37500000
   0.62500000  0.00000000  0.37500000
   0.62500000  0.12500000  0.25000000
   0.50000000  0.00000000  0.50000000
   0.50000000  0.12500000  0.62500000
   0.62500000  0.00000000  0.62500000
   0.62500000  0.12500000  0.50000000
   0.50000000  0.00000000  0.75000000
   0.50000000  0.12500000  0.87500000
   0.62500000  0.00000000  0.87500000
   0.62500000  0.12500000  0.75000000
   0.50000000  0.25000000  0.00000000
   0.50000000  0.37500000  0.12500000
   0.62500000  0.25000000  0.12500000
   0.62500000  0.37500000  0.00000000
   0.50000000  0.25000000  0.25000000
   0.50000000  0.37500000  0.37500000
   0.62500000  0.25000000  0.37500000
   0.62500000  0.37500000  0.25000000
   0.50000000  0.25000000  0.50000000
   0.50000000  0.37500000  0.62500000
   0.62500000  0.25000000  0.62500000
   0.62500000  0.37500000  0.50000000
   0.50000000  0.25000000  0.75000000
   0.50000000  0.37500000  0.87500000
   0.62500000  0.25000000  0.87500000
   0.62500000  0.37500000  0.75000000
   0.50000000  0.50000000  0.00000000
   0.50000000  0.62500000  0.12500000
   0.62500000  0.50000000  0.12500000
   0.62500000  0.62500000  0.00000000
   0.50000000  0.50000000  0.25000000
   0.50000000  0.62500000  0.37500000
   0.62500000  0.50000000  0.37500000
   0.62500000  0.62500000  0.25000000
   0.50000000  0.50000000  0.50000000
   0.50000000  0.62500000  0.62500000
   0.62500000  0.50000000  0.62500000
   0.62500000  0.62500000  0.50000000
   0.50000000  0.50000000  0.75000000
   0.50000000  0.62500000  0.87500000
   0.62500000  0.50000000  0.87500000
   0.62500000  0.62500000  0.75000000
   0.50000000  0.75000000  0.00000000
   0.50000000  0.87500000  0.12500000
   0.62500000  0.75000000  0.12500000
   0.62500000  0.87500000  0.00000000
   0.50000000  0.75000000  0.25000000
   0.50000000  0.87500000  0.37500000
   0.62500000  0.75000000  0.37500000
   0.62500000  0.87500000  0.25000000
   0.50000000  0.75000000  0.50000000
   0.50000000  0.87500000  0.62500000
   0.62500000  0.75000000  0.62500000
   0.62500000  0.87500000  0.50000000
   0.50000000  0.75000000  0.75000000
   0.50000000  0.87500000  0.87500000
   0.62500000  0.75000000  0.87500000
   0.62500000  0.87500000  0.75000000
   0.75000000  0.00000000  0.00000000
   0.75000000  0.12500000  0.12500000
   0.87500000  0.00000000  0.12500000
   0.87500000  0.12500000  0.00000000
   0.75000000  0.00000000  0.25000000
   0.75000000  0.12500000  0.37500000
   0.87500000  0.00000000  0.37500000
   0.87500000  0.12500000  0.25000000
   0.75000000  0.00000000  0.50000000
   0.75000000  0.12500000  0.62500000
   0.87500000  0.00000000  0.62500000
   0.87500000  0.12500000  0.50000000
   0.75000000  0.00000000  0.75000000
   0.75000000  0.12500000  0.87500000
   0.87500000  0.00000000  0.87500000
   0.87500000  0.12500000  0.75000000
   0.75000000  0.25000000  0.00000000
   0.75000000  0.37500000  0.12500000
   0.87500000  0.25000000  0.12500000
   0.87500000  0.37500000  0.00000000
   0.75000000  0.25000000  0.25000000
   0.75000000  0.37500000  0.37500000
   0.87500000  0.25000000  0.37500000
   0.87500000  0.37500000  0.25000000
   0.75000000  0.25000000  0.50000000
   0.75000000  0.37500000  0.62500000
   0.87500000  0.25000000  0.62500000
   0.87500000  0.37500000  0.50000000
   0.75000000  0.25000000  0.75000000
   0.75000000  0.37500000  0.87500000
   0.87500000  0.25000000  0.87500000
   0.87500000  0.37500000  0.75000000
   0.75000000  0.50000000  0.00000000
   0.75000000  0.62500000  0.12500000
   0.87500000  0.50000000  0.12500000
   0.87500000  0.62500000  0.00000000
   0.75000000  0.50000000  0.25000000
   0.75000000  0.62500000  0.37500000
   0.87500000  0.50000000  0.37500000
   0.87500000  0.62500000  0.25000000
   0.75000000  0.50000000  0.50000000
   0.75000000  0.62500000  0.62500000
   0.87500000  0.50000000  0.62500000
   0.87500000  0.62500000  0.50000000
   0.75000000  0.50000000  0.75000000
   0.75000000  0.62500000  0.87500000
   0.87500000  0.50000000  0.87500000
   0.87500000  0.62500000  0.75000000
   0.75000000  0.75000000  0.00000000
   0.75000000  0.87500000  0.12500000
   0.87500000  0.75000000  0.12500000
   0.87500000  0.87500000  0.00000000
   0.75000000  0.75000000  0.25000000
   0.75000000  0.87500000  0.37500000
   0.87500000  0.75000000  0.37500000
   0.87500000  0.87500000  0.25000000
   0.75000000  0.75000000  0.50000000
   0.75000000  0.87500000  0.62500000
   0.87500000  0.75000000  0.62500000
   0.87500000  0.87500000  0.50000000
   0.75000000  0.75000000  0.75000000
   0.75000000  0.87500000  0.87500000
   0.87500000  0.75000000  0.87500000
   0.87500000  0.87500000  0.75000000
   0.06250000  0.00000000  0.00000000
Direct configuration=     2
  -0.16130116  0.00000000  0.00000000
  -0.00016953  0.12540201  0.12540201
   0.12507910  0.00000000  0.12481099
   0.12507910  0.12481099  0.00000000
   0.00003237  0.00000000  0.24995554
   0.00001109  0.12498237  0.37498467
   0.12498111  0.00000000  0.37495592
   0.12500302  0.12498884  0.25004560
   0.00002105  0.00000000  0.50000000
   0.00001109  0.12498237  0.62501533
   0.12498111  0.00000000  0.62504408
   0.12499659  0.12499897  0.50000000
   0.00003237  0.00000000  0.75004446
  -0.00016953  0.12540201  0.87459799
   0.12507910  0.00000000  0.87518901
   0.12500302  0.12498884  0.74995440
   0.00003237  0.24995554  0.00000000
   0.00001109  0.37498467  0.12498237
   0.12500302  0.25004560  0.12498884
   0.12498111  0.37495592  0.00000000
   0.00002189  0.24995121  0.24995121
   0.00000212  0.37500665  0.37500665
   0.12498246  0.24997570  0.37499886
   0.12498246  0.37499886  0.24997570
   0.00001714  0.24999151  0.50000000
   0.00000212  0.37500665  0.62499335
   0.12498246  0.24997570  0.62500114
   0.12500273  0.37501485  0.50000000
   0.00002189  0.24995121  0.75004879
   0.00001109  0.37498467  0.87501763
   0.12500302  0.25004560  0.87501116
   0.12498246  0.37499886  0.75002430
   0.00002105  0.50000000  0.00000000
   0.00001109  0.62501533  0.12498237
   0.12499659  0.50000000  0.12499897
   0.12498111  0.62504408  0.00000000
   0.00001714  0.50000000  0.24999151
   0.00000212  0.62499335  0.37500665
   0.12500273  0.50000000  0.37501485
   0.12498246  0.62500114  0.24997570
  -0.00000106  0.50000000  0.50000000
   0.00000212  0.62499335  0.62499335
   0.12500273  0.50000000  0.62498515
   0.12500273  0.62498515  0.50000000
   0.00001714  0.50000000  0.75000849
   0.00001109  0.62501533  0.87501763
   0.12499659  0.50000000  0.87500103
   0.12498246  0.62500114  0.75002430
   0.00003237  0.75004446  0.00000000
  -0.00016953  0.87459799  0.12540201
   0.12500302  0.74995440  0.12498884
   0.12507910  0.87518901  0.00000000
   0.00002189  0.75004879  0.24995121
   0.00001109  0.87501763  0.37498467
   0.12498246  0.75002430  0.37499886
   0.12500302  0.87501116  0.25004560
   0.00001714  0.75000849  0.50000000
   0.00001109  0.87501763  0.62501533
   0.12498246  0.75002430  0.62500114
   0.12499659  0.87500103  0.50000000
   0.00002189  0.75004879  0.75004879
  -0.00016953  0.87459799  0.87459799
   0.12500302  0.74995440  0.87501116
   0.12500302  0.87501116  0.74995440
   0.25032203  0.00000000  0.00000000
   0.24988436  0.12488467  0.12488467
   0.37502216  0.00000000  0.12496311
   0.37502216  0.12496311  0.00000000
   0.24996575  0.00000000  0.25002467
   0.24997966  0.12497574  0.37500296
   0.37498482  0.00000000  0.37499070
   0.37501857  0.12501188  0.25000461
   0.25000717  0.00000000  0.50000000
   0.24997966  0.12497574  0.62499704
   0.37498482  0.00000000  0.62500930
   0.37499326  0.12500106  0.50000000
   0.24996575  0.00000000  0.74997533
   0.24988436  0.12488467  0.87511533
   0.37502216  0.00000000  0.87503689
   0.37501857  0.12501188  0.74999539
   0.24996575  0.25002467  0.00000000
   0.24997966  0.37500296  0.12497574
   0.37501857  0.25000461  0.12501188
   0.37498482  0.37499070  0.00000000
   0.25002291  0.25000343  0.25000343
   0.24999048  0.37499910  0.37499910
   0.37499257  0.24999484  0.37499860
   0.37499257  0.37499860  0.24999484
   0.24999568  0.24998709  0.50000000
   0.24999048  0.37499910  0.62500090
   0.37499257  0.24999484  0.62500140
   0.37499396  0.37499027  0.50000000
   0.25002291  0.25000343  0.74999657
   0.24997966  0.37500296  0.87502426
   0.37501857  0.25000461  0.87498812
   0.37499257  0.37499860  0.75000516
   0.25000717  0.50000000  0.00000000
   0.24997966  0.62499704  0.12497574
   0.37499326  0.50000000  0.12500106
   0.37498482  0.62500930  0.00000000
   0.24999568  0.50000000  0.24998709
   0.24999048  0.62500090  0.37499910
   0.37499396  0.50000000  0.37499027
   0.37499257  0.62500140  0.24999484
   0.24999787  0.50000000  0.50000000
   0.24999048  0.62500090  0.62500090
   0.37499396  0.50000000  0.62500973
   0.37499396  0.62500973  0.50000000
   0.24999568  0.50000000  0.75001291
   0.24997966  0.62499704  0.87502426
   0.37499326  0.50000000  0.87499894
   0.37499257  0.62500140  0.75000516
   0.24996575  0.74997533  0.00000000
   0.24988436  0.87511533  0.12488467
   0.37501857  0.74999539  0.12501188
   0.37502216  0.87503689  0.00000000
   0.25002291  0.74999657  0.25000343
   0.24997966  0.87502426  0.37500296
   0.37499257  0.75000516  0.37499860
   0.37501857  0.87498812  0.25000461
   0.24999568  0.75001291  0.50000000
   0.24997966  0.87502426  0.62499704
   0.37499257  0.75000516  0.62500140
   0.37499326  0.87499894  0.50000000
   0.25002291  0.74999657  0.74999657
   0.24988436  0.87511533  0.87511533
   0.37501857  0.74999539  0.87498812
   0.37501857  0.87498812  0.74999539
   0.50002049  0.00000000  0.00000000
   0.50000124  0.12499673  0.12499673
   0.62501609  0.00000000  0.12499049
   0.62501609  0.12499049  0.00000000
   0.49998441  0.00000000  0.24999980
   0.49998399  0.12499538  0.37498665
   0.62501072  0.00000000  0.37498729
   0.62500524  0.12500126  0.24999000
   0.49999320  0.00000000  0.50000000
   0.49998399  0.12499538  0.62501335
   0.62501072  0.00000000  0.62501271
   0.62501364  0.12499965  0.50000000
   0.49998441  0.00000000  0.75000020
   0.50000124  0.12499673  0.87500327
   0.62501609  0.00000000  0.87500951
   0.62500524  0.12500126  0.75001000
   0.49998441  0.24999980  0.00000000
   0.49998399  0.37498665  0.12499538
   0.62500524  0.24999000  0.12500126
   0.62501072  0.37498729  0.00000000
   0.49999018  0.24998800  0.24998800
   0.50000307  0.37499997  0.37499997
   0.62499794  0.24999425  0.37500630
   0.62499794  0.37500630  0.24999425
   0.49999397  0.24998895  0.50000000
   0.50000307  0.37499997  0.62500003
   0.62499794  0.24999425  0.62499370
   0.62499813  0.37501240  0.50000000
   0.49999018  0.24998800  0.75001200
   0.49998399  0.37498665  0.87500462
   0.62500524  0.24999000  0.87499874
   0.62499794  0.37500630  0.75000575
   0.49999320  0.50000000  0.00000000
   0.49998399  0.62501335  0.12499538
   0.62501364  0.50000000  0.12499965
   0.62501072  0.62501271  0.00000000
   0.49999397  0.50000000  0.24998895
   0.50000307  0.62500003  0.37499997
   0.62499813  0.50000000  0.37501240
   0.62499794  0.62499370  0.24999425
   0.50002207  0.50000000  0.50000000
   0.50000307  0.62500003  0.62500003
   0.62499813  0.50000000  0.62498760
   0.62499813  0.62498760  0.50000000
   0.49999397  0.50000000  0.75001105
   0.49998399  0.62501335  0.87500462
   0.62501364  0.50000000  0.87500035
   0.62499794  0.62499370  0.75000575
   0.49998441  0.75000020  0.00000000
   0.50000124  0.87500327  0.12499673
   0.62500524  0.75001000  0.12500126
   0.62501609  0.87500951  0.00000000
   0.49999018  0.75001200  0.24998800
   0.49998399  0.87500462  0.37498665
   0.62499794  0.75000575  0.37500630
   0.62500524  0.87499874  0.24999000
   0.49999397  0.75001105  0.50000000
   0.49998399  0.87500462  0.62501335
   0.62499794  0.75000575  0.62499370
   0.62501364  0.87500035  0.50000000
   0.49999018  0.75001200  0.75001200
   0.50000124  0.87500327  0.87500327
   0.62500524  0.75001000  0.87499874
   0.62500524  0.87499874  0.75001000
   0.75000392  0.00000000  0.00000000
   0.74999703  0.12497256  0.12497256
   0.87504190  0.00000000  0.12494394
   0.87504190  0.12494394  0.00000000
   0.74997864  0.00000000  0.25000769
   0.75000197  0.12499743  0.37500469
   0.87501080  0.00000000  0.37499909
   0.87503229  0.12497483  0.25000540
   0.75000235  0.00000000  0.50000000
   0.75000197  0.12499743  0.62499531
   0.87501080  0.00000000  0.62500091
   0.87500822  0.12499741  0.50000000
   0.74997864  0.00000000  0.74999231
   0.74999703  0.12497256  0.87502744
   0.87504190  0.00000000  0.87505606
   0.87503229  0.12497483  0.74999460
   0.74997864  0.25000769  0.00000000
   0.75000197  0.37500469  0.12499743
   0.87503229  0.25000540  0.12497483
   0.87501080  0.37499909  0.00000000
   0.75001108  0.24998821  0.24998821
   0.75001133  0.37499645  0.37499645
   0.87500142  0.24999189  0.37498885
   0.87500142  0.37498885  0.24999189
   0.74999972  0.25000546  0.50000000
   0.75001133  0.37499645  0.62500355
   0.87500142  0.24999189  0.62501115
   0.87500053  0.37500634  0.50000000
   0.75001108  0.24998821  0.75001179
   0.75000197  0.37500469  0.87500257
   0.87503229  0.25000540  0.87502517
   0.87500142  0.37498885  0.75000811
   0.75000235  0.50000000  0.00000000
   0.75000197  0.62499531  0.12499743
   0.87500822  0.50000000  0.12499741
   0.87501080  0.62500091  0.00000000
   0.74999972  0.50000000  0.25000546
   0.75001133  0.62500355  0.37499645
   0.87500053  0.50000000  0.37500634
   0.87500142  0.62501115  0.24999189
   0.74999741  0.50000000  0.50000000
   0.75001133  0.62500355  0.62500355
   0.87500053  0.50000000  0.62499366
   0.87500053  0.62499366  0.50000000
   0.74999972  0.50000000  0.74999454
   0.75000197  0.62499531  0.87500257
   0.87500822  0.50000000  0.87500259
   0.87500142  0.62501115  0.75000811
   0.74997864  0.74999231  0.00000000
   0.74999703  0.87502744  0.12497256
   0.87503229  0.74999460  0.12497483
   0.87504190  0.87505606  0.00000000
   0.75001108  0.75001179  0.24998821
   0.75000197  0.87500257  0.37500469
   0.87500142  0.75000811  0.37498885
   0.87503229  0.87502517  0.25000540
   0.74999972  0.74999454  0.50000000
   0.75000197  0.87500257  0.62499531
   0.87500142  0.75000811  0.62501115
   0.87500822  0.87500259  0.50000000
   0.75001108  0.75001179  0.75001179
   0.74999703  0.87502744  0.87502744
   0.87503229  0.74999460  0.87502517
   0.87503229  0.87502517  0.74999460
   0.22375889  0.00000000  0.00000000
Direct configuration=     3
  -0.03034356  0.00000000  0.00000000
  -0.00003189  0.12507563  0.12507563
   0.12501488  0.00000000  0.12496444
   0.12501488  0.12496444  0.00000000
   0.00000609  0.00000000  0.24999164
   0.00000209  0.12499668  0.37499712
   0.12499645  0.00000000  0.37499171
   0.12500057  0.12499790  0.25000858
   0.00000396  0.00000000  0.50000000
   0.00000209  0.12499668  0.62500288
   0.12499645  0.00000000  0.62500829
   0.12499936  0.12499981  0.50000000
   0.00000609  0.00000000  0.75000836
  -0.00003189  0.12507563  0.87492437
   0.12501488  0.00000000  0.87503556
   0.12500057  0.12499790  0.74999142
   0.00000609  0.24999164  0.00000000
   0.00000209  0.37499712  0.12499668
   0.12500057  0.25000858  0.12499790
   0.12499645  0.37499171  0.00000000
   0.00000412  0.24999082  0.24999082
   0.00000040  0.37500125  0.37500125
   0.12499670  0.24999543  0.37499979
   0.12499670  0.37499979  0.24999543
   0.00000322  0.24999840  0.50000000
   0.00000040  0.37500125  0.62499875
   0.12499670  0.24999543  0.62500021
   0.12500051  0.37500279  0.50000000
   0.00000412  0.24999082  0.75000918
   0.00000209  0.37499712  0.87500332
   0.12500057  0.25000858  0.87500210
   0.12499670  0.37499979  0.75000457
   0.00000396  0.50000000  0.00000000
   0.00000209  0.62500288  0.12499668
   0.12499936  0.50000000  0.12499981
   0.12499645  0.62500829  0.00000000
   0.00000322  0.50000000  0.24999840
   0.00000040  0.62499875  0.37500125
   0.12500051  0.50000000  0.37500279
   0.12499670  0.62500021  0.24999543
  -0.00000020  0.50000000  0.50000000
   0.00000040  0.62499875  0.62499875
   0.12500051  0.50000000  0.62499721
   0.12500051  0.62499721  0.50000000
   0.00000322  0.50000000  0.75000160
   0.00000209  0.62500288  0.87500332
   0.12499936  0.50000000  0.87500019
   0.12499670  0.62500021  0.75000457
   0.00000609  0.75000836  0.00000000
  -0.00003189  0.87492437  0.12507563
   0.12500057  0.74999142  0.12499790
   0.12501488  0.87503556  0.00000000
   0.00000412  0.75000918  0.24999082
   0.00000209  0.87500332  0.37499712
   0.12499670  0.75000457  0.37499979
   0.12500057  0.87500210  0.25000858
   0.00000322  0.75000160  0.50000000
   0.00000209  0.87500332  0.62500288
   0.12499670  0.75000457  0.62500021
   0.12499936  0.87500019  0.50000000
   0.00000412  0.75000918  0.75000918
  -0.00003189  0.87492437  0.87492437
   0.12500057  0.74999142  0.87500210
   0.12500057  0.87500210  0.74999142
   0.25006058  0.00000000  0.00000000
   0.24997825  0.12497830  0.12497830
   0.37500417  0.00000000  0.12499306
   0.37500417  0.12499306  0.00000000
   0.24999356  0.00000000  0.25000464
   0.24999617  0.12499544  0.37500056
   0.37499714  0.00000000  0.37499825
   0.37500349  0.12500223  0.25000087
   0.25000135  0.00000000  0.50000000
   0.24999617  0.12499544  0.62499944
   0.37499714  0.00000000  0.62500175
   0.37499873  0.12500020  0.50000000
   0.24999356  0.00000000  0.74999536
   0.24997825  0.12497830  0.87502170
   0.37500417  0.00000000  0.87500694
   0.37500349  0.12500223  0.74999913
   0.24999356  0.25000464  0.00000000
   0.24999617  0.37500056  0.12499544
   0.37500349  0.25000087  0.12500223
   0.37499714  0.37499825  0.00000000
   0.25000431  0.25000064  0.25000064
   0.24999821  0.37499983  0.37499983
   0.37499860  0.24999903  0.37499974
   0.37499860  0.37499974  0.24999903
   0.24999919  0.24999757  0.50000000
   0.24999821  0.37499983  0.62500017
   0.37499860  0.24999903  0.62500026
   0.37499886  0.37499817  0.50000000
   0.25000431  0.25000064  0.74999936
   0.24999617  0.37500056  0.87500456
   0.37500349  0.25000087  0.87499777
   0.37499860  0.37499974  0.75000097
   0.25000135  0.50000000  0.00000000
   0.24999617  0.62499944  0.12499544
   0.37499873  0.50000000  0.12500020
   0.37499714  0.62500175  0.00000000
   0.24999919  0.50000000  0.24999757
   0.24999821  0.62500017  0.37499983
   0.37499886  0.50000000  0.37499817
   0.37499860  0.62500026  0.24999903
   0.24999960  0.50000000  0.50000000
   0.24999821  0.62500017  0.62500017
   0.37499886  0.50000000  0.62500183
   0.37499886  0.62500183  0.50000000
   0.24999919  0.50000000  0.75000243
   0.24999617  0.62499944  0.87500456
   0.37499873  0.50000000  0.87499980
   0.37499860  0.62500026  0.75000097
   0.24999356  0.74999536  0.00000000
   0.24997825  0.87502170  0.12497830
   0.37500349  0.74999913  0.12500223
   0.37500417  0.87500694  0.00000000
   0.25000431  0.74999936  0.25000064
   0.24999617  0.87500456  0.37500056
   0.37499860  0.75000097  0.37499974
   0.37500349  0.87499777  0.25000087
   0.24999919  0.75000243  0.50000000
   0.24999617  0.87500456  0.62499944
   0.37499860  0.75000097  0.62500026
   0.37499873  0.87499980  0.50000000
   0.25000431  0.74999936  0.74999936
   0.24997825  0.87502170  0.87502170
   0.37500349  0.74999913  0.87499777
   0.37500349  0.87499777  0.74999913
   0.50000385  0.00000000  0.00000000
   0.50000023  0.12499939  0.12499939
   0.62500303  0.00000000  0.12499821
   0.62500303  0.12499821  0.00000000
   0.49999707  0.00000000  0.24999996
   0.49999699  0.12499913  0.37499749
   0.62500202  0.00000000  0.37499761
   0.62500099  0.12500024  0.24999812
   0.49999872  0.00000000  0.50000000
   0.49999699  0.12499913  0.62500251
   0.62500202  0.00000000  0.62500239
   0.62500256  0.12499993  0.50000000
   0.49999707  0.00000000  0.75000004
   0.50000023  0.12499939  0.87500061
   0.62500303  0.00000000  0.87500179
   0.62500099  0.12500024  0.75000188
   0.49999707  0.24999996  0.00000000
   0.49999699  0.37499749  0.12499913
   0.62500099  0.24999812  0.12500024
   0.62500202  0.37499761  0.00000000
   0.49999815  0.24999774  0.24999774
   0.50000058  0.37499999  0.37499999
   0.62499961  0.24999892  0.37500119
   0.62499961  0.37500119  0.24999892
   0.49999887  0.24999792  0.50000000
   0.50000058  0.37499999  0.62500001
   0.62499961  0.24999892  0.62499881
   0.62499965  0.37500233  0.50000000
   0.49999815  0.24999774  0.75000226
   0.49999699  0.37499749  0.87500087
   0.62500099  0.24999812  0.87499976
   0.62499961  0.37500119  0.75000108
   0.49999872  0.50000000  0.00000000
   0.49999699  0.62500251  0.12499913
   0.62500256  0.50000000  0.12499993
   0.62500202  0.62500239  0.00000000
   0.49999887  0.50000000  0.24999792
   0.50000058  0.62500001  0.37499999
   0.62499965  0.50000000  0.37500233
   0.62499961  0.62499881  0.24999892
   0.50000415  0.50000000  0.50000000
   0.50000058  0.62500001  0.62500001
   0.62499965  0.50000000  0.62499767
   0.62499965  0.62499767  0.50000000
   0.49999887  0.50000000  0.75000208
   0.49999699  0.62500251  0.87500087
   0.62500256  0.50000000  0.87500007
   0.62499961  0.62499881  0.75000108
   0.49999707  0.75000004  0.00000000
   0.50000023  0.87500061  0.12499939
   0.62500099  0.75000188  0.12500024
   0.62500303  0.87500179  0.00000000
   0.49999815  0.75000226  0.24999774
   0.49999699  0.87500087  0.37499749
   0.62499961  0.75000108  0.37500119
   0.62500099  0.87499976  0.24999812
   0.49999887  0.75000208  0.50000000
   0.49999699  0.87500087  0.62500251
   0.62499961  0.75000108  0.62499881
   0.62500256  0.87500007  0.50000000
   0.49999815  0.75000226  0.75000226
   0.50000023  0.87500061  0.87500061
   0.62500099  0.75000188  0.87499976
   0.62500099  0.87499976  0.75000188
   0.75000074  0.00000000  0.00000000
   0.74999944  0.12499484  0.12499484
   0.87500788  0.00000000  0.12498945
   0.87500788  0.12498945  0.00000000
   0.74999598  0.00000000  0.25000145
   0.75000037  0.12499952  0.37500088
   0.87500203  0.00000000  0.37499983
   0.87500607  0.12499527  0.25000101
   0.75000044  0.00000000  0.50000000
   0.75000037  0.12499952  0.62499912
   0.87500203  0.00000000  0.62500017
   0.87500155  0.12499951  0.50000000
   0.74999598  0.00000000  0.74999855
   0.74999944  0.12499484  0.87500516
   0.87500788  0.00000000  0.87501055
   0.87500607  0.12499527  0.74999899
   0.74999598  0.25000145  0.00000000
   0.75000037  0.37500088  0.12499952
   0.87500607  0.25000101  0.12499527
   0.87500203  0.37499983  0.00000000
   0.75000208  0.24999778  0.24999778
   0.75000213  0.37499933  0.37499933
   0.87500027  0.24999848  0.37499790
   0.87500027  0.37499790  0.24999848
   0.74999995  0.25000103  0.50000000
   0.75000213  0.37499933  0.62500067
   0.87500027  0.24999848  0.62500210
   0.87500010  0.37500119  0.50000000
   0.75000208  0.24999778  0.75000222
   0.75000037  0.37500088  0.87500048
   0.87500607  0.25000101  0.87500473
   0.87500027  0.37499790  0.75000152
   0.75000044  0.50000000  0.00000000
   0.75000037  0.62499912  0.12499952
   0.87500155  0.50000000  0.12499951
   0.87500203  0.62500017  0.00000000
   0.74999995  0.50000000  0.25000103
   0.75000213  0.62500067  0.37499933
   0.87500010  0.50000000  0.37500119
   0.87500027  0.62500210  0.24999848
   0.74999951  0.50000000  0.50000000
   0.75000213  0.62500067  0.62500067
   0.87500010  0.50000000  0.62499881
   0.87500010  0.62499881  0.50000000
   0.74999995  0.50000000  0.74999897
   0.75000037  0.62499912  0.87500048
   0.87500155  0.50000000  0.87500049
   0.87500027  0.62500210  0.75000152
   0.74999598  0.74999855  0.00000000
   0.74999944  0.87500516  0.12499484
   0.87500607  0.74999899  0.12499527
   0.87500788  0.87501055  0.00000000
   0.75000208  0.75000222  0.24999778
   0.75000037  0.87500048  0.37500088
   0.87500027  0.75000152  0.37499790
   0.87500607  0.87500473  0.25000101
   0.74999995  0.74999897  0.50000000
   0.75000037  0.87500048  0.62499912
   0.87500027  0.75000152  0.62500210
   0.87500155  0.87500049  0.50000000
   0.75000208  0.75000222  0.75000222
   0.74999944  0.87500516  0.87500516
   0.87500607  0.74999899  0.87500473
   0.87500607  0.87500473  0.74999899
   0.09283561  0.00000000  0.00000000
Direct configuration=     4
  -0.03006423  0.00000000  0.00000000
  -0.00003160  0.12507493  0.12507493
   0.12501474  0.00000000  0.12496477
   0.12501474  0.12496477  0.00000000
   0.00000603  0.00000000  0.24999171
   0.00000207  0.12499671  0.37499714
   0.12499648  0.00000000  0.37499179
   0.12500056  0.12499792  0.25000850
   0.00000392  0.00000000  0.50000000
   0.00000207  0.12499671  0.62500286