ITEM: TIMESTEP
0
ITEM: NUMBER OF ATOMS
2
ITEM: BOX BOUNDS xy xz yz pp pp pp
-1.5188908690000000e+00 3.0377817390000001e+00 -1.5188908690000000e+00
0.0000000000000000e+00 2.6307961569999998e+00 -0.0000000000000000e+00
0.0000000000000000e+00 4.9132207169999997e+00 0.0000000000000000e+00
ITEM: ATOMS id type xs ys zs
1 1 0.333333 0.666665 0
2 1 0.666666 0.333333 0.5
ITEM: TIMESTEP
10
ITEM: NUMBER OF ATOMS
2
ITEM: BOX BOUNDS xy xz yz pp pp pp
-1.5188908690000000e+00 3.0377817390000001e+00 -1.5188908690000000e+00
0.0000000000000000e+00 2.6307961569999998e+00 -0.0000000000000000e+00
0.0000000000000000e+00 4.9132207169999997e+00 0.0000000000000000e+00
ITEM: ATOMS id type xs ys zs
1 1 0.287815 0.629412 -0.0107384
2 1 0.712183 0.370585 0.510738
ITEM: TIMESTEP
20
ITEM: NUMBER OF ATOMS
2
ITEM: BOX BOUNDS xy xz yz pp pp pp
-1.5188908690000000e+00 3.0377817390000001e+00 -1.5188908690000000e+00
0.0000000000000000e+00 2.6307961569999998e+00 -0.0000000000000000e+00
0.0000000000000000e+00 4.9132207169999997e+00 0.0000000000000000e+00
ITEM: ATOMS id type xs ys zs
1 1 0.375983 0.680789 -0.0024329
2 1 0.624016 0.319209 0.502433
ITEM: TIMESTEP
30
ITEM: NUMBER OF ATOMS
2
ITEM: BOX BOUNDS xy xz yz pp pp pp
-1.5188908690000000e+00 3.0377817390000001e+00 -1.5188908690000000e+00
0.0000000000000000e+00 2.6307961569999998e+00 -0.0000000000000000e+00
0.0000000000000000e+00 4.9132207169999997e+00 0.0000000000000000e+00
ITEM: ATOMS id type xs ys zs
1 1 0.394475 0.709811 0.00984892
2 1 0.605524 0.290187 0.490151
ITEM: TIMESTEP
40
ITEM: NUMBER OF ATOMS
2
ITEM: BOX BOUNDS xy xz yz pp pp pp
-1.5188908690000000e+00 3.0377817390000001e+00 -1.5188908690000000e+00
0.0000000000000000e+00 2.6307961569999998e+00 -0.0000000000000000e+00
0.0000000000000000e+00 4.9132207169999997e+00 0.0000000000000000e+00
ITEM: ATOMS id type xs ys zs
1 1 0.314063 0.641299 0.00549868
2 1 0.685936 0.358699 0.494501
ITEM: TIMESTEP
50
ITEM: NUMBER OF ATOMS
2
ITEM: BOX BOUNDS xy xz yz pp pp pp
-1.5188908690000000e+00 3.0377817390000001e+00 -1.5188908690000000e+00
0.0000000000000000e+00 2.6307961569999998e+00 -0.0000000000000000e+00
0.0000000000000000e+00 4.9132207169999997e+00 0.0000000000000000e+00
ITEM: ATOMS id type xs ys zs
1 1 0.298873 0.625789 -0.00850307
2 1 0.701126 0.374209 0.508503
ITEM: TIMESTEP
60
ITEM: NUMBER OF ATOMS
2
ITEM: BOX BOUNDS xy xz yz pp pp pp
-1.5188908690000000e+00 3.0377817390000001e+00 -1.5188908690000000e+00
0.0000000000000000e+00 2.6307961569999998e+00 -0.0000000000000000e+00
0.0000000000000000e+00 4.9132207169999997e+00 0.0000000000000000e+00
ITEM: ATOMS id type xs ys zs
1 1 0.382589 0.69503 -0.00757135
2 1 0.61741 0.304967 0.507571
ITEM: TIMESTEP
70
ITEM: NUMBER OF ATOMS
2
ITEM: BOX BOUNDS xy xz yz pp pp pp
-1.5188908690000000e+00 3.0377817390000001e+00 -1.5188908690000000e+00
0.0000000000000000e+00 2.6307961569999998e+00 -0.0000000000000000e+00
0.0000000000000000e+00 4.9132207169999997e+00 0.0000000000000000e+00
ITEM: ATOMS id type xs ys zs
1 1 0.380665 0.697516 0.00623617
2 1 0.619334 0.302482 0.493764
ITEM: TIMESTEP
80
ITEM: NUMBER OF ATOMS
2
ITEM: BOX BOUNDS xy xz yz pp pp pp
-1.5188908690000000e+00 3.0377817390000001e+00 -1.5188908690000000e+00
0.0000000000000000e+00 2.6307961569999998e+00 -0.0000000000000000e+00
0.0000000000000000e+00 4.9132207169999997e+00 0.0000000000000000e+00
ITEM: ATOMS id type xs ys zs
1 1 0.296687 0.623716 0.00944613
2 1 0.703311 0.376282 0.490554
ITEM: TIMESTEP
90
ITEM: NUMBER OF ATOMS
2
ITEM: BOX BOUNDS xy xz yz pp pp pp
-1.5188908690000000e+00 3.0377817390000001e+00 -1.5188908690000000e+00
0.0000000000000000e+00 2.6307961569999998e+00 -0.0000000000000000e+00
0.0000000000000000e+00 4.9132207169999997e+00 0.0000000000000000e+00
ITEM: ATOMS id type xs ys zs
1 1 0.315241 0.634135 -0.00386987
2 1 0.684757 0.365863 0.50387
ITEM: TIMESTEP
100
ITEM: NUMBER OF ATOMS
2
ITEM: BOX BOUNDS xy xz yz pp pp pp
-1.5188908690000000e+00 3.0377817390000001e+00 -1.5188908690000000e+00
0.0000000000000000e+00 2.6307961569999998e+00 -0.0000000000000000e+00
0.0000000000000000e+00 4.9132207169999997e+00 0.0000000000000000e+00
ITEM: ATOMS id type xs ys zs
1 1 0.389673 0.709128 -0.0104593
2 1 0.610326 0.29087 0.510459
ITEM: TIMESTEP
110
ITEM: NUMBER OF ATOMS
2
ITEM: BOX BOUNDS xy xz yz pp pp pp
-1.5188908690000000e+00 3.0377817390000001e+00 -1.5188908690000000e+00
0.0000000000000000e+00 2.6307961569999998e+00 -0.0000000000000000e+00
0.0000000000000000e+00 4.9132207169999997e+00 0.0000000000000000e+00
ITEM: ATOMS id type xs ys zs
1 1 0.365365 0.679135 0.000916849
2 1 0.634633 0.320863 0.499083
ITEM: TIMESTEP
120
ITEM: NUMBER OF ATOMS
2
ITEM: BOX BOUNDS xy xz yz pp pp pp
-1.5188908690000000e+00 3.0377817390000001e+00 -1.5188908690000000e+00
0.0000000000000000e+00 2.6307961569999998e+00 -0.0000000000000000e+00
0.0000000000000000e+00 4.9132207169999997e+00 0.0000000000000000e+00
ITEM: ATOMS id type xs ys zs
1 1 0.285355 0.614955 0.0108065
2 1 0.714643 0.385043 0.489193
ITEM: TIMESTEP
130
ITEM: NUMBER OF ATOMS
2
ITEM: BOX BOUNDS xy xz yz pp pp pp
-1.5188908690000000e+00 3.0377817390000001e+00 -1.5188908690000000e+00
0.0000000000000000e+00 2.6307961569999998e+00 -0.0000000000000000e+00
0.0000000000000000e+00 4.9132207169999997e+00 0.0000000000000000e+00
ITEM: ATOMS id type xs ys zs
1 1 0.334356 0.649938 0.0017646
2 1 0.665643 0.35006 0.498235
ITEM: TIMESTEP
140
ITEM: NUMBER OF ATOMS
2
ITEM: BOX BOUNDS xy xz yz pp pp pp
-1.5188908690000000e+00 3.0377817390000001e+00 -1.5188908690000000e+00
0.0000000000000000e+00 2.6307961569999998e+00 -0.0000000000000000e+00
0.0000000000000000e+00 4.9132207169999997e+00 0.0000000000000000e+00
ITEM: ATOMS id type xs ys zs
1 1 0.394715 0.716141 -0.0103081
2 1 0.605283 0.283856 0.510308
ITEM: TIMESTEP
150
ITEM: NUMBER OF ATOMS
2
ITEM: BOX BOUNDS xy xz yz pp pp pp
-1.5188908690000000e+00 3.0377817390000001e+00 -1.5188908690000000e+00
0.0000000000000000e+00 2.6307961569999998e+00 -0.0000000000000000e+00
0.0000000000000000e+00 4.9132207169999997e+00 0.0000000000000000e+00
ITEM: ATOMS id type xs ys zs
1 1 0.349524 0.661019 -0.00465238
2 1 0.650475 0.338979 0.504652
ITEM: TIMESTEP
160
ITEM: NUMBER OF ATOMS
2
ITEM: BOX BOUNDS xy xz yz pp pp pp
-1.5188908690000000e+00 3.0377817390000001e+00 -1.5188908690000000e+00
0.0000000000000000e+00 2.6307961569999998e+00 -0.0000000000000000e+00
0.0000000000000000e+00 4.9132207169999997e+00 0.0000000000000000e+00
ITEM: ATOMS id type xs ys zs
1 1 0.281791 0.615341 0.0091074
2 1 0.718207 0.384656 0.490893
ITEM: TIMESTEP
170
ITEM: NUMBER OF ATOMS
2
ITEM: BOX BOUNDS xy xz yz pp pp pp
-1.5188908690000000e+00 3.0377817390000001e+00 -1.5188908690000000e+00
0.0000000000000000e+00 2.6307961569999998e+00 -0.0000000000000000e+00
0.0000000000000000e+00 4.9132207169999997e+00 0.0000000000000000e+00
ITEM: ATOMS id type xs ys zs
1 1 0.354558 0.670597 0.00684177
2 1 0.645441 0.329401 0.493158
ITEM: TIMESTEP
180
ITEM: NUMBER OF ATOMS
2
ITEM: BOX BOUNDS xy xz yz pp pp pp
-1.5188908690000000e+00 3.0377817390000001e+00 -1.5188908690000000e+00
0.0000000000000000e+00 2.6307961569999998e+00 -0.0000000000000000e+00
0.0000000000000000e+00 4.9132207169999997e+00 0.0000000000000000e+00
ITEM: ATOMS id type xs ys zs
1 1 0.397714 0.713114 -0.00715197
2 1 0.602284 0.286884 0.507152
ITEM: TIMESTEP
190
ITEM: NUMBER OF ATOMS
2
ITEM: BOX BOUNDS xy xz yz pp pp pp
-1.5188908690000000e+00 3.0377817390000001e+00 -1.5188908690000000e+00
0.0000000000000000e+00 2.6307961569999998e+00 -0.0000000000000000e+00
0.0000000000000000e+00 4.9132207169999997e+00 0.0000000000000000e+00
ITEM: ATOMS id type xs ys zs
1 1 0.334873 0.649048 -0.0089977
2 1 0.665125 0.35095 0.508998
ITEM: TIMESTEP
200
ITEM: NUMBER OF ATOMS
2
ITEM: BOX BOUNDS xy xz yz pp pp pp
-1.5188908690000000e+00 3.0377817390000001e+00 -1.5188908690000000e+00
0.0000000000000000e+00 2.6307961569999998e+00 -0.0000000000000000e+00
0.0000000000000000e+00 4.9132207169999997e+00 0.0000000000000000e+00
ITEM: ATOMS id type xs ys zs
1 1 0.285936 0.627134 0.00486267
2 1 0.714063 0.372864 0.495137
ITEM: TIMESTEP
210
ITEM: NUMBER OF ATOMS
2
ITEM: BOX BOUNDS xy xz yz pp pp pp
-1.5188908690000000e+00 3.0377817390000001e+00 -1.5188908690000000e+00
0.0000000000000000e+00 2.6307961569999998e+00 -0.0000000000000000e+00
0.0000000000000000e+00 4.9132207169999997e+00 0.0000000000000000e+00
ITEM: ATOMS id type xs ys zs
1 1 0.374377 0.691921 0.0100876
2 1 0.625621 0.308076 0.489912
ITEM: TIMESTEP
220
ITEM: NUMBER OF ATOMS
2
ITEM: BOX BOUNDS xy xz yz pp pp pp
-1.5188908690000000e+00 3.0377817390000001e+00 -1.5188908690000000e+00
0.0000000000000000e+00 2.6307961569999998e+00 -0.0000000000000000e+00
0.0000000000000000e+00 4.9132207169999997e+00 0.0000000000000000e+00
ITEM: ATOMS id type xs ys zs
1 1 0.400338 0.701527 -0.00184749
2 1 0.599661 0.298471 0.501847
ITEM: TIMESTEP
230
ITEM: NUMBER OF ATOMS
2
ITEM: BOX BOUNDS xy xz yz pp pp pp
-1.5188908690000000e+00 3.0377817390000001e+00 -1.5188908690000000e+00
0.0000000000000000e+00 2.6307961569999998e+00 -0.0000000000000000e+00
0.0000000000000000e+00 4.9132207169999997e+00 0.0000000000000000e+00
ITEM: ATOMS id type xs ys zs
1 1 0.32343 0.650928 -0.0108535
2 1 0.676569 0.34907 0.510853
ITEM: TIMESTEP
240
ITEM: NUMBER OF ATOMS
2
ITEM: BOX BOUNDS xy xz yz pp pp pp
-1.5188908690000000e+00 3.0377817390000001e+00 -1.5188908690000000e+00
0.0000000000000000e+00 2.6307961569999998e+00 -0.0000000000000000e+00
0.0000000000000000e+00 4.9132207169999997e+00 0.0000000000000000e+00
ITEM: ATOMS id type xs ys zs
1 1 0.294249 0.650744 -0.000904409
2 1 0.705749 0.349254 0.500904
ITEM: TIMESTEP
250
ITEM: NUMBER OF ATOMS
2
ITEM: BOX BOUNDS xy xz yz pp pp pp
-1.5188908690000000e+00 3.0377817390000001e+00 -1.5188908690000000e+00
0.0000000000000000e+00 2.6307961569999998e+00 -0.0000000000000000e+00
0.0000000000000000e+00 4.9132207169999997e+00 0.0000000000000000e+00
ITEM: ATOMS id type xs ys zs
1 1 0.386 0.700667 0.0106157
2 1 0.613999 0.299331 0.489384
ITEM: TIMESTEP
260
ITEM: NUMBER OF ATOMS
2
ITEM: BOX BOUNDS xy xz yz pp pp pp
-1.5188908690000000e+00 3.0377817390000001e+00 -1.5188908690000000e+00
0.0000000000000000e+00 2.6307961569999998e+00 -0.0000000000000000e+00
0.0000000000000000e+00 4.9132207169999997e+00 0.0000000000000000e+00
ITEM: ATOMS id type xs ys zs
1 1 0.396005 0.68849 0.00410164
2 1 0.603994 0.311508 0.495898
ITEM: TIMESTEP
270
ITEM: NUMBER OF ATOMS
2
ITEM: BOX BOUNDS xy xz yz pp pp pp
-1.5188908690000000e+00 3.0377817390000001e+00 -1.5188908690000000e+00
0.0000000000000000e+00 2.6307961569999998e+00 -0.0000000000000000e+00
0.0000000000000000e+00 4.9132207169999997e+00 0.0000000000000000e+00
ITEM: ATOMS id type xs ys zs
1 1 0.310063 0.663408 -0.00955263
2 1 0.689936 0.336589 0.509553
ITEM: TIMESTEP
280
ITEM: NUMBER OF ATOMS
2
ITEM: BOX BOUNDS xy xz yz pp pp pp
-1.5188908690000000e+00 3.0377817390000001e+00 -1.5188908690000000e+00
0.0000000000000000e+00 2.6307961569999998e+00 -0.0000000000000000e+00
0.0000000000000000e+00 4.9132207169999997e+00 0.0000000000000000e+00
ITEM: ATOMS id type xs ys zs
1 1 0.303858 0.671223 -0.00644595
2 1 0.696141 0.328775 0.506446
ITEM: TIMESTEP
290
ITEM: NUMBER OF ATOMS
2
ITEM: BOX BOUNDS xy xz yz pp pp pp
-1.5188908690000000e+00 3.0377817390000001e+00 -1.5188908690000000e+00
0.0000000000000000e+00 2.6307961569999998e+00 -0.0000000000000000e+00
0.0000000000000000e+00 4.9132207169999997e+00 0.0000000000000000e+00
ITEM: ATOMS id type xs ys zs
1 1 0.388275 0.691765 0.00800159
2 1 0.611724 0.308233 0.491998
ITEM: TIMESTEP
300
ITEM: NUMBER OF ATOMS
2
ITEM: BOX BOUNDS xy xz yz pp pp pp
-1.5188908690000000e+00 3.0377817390000001e+00 -1.5188908690000000e+00
0.0000000000000000e+00 2.6307961569999998e+00 -0.0000000000000000e+00
0.0000000000000000e+00 4.9132207169999997e+00 0.0000000000000000e+00
ITEM: ATOMS id type xs ys zs
1 1 0.381221 0.683926 0.00868706
2 1 0.618777 0.316072 0.491313
ITEM: TIMESTEP
310
ITEM: NUMBER OF ATOMS
2
ITEM: BOX BOUNDS xy xz yz pp pp pp
-1.5188908690000000e+00 3.0377817390000001e+00 -1.5188908690000000e+00
0.0000000000000000e+00 2.6307961569999998e+00 -0.0000000000000000e+00
0.0000000000000000e+00 4.9132207169999997e+00 0.0000000000000000e+00
ITEM: ATOMS id type xs ys zs
1 1 0.294698 0.669214 -0.00564345
2 1 0.7053 0.330784 0.505643
ITEM: TIMESTEP
320
ITEM: NUMBER OF ATOMS
2
ITEM: BOX BOUNDS xy xz yz pp pp pp
-1.5188908690000000e+00 3.0377817390000001e+00 -1.5188908690000000e+00
0.0000000000000000e+00 2.6307961569999998e+00 -0.0000000000000000e+00
0.0000000000000000e+00 4.9132207169999997e+00 0.0000000000000000e+00
ITEM: ATOMS id type xs ys zs
1 1 0.318585 0.681805 -0.0100229
2 1 0.681414 0.318193 0.510023
ITEM: TIMESTEP
330
ITEM: NUMBER OF ATOMS
2
ITEM: BOX BOUNDS xy xz yz pp pp pp
-1.5188908690000000e+00 3.0377817390000001e+00 -1.5188908690000000e+00
0.0000000000000000e+00 2.6307961569999998e+00 -0.0000000000000000e+00
0.0000000000000000e+00 4.9132207169999997e+00 0.0000000000000000e+00
ITEM: ATOMS id type xs ys zs
1 1 0.391574 0.681968 0.00308387
2 1 0.608425 0.31803 0.496916
ITEM: TIMESTEP
340
ITEM: NUMBER OF ATOMS
2
ITEM: BOX BOUNDS xy xz yz pp pp pp
-1.5188908690000000e+00 3.0377817390000001e+00 -1.5188908690000000e+00
0.0000000000000000e+00 2.6307961569999998e+00 -0.0000000000000000e+00
0.0000000000000000e+00 4.9132207169999997e+00 0.0000000000000000e+00
ITEM: ATOMS id type xs ys zs
1 1 0.364241 0.685796 0.0108095
2 1 0.635758 0.314202 0.48919
ITEM: TIMESTEP
350
ITEM: NUMBER OF ATOMS
2
ITEM: BOX BOUNDS xy xz yz pp pp pp
-1.5188908690000000e+00 3.0377817390000001e+00 -1.5188908690000000e+00
0.0000000000000000e+00 2.6307961569999998e+00 -0.0000000000000000e+00
0.0000000000000000e+00 4.9132207169999997e+00 0.0000000000000000e+00
ITEM: ATOMS id type xs ys zs
1 1 0.284594 0.669473 -0.000147313
2 1 0.715405 0.330524 0.500147
ITEM: TIMESTEP
360
ITEM: NUMBER OF ATOMS
2
ITEM: BOX BOUNDS xy xz yz pp pp pp
-1.5188908690000000e+00 3.0377817390000001e+00 -1.5188908690000000e+00
0.0000000000000000e+00 2.6307961569999998e+00 -0.0000000000000000e+00
0.0000000000000000e+00 4.9132207169999997e+00 0.0000000000000000e+00
ITEM: ATOMS id type xs ys zs
1 1 0.336512 0.685635 -0.0108107
2 1 0.663486 0.314363 0.510811
ITEM: TIMESTEP
370
ITEM: NUMBER OF ATOMS
2
ITEM: BOX BOUNDS xy xz yz pp pp pp
-1.5188908690000000e+00 3.0377817390000001e+00 -1.5188908690000000e+00
0.0000000000000000e+00 2.6307961569999998e+00 -0.0000000000000000e+00
0.0000000000000000e+00 4.9132207169999997e+00 0.0000000000000000e+00
ITEM: ATOMS id type xs ys zs
1 1 0.394339 0.678074 -0.00274613
2 1 0.605659 0.321924 0.502746
ITEM: TIMESTEP
380
ITEM: NUMBER OF ATOMS
2
ITEM: BOX BOUNDS xy xz yz pp pp pp
-1.5188908690000000e+00 3.0377817390000001e+00 -1.5188908690000000e+00
0.0000000000000000e+00 2.6307961569999998e+00 -0.0000000000000000e+00
0.0000000000000000e+00 4.9132207169999997e+00 0.0000000000000000e+00
ITEM: ATOMS id type xs ys zs
1 1 0.34667 0.687399 0.010016
2 1 0.653329 0.312599 0.489984
ITEM: TIMESTEP
390
ITEM: NUMBER OF ATOMS
2
ITEM: BOX BOUNDS xy xz yz pp pp pp
-1.5188908690000000e+00 3.0377817390000001e+00 -1.5188908690000000e+00
0.0000000000000000e+00 2.6307961569999998e+00 -0.0000000000000000e+00
0.0000000000000000e+00 4.9132207169999997e+00 0.0000000000000000e+00
ITEM: ATOMS id type xs ys zs
1 1 0.282194 0.668004 0.00547781
2 1 0.717805 0.331994 0.494522
ITEM: TIMESTEP
400
ITEM: NUMBER OF ATOMS
2
ITEM: BOX BOUNDS xy xz yz pp pp pp
-1.5188908690000000e+00 3.0377817390000001e+00 -1.5188908690000000e+00
0.0000000000000000e+00 2.6307961569999998e+00 -0.0000000000000000e+00
0.0000000000000000e+00 4.9132207169999997e+00 0.0000000000000000e+00
ITEM: ATOMS id type xs ys zs
1 1 0.355718 0.685344 -0.00869176
2 1 0.64428 0.314654 0.508692
ITEM: TIMESTEP
410
ITEM: NUMBER OF ATOMS
2
ITEM: BOX BOUNDS xy xz yz pp pp pp
-1.5188908690000000e+00 3.0377817390000001e+00 -1.5188908690000000e+00
0.0000000000000000e+00 2.6307961569999998e+00 -0.0000000000000000e+00
0.0000000000000000e+00 4.9132207169999997e+00 0.0000000000000000e+00
ITEM: ATOMS id type xs ys zs
1 1 0.394869 0.681648 -0.00782439
2 1 0.605129 0.318349 0.507824
ITEM: TIMESTEP
420
ITEM: NUMBER OF ATOMS
2
ITEM: BOX BOUNDS xy xz yz pp pp pp
-1.5188908690000000e+00 3.0377817390000001e+00 -1.5188908690000000e+00
0.0000000000000000e+00 2.6307961569999998e+00 -0.0000000000000000e+00
0.0000000000000000e+00 4.9132207169999997e+00 0.0000000000000000e+00
ITEM: ATOMS id type xs ys zs
1 1 0.329329 0.68474 0.0064571
2 1 0.670669 0.315258 0.493543
ITEM: TIMESTEP
430
ITEM: NUMBER OF ATOMS
2
ITEM: BOX BOUNDS xy xz yz pp pp pp
-1.5188908690000000e+00 3.0377817390000001e+00 -1.5188908690000000e+00
0.0000000000000000e+00 2.6307961569999998e+00 -0.0000000000000000e+00
0.0000000000000000e+00 4.9132207169999997e+00 0.0000000000000000e+00
ITEM: ATOMS id type xs ys zs
1 1 0.288123 0.664983 0.00953106
2 1 0.711876 0.335014 0.490469
ITEM: TIMESTEP
440
ITEM: NUMBER OF ATOMS
2
ITEM: BOX BOUNDS xy xz yz pp pp pp
-1.5188908690000000e+00 3.0377817390000001e+00 -1.5188908690000000e+00
0.0000000000000000e+00 2.6307961569999998e+00 -0.0000000000000000e+00
0.0000000000000000e+00 4.9132207169999997e+00 0.0000000000000000e+00
ITEM: ATOMS id type xs ys zs
1 1 0.374902 0.683969 -0.00425408
2 1 0.625096 0.316028 0.504254
ITEM: TIMESTEP
450
ITEM: NUMBER OF ATOMS
2
ITEM: BOX BOUNDS xy xz yz pp pp pp
-1.5188908690000000e+00 3.0377817390000001e+00 -1.5188908690000000e+00
0.0000000000000000e+00 2.6307961569999998e+00 -0.0000000000000000e+00
0.0000000000000000e+00 4.9132207169999997e+00 0.0000000000000000e+00
ITEM: ATOMS id type xs ys zs
1 1 0.394415 0.692371 -0.0105823
2 1 0.605583 0.307627 0.510582
ITEM: TIMESTEP
460
ITEM: NUMBER OF ATOMS
2
ITEM: BOX BOUNDS xy xz yz pp pp pp
-1.5188908690000000e+00 3.0377817390000001e+00 -1.5188908690000000e+00
0.0000000000000000e+00 2.6307961569999998e+00 -0.0000000000000000e+00
0.0000000000000000e+00 4.9132207169999997e+00 0.0000000000000000e+00
ITEM: ATOMS id type xs ys zs
1 1 0.314476 0.674353 0.00101854
2 1 0.685522 0.325644 0.498981
ITEM: TIMESTEP
470
ITEM: NUMBER OF ATOMS
2
ITEM: BOX BOUNDS xy xz yz pp pp pp
-1.5188908690000000e+00 3.0377817390000001e+00 -1.5188908690000000e+00
0.0000000000000000e+00 2.6307961569999998e+00 -0.0000000000000000e+00
0.0000000000000000e+00 4.9132207169999997e+00 0.0000000000000000e+00
ITEM: ATOMS id type xs ys zs
1 1 0.300271 0.656633 0.0108431
2 1 0.699727 0.343365 0.489157
ITEM: TIMESTEP
480
ITEM: NUMBER OF ATOMS
2
ITEM: BOX BOUNDS xy xz yz pp pp pp
-1.5188908690000000e+00 3.0377817390000001e+00 -1.5188908690000000e+00
0.0000000000000000e+00 2.6307961569999998e+00 -0.0000000000000000e+00
0.0000000000000000e+00 4.9132207169999997e+00 0.0000000000000000e+00
ITEM: ATOMS id type xs ys zs
1 1 0.391002 0.687262 0.00148679
2 1 0.608997 0.312735 0.498513
ITEM: TIMESTEP
490
ITEM: NUMBER OF ATOMS
2
ITEM: BOX BOUNDS xy xz yz pp pp pp
-1.5188908690000000e+00 3.0377817390000001e+00 -1.5188908690000000e+00
0.0000000000000000e+00 2.6307961569999998e+00 -0.0000000000000000e+00
0.0000000000000000e+00 4.9132207169999997e+00 0.0000000000000000e+00
ITEM: ATOMS id type xs ys zs
1 1 0.393769 0.70347 -0.0100731
2 1 0.60623 0.296527 0.510073
ITEM: TIMESTEP
500
ITEM: NUMBER OF ATOMS
2
ITEM: BOX BOUNDS xy xz yz pp pp pp
-1.5188908690000000e+00 3.0377817390000001e+00 -1.5188908690000000e+00
0.0000000000000000e+00 2.6307961569999998e+00 -0.0000000000000000e+00
0.0000000000000000e+00 4.9132207169999997e+00 0.0000000000000000e+00
ITEM: ATOMS id type xs ys zs
1 1 0.30406 0.653221 -0.00480777
2 1 0.695938 0.346777 0.504808
ITEM: TIMESTEP
510
ITEM: NUMBER OF ATOMS
2
ITEM: BOX BOUNDS xy xz yz pp pp pp
-1.5188908690000000e+00 3.0377817390000001e+00 -1.5188908690000000e+00
0.0000000000000000e+00 2.6307961569999998e+00 -0.0000000000000000e+00
0.0000000000000000e+00 4.9132207169999997e+00 0.0000000000000000e+00
ITEM: ATOMS id type xs ys zs
1 1 0.310975 0.642864 0.00894036
2 1 0.689023 0.357134 0.49106
ITEM: TIMESTEP
520
ITEM: NUMBER OF ATOMS
2
ITEM: BOX BOUNDS xy xz yz pp pp pp
-1.5188908690000000e+00 3.0377817390000001e+00 -1.5188908690000000e+00
0.0000000000000000e+00 2.6307961569999998e+00 -0.0000000000000000e+00
0.0000000000000000e+00 4.9132207169999997e+00 0.0000000000000000e+00
ITEM: ATOMS id type xs ys zs
1 1 0.395306 0.697689 0.00694037
2 1 0.604693 0.302309 0.49306
ITEM: TIMESTEP
530
ITEM: NUMBER OF ATOMS
2
ITEM: BOX BOUNDS xy xz yz pp pp pp
-1.5188908690000000e+00 3.0377817390000001e+00 -1.5188908690000000e+00
0.0000000000000000e+00 2.6307961569999998e+00 -0.0000000000000000e+00
0.0000000000000000e+00 4.9132207169999997e+00 0.0000000000000000e+00
ITEM: ATOMS id type xs ys zs
1 1 0.382253 0.697526 -0.00653534
2 1 0.617746 0.302471 0.506535
ITEM: TIMESTEP
540
ITEM: NUMBER OF ATOMS
2
ITEM: BOX BOUNDS xy xz yz pp pp pp
-1.5188908690000000e+00 3.0377817390000001e+00 -1.5188908690000000e+00
0.0000000000000000e+00 2.6307961569999998e+00 -0.0000000000000000e+00
0.0000000000000000e+00 4.9132207169999997e+00 0.0000000000000000e+00
ITEM: ATOMS id type xs ys zs
1 1 0.291884 0.629151 -0.00907536
2 1 0.708115 0.370847 0.509075
ITEM: TIMESTEP
550
ITEM: NUMBER OF ATOMS
2
ITEM: BOX BOUNDS xy xz yz pp pp pp
-1.5188908690000000e+00 3.0377817390000001e+00 -1.5188908690000000e+00
0.0000000000000000e+00 2.6307961569999998e+00 -0.0000000000000000e+00
0.0000000000000000e+00 4.9132207169999997e+00 0.0000000000000000e+00
ITEM: ATOMS id type xs ys zs
1 1 0.323276 0.641354 0.00443678
2 1 0.676722 0.358643 0.495563
ITEM: TIMESTEP
560
ITEM: NUMBER OF ATOMS
2
ITEM: BOX BOUNDS xy xz yz pp pp pp
-1.5188908690000000e+00 3.0377817390000001e+00 -1.5188908690000000e+00
0.0000000000000000e+00 2.6307961569999998e+00 -0.0000000000000000e+00
0.0000000000000000e+00 4.9132207169999997e+00 0.0000000000000000e+00
ITEM: ATOMS id type xs ys zs
1 1 0.395779 0.710246 0.0101421
2 1 0.604219 0.289751 0.489858
ITEM: TIMESTEP
570
ITEM: NUMBER OF ATOMS
2
ITEM: BOX BOUNDS xy xz yz pp pp pp
-1.5188908690000000e+00 3.0377817390000001e+00 -1.5188908690000000e+00
0.0000000000000000e+00 2.6307961569999998e+00 -0.0000000000000000e+00
0.0000000000000000e+00 4.9132207169999997e+00 0.0000000000000000e+00
ITEM: ATOMS id type xs ys zs
1 1 0.364807 0.67895 -0.00134256
2 1 0.635192 0.321047 0.501342
ITEM: TIMESTEP
580
ITEM: NUMBER OF ATOMS
2
ITEM: BOX BOUNDS xy xz yz pp pp pp
-1.5188908690000000e+00 3.0377817390000001e+00 -1.5188908690000000e+00
0.0000000000000000e+00 2.6307961569999998e+00 -0.0000000000000000e+00
0.0000000000000000e+00 4.9132207169999997e+00 0.0000000000000000e+00
ITEM: ATOMS id type xs ys zs
1 1 0.283141 0.616478 -0.0106578
2 1 0.716857 0.38352 0.510658
ITEM: TIMESTEP
590
ITEM: NUMBER OF ATOMS
2
ITEM: BOX BOUNDS xy xz yz pp pp pp
-1.5188908690000000e+00 3.0377817390000001e+00 -1.5188908690000000e+00
0.0000000000000000e+00 2.6307961569999998e+00 -0.0000000000000000e+00
0.0000000000000000e+00 4.9132207169999997e+00 0.0000000000000000e+00
ITEM: ATOMS id type xs ys zs
1 1 0.339413 0.653157 -0.00122306
2 1 0.660586 0.346841 0.501223
ITEM: TIMESTEP
600
ITEM: NUMBER OF ATOMS
2
ITEM: BOX BOUNDS xy xz yz pp pp pp
-1.5188908690000000e+00 3.0377817390000001e+00 -1.5188908690000000e+00
0.0000000000000000e+00 2.6307961569999998e+00 -0.0000000000000000e+00
0.0000000000000000e+00 4.9132207169999997e+00 0.0000000000000000e+00
ITEM: ATOMS id type xs ys zs
1 1 0.39715 0.716709 0.0102552
2 1 0.602848 0.283289 0.489745
ITEM: TIMESTEP
610
ITEM: NUMBER OF ATOMS
2
ITEM: BOX BOUNDS xy xz yz pp pp pp
-1.5188908690000000e+00 3.0377817390000001e+00 -1.5188908690000000e+00
0.0000000000000000e+00 2.6307961569999998e+00 -0.0000000000000000e+00
0.0000000000000000e+00 4.9132207169999997e+00 0.0000000000000000e+00
ITEM: ATOMS id type xs ys zs
1 1 0.347924 0.660129 0.00420828
2 1 0.652074 0.339869 0.495792
ITEM: TIMESTEP
620
ITEM: NUMBER OF ATOMS
2
ITEM: BOX BOUNDS xy xz yz pp pp pp
-1.5188908690000000e+00 3.0377817390000001e+00 -1.5188908690000000e+00
0.0000000000000000e+00 2.6307961569999998e+00 -0.0000000000000000e+00
0.0000000000000000e+00 4.9132207169999997e+00 0.0000000000000000e+00
ITEM: ATOMS id type xs ys zs
1 1 0.281275 0.61552 -0.0091766
2 1 0.718723 0.384478 0.509177
ITEM: TIMESTEP
630
ITEM: NUMBER OF ATOMS
2
ITEM: BOX BOUNDS xy xz yz pp pp pp
-1.5188908690000000e+00 3.0377817390000001e+00 -1.5188908690000000e+00
0.0000000000000000e+00 2.6307961569999998e+00 -0.0000000000000000e+00
0.0000000000000000e+00 4.9132207169999997e+00 0.0000000000000000e+00
ITEM: ATOMS id type xs ys zs
1 1 0.357484 0.672113 -0.0064179
2 1 0.642515 0.327884 0.506418
ITEM: TIMESTEP
640
ITEM: NUMBER OF ATOMS
2
ITEM: BOX BOUNDS xy xz yz pp pp pp
-1.5188908690000000e+00 3.0377817390000001e+00 -1.5188908690000000e+00
0.0000000000000000e+00 2.6307961569999998e+00 -0.0000000000000000e+00
0.0000000000000000e+00 4.9132207169999997e+00 0.0000000000000000e+00
ITEM: ATOMS id type xs ys zs
1 1 0.398532 0.713403 0.00728832
2 1 0.601467 0.286594 0.492712
ITEM: TIMESTEP
650
ITEM: NUMBER OF ATOMS
2
ITEM: BOX BOUNDS xy xz yz pp pp pp
-1.5188908690000000e+00 3.0377817390000001e+00 -1.5188908690000000e+00
0.0000000000000000e+00 2.6307961569999998e+00 -0.0000000000000000e+00
0.0000000000000000e+00 4.9132207169999997e+00 0.0000000000000000e+00
ITEM: ATOMS id type xs ys zs
1 1 0.333357 0.648002 0.00867152
2 1 0.666641 0.351996 0.491328
ITEM: TIMESTEP
660
ITEM: NUMBER OF ATOMS
2
ITEM: BOX BOUNDS xy xz yz pp pp pp
-1.5188908690000000e+00 3.0377817390000001e+00 -1.5188908690000000e+00
0.0000000000000000e+00 2.6307961569999998e+00 -0.0000000000000000e+00
0.0000000000000000e+00 4.9132207169999997e+00 0.0000000000000000e+00
ITEM: ATOMS id type xs ys zs
1 1 0.286155 0.626822 -0.00507183
2 1 0.713844 0.373176 0.505072
ITEM: TIMESTEP
670
ITEM: NUMBER OF ATOMS
2
ITEM: BOX BOUNDS xy xz yz pp pp pp
-1.5188908690000000e+00 3.0377817390000001e+00 -1.5188908690000000e+00
0.0000000000000000e+00 2.6307961569999998e+00 -0.0000000000000000e+00
0.0000000000000000e+00 4.9132207169999997e+00 0.0000000000000000e+00
ITEM: ATOMS id type xs ys zs
1 1 0.376097 0.692649 -0.00982313
2 1 0.623901 0.307348 0.509823
ITEM: TIMESTEP
680
ITEM: NUMBER OF ATOMS
2
ITEM: BOX BOUNDS xy xz yz pp pp pp
-1.5188908690000000e+00 3.0377817390000001e+00 -1.5188908690000000e+00
0.0000000000000000e+00 2.6307961569999998e+00 -0.0000000000000000e+00
0.0000000000000000e+00 4.9132207169999997e+00 0.0000000000000000e+00
ITEM: ATOMS id type xs ys zs
1 1 0.400989 0.702004 0.00207103
2 1 0.59901 0.297993 0.497929
ITEM: TIMESTEP
690
ITEM: NUMBER OF ATOMS
2
ITEM: BOX BOUNDS xy xz yz pp pp pp
-1.5188908690000000e+00 3.0377817390000001e+00 -1.5188908690000000e+00
0.0000000000000000e+00 2.6307961569999998e+00 -0.0000000000000000e+00
0.0000000000000000e+00 4.9132207169999997e+00 0.0000000000000000e+00
ITEM: ATOMS id type xs ys zs
1 1 0.322922 0.650319 0.0106891
2 1 0.677077 0.349678 0.489311
ITEM: TIMESTEP
700
ITEM: NUMBER OF ATOMS
2
ITEM: BOX BOUNDS xy xz yz pp pp pp
-1.5188908690000000e+00 3.0377817390000001e+00 -1.5188908690000000e+00
0.0000000000000000e+00 2.6307961569999998e+00 -0.0000000000000000e+00
0.0000000000000000e+00 4.9132207169999997e+00 0.0000000000000000e+00
ITEM: ATOMS id type xs ys zs
1 1 0.294239 0.650461 0.000658554
2 1 0.705759 0.349537 0.499341
ITEM: TIMESTEP
710
ITEM: NUMBER OF ATOMS
2
ITEM: BOX BOUNDS xy xz yz pp pp pp
-1.5188908690000000e+00 3.0377817390000001e+00 -1.5188908690000000e+00
0.0000000000000000e+00 2.6307961569999998e+00 -0.0000000000000000e+00
0.0000000000000000e+00 4.9132207169999997e+00 0.0000000000000000e+00
ITEM: ATOMS id type xs ys zs
1 1 0.387038 0.701212 -0.0105081
2 1 0.61296 0.298786 0.510508
ITEM: TIMESTEP
720
ITEM: NUMBER OF ATOMS
2
ITEM: BOX BOUNDS xy xz yz pp pp pp
-1.5188908690000000e+00 3.0377817390000001e+00 -1.5188908690000000e+00
0.0000000000000000e+00 2.6307961569999998e+00 -0.0000000000000000e+00
0.0000000000000000e+00 4.9132207169999997e+00 0.0000000000000000e+00
ITEM: ATOMS id type xs ys zs
1 1 0.397301 0.689188 -0.00388679
2 1 0.602697 0.310809 0.503887
ITEM: TIMESTEP
730
ITEM: NUMBER OF ATOMS
2
ITEM: BOX BOUNDS xy xz yz pp pp pp
-1.5188908690000000e+00 3.0377817390000001e+00 -1.5188908690000000e+00
0.0000000000000000e+00 2.6307961569999998e+00 -0.0000000000000000e+00
0.0000000000000000e+00 4.9132207169999997e+00 0.0000000000000000e+00
ITEM: ATOMS id type xs ys zs
1 1 0.310817 0.663848 0.00949508
2 1 0.689181 0.336149 0.490505
ITEM: TIMESTEP
740
ITEM: NUMBER OF ATOMS
2
ITEM: BOX BOUNDS xy xz yz pp pp pp
-1.5188908690000000e+00 3.0377817390000001e+00 -1.5188908690000000e+00
0.0000000000000000e+00 2.6307961569999998e+00 -0.0000000000000000e+00
0.0000000000000000e+00 4.9132207169999997e+00 0.0000000000000000e+00
ITEM: ATOMS id type xs ys zs
1 1 0.302775 0.670654 0.00624522
2 1 0.697223 0.329344 0.493755
ITEM: TIMESTEP
750
ITEM: NUMBER OF ATOMS
2
ITEM: BOX BOUNDS xy xz yz pp pp pp
-1.5188908690000000e+00 3.0377817390000001e+00 -1.5188908690000000e+00
0.0000000000000000e+00 2.6307961569999998e+00 -0.0000000000000000e+00
0.0000000000000000e+00 4.9132207169999997e+00 0.0000000000000000e+00
ITEM: ATOMS id type xs ys zs
1 1 0.388636 0.692261 -0.00798294
2 1 0.611363 0.307737 0.507983
ITEM: TIMESTEP
760
ITEM: NUMBER OF ATOMS
2
ITEM: BOX BOUNDS xy xz yz pp pp pp
-1.5188908690000000e+00 3.0377817390000001e+00 -1.5188908690000000e+00
0.0000000000000000e+00 2.6307961569999998e+00 -0.0000000000000000e+00
0.0000000000000000e+00 4.9132207169999997e+00 0.0000000000000000e+00
ITEM: ATOMS id type xs ys zs
1 1 0.383294 0.684865 -0.00851508
2 1 0.616705 0.315133 0.508515
ITEM: TIMESTEP
770
ITEM: NUMBER OF ATOMS
2
ITEM: BOX BOUNDS xy xz yz pp pp pp
-1.5188908690000000e+00 3.0377817390000001e+00 -1.5188908690000000e+00
0.0000000000000000e+00 2.6307961569999998e+00 -0.0000000000000000e+00
0.0000000000000000e+00 4.9132207169999997e+00 0.0000000000000000e+00
ITEM: ATOMS id type xs ys zs
1 1 0.295783 0.669569 0.00562845
2 1 0.704216 0.330429 0.494371
ITEM: TIMESTEP
780
ITEM: NUMBER OF ATOMS
2
ITEM: BOX BOUNDS xy xz yz pp pp pp
-1.5188908690000000e+00 3.0377817390000001e+00 -1.5188908690000000e+00
0.0000000000000000e+00 2.6307961569999998e+00 -0.0000000000000000e+00
0.0000000000000000e+00 4.9132207169999997e+00 0.0000000000000000e+00
ITEM: ATOMS id type xs ys zs