 251 251   0   0
  0.1214592E+02  0.1450000E-08  0.1450000E-08  0.1450000E-08  0.2000000E-15
  1.000000000000000E-004
  CAR 
 NiAl                                    
     11.96816629    -11.05070993  301      6.77807276      1.00000000
    -11.051  0.0000E+00  0.0000E+00
    -10.974  0.0000E+00  0.0000E+00
    -10.897  0.0000E+00  0.0000E+00
    -10.821  0.0000E+00  0.0000E+00
    -10.744  0.0000E+00  0.0000E+00
    -10.667  0.0000E+00  0.0000E+00
    -10.590  0.0000E+00  0.0000E+00
    -10.514  0.0000E+00  0.0000E+00
    -10.437  0.0000E+00  0.0000E+00
    -10.360  0.0000E+00  0.0000E+00
    -10.283  0.9586E-15  0.7355E-16
    -10.207  0.3401E-08  0.2610E-09
    -10.130  0.1240E-03  0.9514E-05
    -10.053  0.5418E-01  0.4167E-02
     -9.976  0.4569E+00  0.3922E-01
     -9.900  0.1395E+00  0.4992E-01
     -9.823  0.1010E-02  0.5000E-01
     -9.746  0.9554E-07  0.5000E-01
     -9.670  0.9517E-13  0.5000E-01
     -9.593  0.0000E+00  0.5000E-01
     -9.516  0.0000E+00  0.5000E-01
     -9.439  0.0000E+00  0.5000E-01
     -9.363  0.0000E+00  0.5000E-01
     -9.286  0.0000E+00  0.5000E-01
     -9.209  0.0000E+00  0.5000E-01
     -9.132  0.0000E+00  0.5000E-01
     -9.056  0.0000E+00  0.5000E-01
     -8.979  0.0000E+00  0.5000E-01
     -8.902  0.0000E+00  0.5000E-01
     -8.826  0.0000E+00  0.5000E-01
     -8.749  0.0000E+00  0.5000E-01
     -8.672  0.0000E+00  0.5000E-01
     -8.595  0.0000E+00  0.5000E-01
     -8.519  0.0000E+00  0.5000E-01
     -8.442  0.0000E+00  0.5000E-01
     -8.365  0.0000E+00  0.5000E-01
     -8.288  0.0000E+00  0.5000E-01
     -8.212  0.0000E+00  0.5000E-01
     -8.135  0.0000E+00  0.5000E-01
     -8.058  0.0000E+00  0.5000E-01
     -7.982  0.0000E+00  0.5000E-01
     -7.905  0.0000E+00  0.5000E-01
     -7.828  0.0000E+00  0.5000E-01
     -7.751  0.0000E+00  0.5000E-01
     -7.675  0.0000E+00  0.5000E-01
     -7.598  0.0000E+00  0.5000E-01
     -7.521  0.0000E+00  0.5000E-01
     -7.444  0.0000E+00  0.5000E-01
     -7.368  0.0000E+00  0.5000E-01
     -7.291  0.0000E+00  0.5000E-01
     -7.214  0.0000E+00  0.5000E-01
     -7.138  0.0000E+00  0.5000E-01
     -7.061  0.0000E+00  0.5000E-01
     -6.984  0.0000E+00  0.5000E-01
     -6.907  0.0000E+00  0.5000E-01
     -6.831  0.0000E+00  0.5000E-01
     -6.754  0.0000E+00  0.5000E-01
     -6.677  0.0000E+00  0.5000E-01
     -6.600  0.0000E+00  0.5000E-01
     -6.524  0.0000E+00  0.5000E-01
     -6.447  0.0000E+00  0.5000E-01
     -6.370  0.0000E+00  0.5000E-01
     -6.293  0.0000E+00  0.5000E-01
     -6.217  0.0000E+00  0.5000E-01
     -6.140  0.0000E+00  0.5000E-01
     -6.063  0.0000E+00  0.5000E-01
     -5.987  0.0000E+00  0.5000E-01
     -5.910  0.0000E+00  0.5000E-01
     -5.833  0.0000E+00  0.5000E-01
     -5.756  0.0000E+00  0.5000E-01
     -5.680  0.0000E+00  0.5000E-01
     -5.603  0.0000E+00  0.5000E-01
     -5.526  0.0000E+00  0.5000E-01
     -5.449  0.0000E+00  0.5000E-01
     -5.373  0.0000E+00  0.5000E-01
     -5.296  0.0000E+00  0.5000E-01
     -5.219  0.0000E+00  0.5000E-01
     -5.143  0.0000E+00  0.5000E-01
     -5.066  0.0000E+00  0.5000E-01
     -4.989  0.0000E+00  0.5000E-01
     -4.912  0.0000E+00  0.5000E-01
     -4.836  0.0000E+00  0.5000E-01
     -4.759  0.0000E+00  0.5000E-01
     -4.682  0.0000E+00  0.5000E-01
     -4.605  0.0000E+00  0.5000E-01
     -4.529  0.0000E+00  0.5000E-01
     -4.452  0.5390E-14  0.5000E-01
     -4.375  0.6773E-08  0.5000E-01
     -4.299  0.8915E-04  0.5001E-01
     -4.222  0.1505E-01  0.5116E-01
     -4.145  0.5840E-01  0.5564E-01
     -4.068  0.5733E-01  0.6004E-01
     -3.992  0.2790E+00  0.8145E-01
     -3.915  0.1934E+00  0.9628E-01
     -3.838  0.4882E+00  0.1337E+00
     -3.761  0.3407E+00  0.1599E+00
     -3.685  0.3587E+00  0.1874E+00
     -3.608  0.3140E+00  0.2115E+00
     -3.531  0.9769E-01  0.2190E+00
     -3.454  0.3455E+00  0.2455E+00
     -3.378  0.2192E+00  0.2623E+00
     -3.301  0.1189E+01  0.3536E+00
     -3.224  0.4839E+00  0.3907E+00
     -3.148  0.1005E+01  0.4678E+00
     -3.071  0.8818E+00  0.5355E+00
     -2.994  0.1015E+00  0.5433E+00
     -2.917  0.1584E+00  0.5554E+00
     -2.841  0.1590E+00  0.5676E+00
     -2.764  0.6069E+00  0.6142E+00
     -2.687  0.3165E+00  0.6385E+00
     -2.610  0.1374E+01  0.7439E+00
     -2.534  0.7783E+00  0.8036E+00
     -2.457  0.8300E+00  0.8673E+00
     -2.380  0.1120E+01  0.9532E+00
     -2.304  0.6227E+00  0.1001E+01
     -2.227  0.1306E+01  0.1101E+01
     -2.150  0.3338E+00  0.1127E+01
     -2.073  0.4059E+00  0.1158E+01
     -1.997  0.3323E+00  0.1183E+01
     -1.920  0.1309E+01  0.1284E+01
     -1.843  0.7937E+00  0.1345E+01
     -1.766  0.1986E+01  0.1497E+01
     -1.690  0.1310E+01  0.1598E+01
     -1.613  0.3435E-01  0.1600E+01
     -1.536  0.2311E+00  0.1618E+01
     -1.460  0.5590E+00  0.1661E+01
     -1.383  0.4164E+00  0.1693E+01
     -1.306  0.1077E+01  0.1776E+01
     -1.229  0.2341E+01  0.1955E+01
     -1.153  0.9516E+00  0.2028E+01
     -1.076  0.1570E+01  0.2149E+01
     -0.999  0.8603E+00  0.2215E+01
     -0.922  0.1468E+01  0.2327E+01
     -0.846  0.6096E+00  0.2374E+01
     -0.769  0.1483E+01  0.2488E+01
     -0.692  0.9954E+00  0.2564E+01
     -0.615  0.2241E+01  0.2736E+01
     -0.539  0.1167E+01  0.2826E+01
     -0.462  0.1050E+01  0.2906E+01
     -0.385  0.4668E+00  0.2942E+01
     -0.309  0.7099E+00  0.2997E+01
     -0.232  0.6972E+00  0.3050E+01
     -0.155  0.1407E+01  0.3158E+01
     -0.078  0.9075E+00  0.3228E+01
     -0.002  0.1046E+01  0.3308E+01
      0.075  0.2413E+01  0.3493E+01
      0.152  0.2541E+01  0.3688E+01
      0.229  0.1393E+01  0.3795E+01
      0.305  0.1128E+01  0.3881E+01
      0.382  0.1128E+01  0.3968E+01
      0.459  0.2332E+01  0.4147E+01
      0.535  0.3351E+01  0.4404E+01
      0.612  0.7161E+00  0.4459E+01
      0.689  0.9037E+00  0.4528E+01
      0.766  0.9833E+00  0.4604E+01
      0.842  0.1754E+01  0.4738E+01
      0.919  0.2241E+01  0.4910E+01
      0.996  0.3112E+01  0.5149E+01
      1.073  0.1873E+01  0.5293E+01
      1.149  0.1301E+01  0.5393E+01
      1.226  0.1495E+01  0.5507E+01
      1.303  0.2545E+01  0.5703E+01
      1.379  0.1471E+01  0.5816E+01
      1.456  0.1664E+01  0.5943E+01
      1.533  0.1294E+01  0.6042E+01
      1.610  0.9519E+00  0.6116E+01
      1.686  0.3304E+01  0.6369E+01
      1.763  0.4350E+01  0.6703E+01
      1.840  0.2905E+01  0.6926E+01
      1.917  0.1109E+01  0.7011E+01
      1.993  0.1041E+01  0.7091E+01
      2.070  0.2134E+01  0.7254E+01
      2.147  0.3512E+01  0.7524E+01
      2.224  0.3058E+01  0.7759E+01
      2.300  0.1292E+01  0.7858E+01
      2.377  0.9317E+00  0.7929E+01
      2.454  0.1912E+01  0.8076E+01
      2.530  0.2295E+01  0.8252E+01
      2.607  0.2850E+01  0.8471E+01
      2.684  0.3050E+01  0.8705E+01
      2.761  0.2143E+01  0.8869E+01
      2.837  0.4549E+01  0.9218E+01
      2.914  0.7591E+01  0.9801E+01
      2.991  0.6232E+01  0.1028E+02
      3.068  0.5123E+01  0.1067E+02
      3.144  0.6941E+01  0.1120E+02
      3.221  0.5025E+01  0.1159E+02
      3.298  0.3758E+01  0.1188E+02
      3.374  0.4951E+01  0.1226E+02
      3.451  0.5629E+01  0.1269E+02
      3.528  0.4781E+01  0.1306E+02
      3.605  0.5666E+01  0.1349E+02
      3.681  0.1111E+02  0.1434E+02
      3.758  0.1119E+02  0.1520E+02
      3.835  0.8536E+01  0.1586E+02
      3.912  0.1134E+02  0.1673E+02
      3.988  0.8914E+01  0.1741E+02
      4.065  0.6273E+01  0.1789E+02
      4.142  0.8051E+01  0.1851E+02
      4.218  0.6191E+01  0.1899E+02
      4.295  0.6499E+01  0.1948E+02
      4.372  0.8598E+01  0.2014E+02
      4.449  0.1270E+02  0.2112E+02
      4.525  0.1525E+02  0.2229E+02
      4.602  0.1333E+02  0.2331E+02
      4.679  0.1243E+02  0.2427E+02
      4.756  0.1901E+02  0.2572E+02
      4.832  0.2864E+02  0.2792E+02
      4.909  0.2646E+02  0.2995E+02
      4.986  0.1974E+02  0.3147E+02
      5.063  0.1515E+02  0.3263E+02
      5.139  0.1301E+02  0.3363E+02
      5.216  0.1462E+02  0.3475E+02
      5.293  0.1136E+02  0.3562E+02
      5.369  0.5684E+01  0.3606E+02
      5.446  0.3825E+01  0.3635E+02
      5.523  0.2870E+01  0.3657E+02
      5.600  0.2336E+01  0.3675E+02
      5.676  0.1377E+01  0.3686E+02
      5.753  0.1980E+01  0.3701E+02
      5.830  0.2501E+01  0.3720E+02
      5.907  0.1956E+01  0.3735E+02
      5.983  0.2249E+01  0.3752E+02
      6.060  0.3404E+01  0.3778E+02
      6.137  0.7599E+01  0.3837E+02
      6.213  0.4896E+01  0.3874E+02
      6.290  0.4170E+01  0.3906E+02
      6.367  0.5669E+01  0.3950E+02
      6.444  0.4642E+01  0.3985E+02
      6.520  0.4072E+01  0.4017E+02
      6.597  0.2710E+01  0.4037E+02
      6.674  0.2404E+01  0.4056E+02
      6.751  0.1741E+01  0.4069E+02
      6.827  0.2519E+01  0.4089E+02
      6.904  0.2128E+01  0.4105E+02
      6.981  0.1382E+01  0.4115E+02
      7.057  0.2149E+01  0.4132E+02
      7.134  0.2043E+01  0.4148E+02
      7.211  0.2114E+01  0.4164E+02
      7.288  0.2306E+01  0.4182E+02
      7.364  0.3123E+01  0.4205E+02
      7.441  0.3323E+01  0.4231E+02
      7.518  0.9395E+00  0.4238E+02
      7.595  0.1382E+01  0.4249E+02
      7.671  0.1240E+01  0.4258E+02
      7.748  0.1035E+01  0.4266E+02
      7.825  0.1291E+01  0.4276E+02
      7.901  0.9449E+00  0.4283E+02
      7.978  0.1046E+01  0.4291E+02
      8.055  0.6263E+00  0.4296E+02
      8.132  0.6072E+00  0.4301E+02
      8.208  0.2602E+00  0.4303E+02
      8.285  0.6052E+00  0.4308E+02
      8.362  0.4498E+00  0.4311E+02
      8.439  0.4160E+00  0.4314E+02
      8.515  0.8589E+00  0.4321E+02
      8.592  0.1102E+01  0.4329E+02
      8.669  0.2368E+01  0.4347E+02
      8.746  0.3269E+01  0.4372E+02
      8.822  0.4552E+01  0.4407E+02
      8.899  0.2860E+01  0.4429E+02
      8.976  0.2596E+01  0.4449E+02
      9.052  0.1673E+01  0.4462E+02
      9.129  0.2908E+01  0.4484E+02
      9.206  0.2500E+01  0.4504E+02
      9.283  0.2231E+01  0.4521E+02
      9.359  0.1416E+01  0.4532E+02
      9.436  0.1545E+01  0.4543E+02
      9.513  0.2311E+01  0.4561E+02
      9.590  0.4848E+01  0.4598E+02
      9.666  0.3773E+01  0.4627E+02
      9.743  0.1497E+01  0.4639E+02
      9.820  0.2747E+01  0.4660E+02
      9.896  0.4611E+01  0.4695E+02
      9.973  0.2285E+01  0.4713E+02
     10.050  0.7259E+00  0.4718E+02
     10.127  0.1052E+01  0.4726E+02
     10.203  0.2655E+01  0.4747E+02
     10.280  0.3398E+01  0.4773E+02
     10.357  0.2883E+01  0.4795E+02
     10.434  0.1236E+01  0.4804E+02
     10.510  0.1518E+01  0.4816E+02
     10.587  0.2285E+01  0.4834E+02
     10.664  0.2256E+01  0.4851E+02
     10.740  0.2415E+01  0.4869E+02
     10.817  0.1227E+01  0.4879E+02
     10.894  0.7022E+00  0.4884E+02
     10.971  0.6955E+00  0.4890E+02
     11.047  0.4740E-01  0.4890E+02
     11.124  0.7054E-04  0.4890E+02
     11.201  0.1406E-08  0.4890E+02
     11.278  0.3075E-15  0.4890E+02
     11.354  0.0000E+00  0.4890E+02
     11.431  0.0000E+00  0.4890E+02
     11.508  0.0000E+00  0.4890E+02
     11.585  0.0000E+00  0.4890E+02
     11.661  0.0000E+00  0.4890E+02
     11.738  0.0000E+00  0.4890E+02
     11.815  0.0000E+00  0.4890E+02
     11.891  0.0000E+00  0.4890E+02
     11.968  0.0000E+00  0.4890E+02
