         259
 Energy:  -1309.7699419999999     
 X   0.00000000       0.00000000       0.00000000    
 X   14.5000000       0.00000000       0.00000000    
 X   0.00000000       14.5000000       0.00000000    
 X   0.00000000       0.00000000       14.5000000    
 X   14.5000000       14.5000000       0.00000000    
 X   14.5000000       0.00000000       14.5000000    
 X   0.00000000       14.5000000       14.5000000    
 X   14.5000000       14.5000000       14.5000000    
 Ni   0.00000000       0.00000000       0.00000000    
 Ni   0.00000000       0.00000000       2.90000010    
 Ni   0.00000000       0.00000000       5.80000019    
 Ni   0.00000000       0.00000000       8.69999981    
 Ni   0.00000000       0.00000000       11.6000004    
 Ni   0.00000000       2.90000010       0.00000000    
 Ni   0.00000000       2.90000010       2.90000010    
 Ni   0.00000000       2.90000010       5.80000019    
 Ni   0.00000000       2.90000010       8.69999981    
 Ni   0.00000000       2.90000010       11.6000004    
 Ni   0.00000000       5.80000019       0.00000000    
 Ni   0.00000000       5.80000019       2.90000010    
 Ni   0.00000000       5.80000019       5.80000019    
 Ni   0.00000000       5.80000019       8.69999981    
 Ni   0.00000000       5.80000019       11.6000004    
 Ni   0.00000000       8.69999981       0.00000000    
 Ni   0.00000000       8.69999981       2.90000010    
 Ni   0.00000000       8.69999981       5.80000019    
 Ni   0.00000000       8.69999981       8.69999981    
 Ni   0.00000000       8.69999981       11.6000004    
 Ni   0.00000000       11.6000004       0.00000000    
 Ni   0.00000000       11.6000004       2.90000010    
 Ni   0.00000000       11.6000004       5.80000019    
 Ni   0.00000000       11.6000004       8.69999981    
 Ni   0.00000000       11.6000004       11.6000004    
 Ni   2.90000010       0.00000000       0.00000000    
 Ni   2.90000010       0.00000000       2.90000010    
 Ni   2.90000010       0.00000000       5.80000019    
 Ni   2.90000010       0.00000000       8.69999981    
 Ni   2.90000010       0.00000000       11.6000004    
 Ni   2.90000010       2.90000010       0.00000000    
 Ni   2.90000010       2.90000010       2.90000010    
 Ni   2.90000010       2.90000010       5.80000019    
 Ni   2.90000010       2.90000010       8.69999981    
 Ni   2.90000010       2.90000010       11.6000004    
 Ni   2.90000010       5.80000019       0.00000000    
 Ni   2.90000010       5.80000019       2.90000010    
 Ni   2.90000010       5.80000019       5.80000019    
 Ni   2.90000010       5.80000019       8.69999981    
 Ni   2.90000010       5.80000019       11.6000004    
 Ni   2.90000010       8.69999981       0.00000000    
 Ni   2.90000010       8.69999981       2.90000010    
 Ni   2.90000010       8.69999981       5.80000019    
 Ni   2.90000010       8.69999981       8.69999981    
 Ni   2.90000010       8.69999981       11.6000004    
 Ni   2.90000010       11.6000004       0.00000000    
 Ni   2.90000010       11.6000004       2.90000010    
 Ni   2.90000010       11.6000004       5.80000019    
 Ni   2.90000010       11.6000004       8.69999981    
 Ni   2.90000010       11.6000004       11.6000004    
 Ni   5.80000019       0.00000000       0.00000000    
 Ni   5.80000019       0.00000000       2.90000010    
 Ni   5.80000019       0.00000000       5.80000019    
 Ni   5.80000019       0.00000000       8.69999981    
 Ni   5.80000019       0.00000000       11.6000004    
 Ni   5.80000019       2.90000010       0.00000000    
 Ni   5.80000019       2.90000010       2.90000010    
 Ni   5.80000019       2.90000010       5.80000019    
 Ni   5.80000019       2.90000010       8.69999981    
 Ni   5.80000019       2.90000010       11.6000004    
 Ni   5.80000019       5.80000019       0.00000000    
 Ni   5.80000019       5.80000019       2.90000010    
 Ni   5.80000019       5.80000019       5.80000019    
 Ni   5.80000019       5.80000019       8.69999981    
 Ni   5.80000019       5.80000019       11.6000004    
 Ni   5.80000019       8.69999981       0.00000000    
 Ni   5.80000019       8.69999981       2.90000010    
 Ni   5.80000019       8.69999981       5.80000019    
 Ni   5.80000019       8.69999981       8.69999981    
 Ni   5.80000019       8.69999981       11.6000004    
 Ni   5.80000019       11.6000004       0.00000000    
 Ni   5.80000019       11.6000004       2.90000010    
 Ni   5.80000019       11.6000004       5.80000019    
 Ni   5.80000019       11.6000004       8.69999981    
 Ni   5.80000019       11.6000004       11.6000004    
 Ni   8.69999981       0.00000000       0.00000000    
 Ni   8.69999981       0.00000000       2.90000010    
 Ni   8.69999981       0.00000000       5.80000019    
 Ni   8.69999981       0.00000000       8.69999981    
 Ni   8.69999981       0.00000000       11.6000004    
 Ni   8.69999981       2.90000010       0.00000000    
 Ni   8.69999981       2.90000010       2.90000010    
 Ni   8.69999981       2.90000010       5.80000019    
 Ni   8.69999981       2.90000010       8.69999981    
 Ni   8.69999981       2.90000010       11.6000004    
 Ni   8.69999981       5.80000019       0.00000000    
 Ni   8.69999981       5.80000019       2.90000010    
 Ni   8.69999981       5.80000019       5.80000019    
 Ni   8.69999981       5.80000019       8.69999981    
 Ni   8.69999981       5.80000019       11.6000004    
 Ni   8.69999981       8.69999981       0.00000000    
 Ni   8.69999981       8.69999981       2.90000010    
 Ni   8.69999981       8.69999981       5.80000019    
 Ni   8.69999981       8.69999981       8.69999981    
 Ni   8.69999981       8.69999981       11.6000004    
 Ni   8.69999981       11.6000004       0.00000000    
 Ni   8.69999981       11.6000004       2.90000010    
 Ni   8.69999981       11.6000004       5.80000019    
 Ni   8.69999981       11.6000004       8.69999981    
 Ni   8.69999981       11.6000004       11.6000004    
 Ni   11.6000004       0.00000000       0.00000000    
 Ni   11.6000004       0.00000000       2.90000010    
 Ni   11.6000004       0.00000000       5.80000019    
 Ni   11.6000004       0.00000000       8.69999981    
 Ni   11.6000004       0.00000000       11.6000004    
 Ni   11.6000004       2.90000010       0.00000000    
 Ni   11.6000004       2.90000010       2.90000010    
 Ni   11.6000004       2.90000010       5.80000019    
 Ni   11.6000004       2.90000010       8.69999981    
 Ni   11.6000004       2.90000010       11.6000004    
 Ni   11.6000004       5.80000019       0.00000000    
 Ni   11.6000004       5.80000019       2.90000010    
 Ni   11.6000004       5.80000019       5.80000019    
 Ni   11.6000004       5.80000019       8.69999981    
 Ni   11.6000004       5.80000019       11.6000004    
 Ni   11.6000004       8.69999981       0.00000000    
 Ni   11.6000004       8.69999981       2.90000010    
 Ni   11.6000004       8.69999981       5.80000019    
 Ni   11.6000004       8.69999981       8.69999981    
 Ni   11.6000004       8.69999981       11.6000004    
 Ni   11.6000004       11.6000004       0.00000000    
 Ni   11.6000004       11.6000004       2.90000010    
 Ni   11.6000004       11.6000004       5.80000019    
 Ni   11.6000004       11.6000004       8.69999981    
 Ni   11.6000004       11.6000004       11.6000004    
 Al   1.45000005       1.45000005       1.45000005    
 Al   1.45000005       1.45000005       4.34999990    
 Al   1.45000005       1.45000005       7.25000000    
 Al   1.45000005       1.45000005       10.1499996    
 Al   1.45000005       1.45000005       13.0500002    
 Al   1.45000005       4.34999990       1.45000005    
 Al   1.45000005       4.34999990       4.34999990    
 Al   1.45000005       4.34999990       7.25000000    
 Al   1.45000005       4.34999990       10.1499996    
 Al   1.45000005       4.34999990       13.0500002    
 Al   1.45000005       7.25000000       1.45000005    
 Al   1.45000005       7.25000000       4.34999990    
 Al   1.45000005       7.25000000       7.25000000    
 Al   1.45000005       7.25000000       10.1499996    
 Al   1.45000005       7.25000000       13.0500002    
 Al   1.45000005       10.1499996       1.45000005    
 Al   1.45000005       10.1499996       4.34999990    
 Al   1.45000005       10.1499996       7.25000000    
 Al   1.45000005       10.1499996       10.1499996    
 Al   1.45000005       10.1499996       13.0500002    
 Al   1.45000005       13.0500002       1.45000005    
 Al   1.45000005       13.0500002       4.34999990    
 Al   1.45000005       13.0500002       7.25000000    
 Al   1.45000005       13.0500002       10.1499996    
 Al   1.45000005       13.0500002       13.0500002    
 Al   4.34999990       1.45000005       1.45000005    
 Al   4.34999990       1.45000005       4.34999990    
 Al   4.34999990       1.45000005       7.25000000    
 Al   4.34999990       1.45000005       10.1499996    
 Al   4.34999990       1.45000005       13.0500002    
 Al   4.34999990       4.34999990       1.45000005    
 Al   4.34999990       4.34999990       4.34999990    
 Al   4.34999990       4.34999990       7.25000000    
 Al   4.34999990       4.34999990       10.1499996    
 Al   4.34999990       4.34999990       13.0500002    
 Al   4.34999990       7.25000000       1.45000005    
 Al   4.34999990       7.25000000       4.34999990    
 Al   4.34999990       7.25000000       7.25000000    
 Al   4.34999990       7.25000000       10.1499996    
 Al   4.34999990       7.25000000       13.0500002    
 Al   4.34999990       10.1499996       1.45000005    
 Al   4.34999990       10.1499996       4.34999990    
 Al   4.34999990       10.1499996       7.25000000    
 Al   4.34999990       10.1499996       10.1499996    
 Al   4.34999990       10.1499996       13.0500002    
 Al   4.34999990       13.0500002       1.45000005    
 Al   4.34999990       13.0500002       4.34999990    
 Al   4.34999990       13.0500002       7.25000000    
 Al   4.34999990       13.0500002       10.1499996    
 Al   4.34999990       13.0500002       13.0500002    
 Al   7.25000000       1.45000005       1.45000005    
 Al   7.25000000       1.45000005       4.34999990    
 Al   7.25000000       1.45000005       7.25000000    
 Al   7.25000000       1.45000005       10.1499996    
 Al   7.25000000       1.45000005       13.0500002    
 Al   7.25000000       4.34999990       1.45000005    
 Al   7.25000000       4.34999990       4.34999990    
 Al   7.25000000       4.34999990       7.25000000    
 Al   7.25000000       4.34999990       10.1499996    
 Al   7.25000000       4.34999990       13.0500002    
 Al   7.25000000       7.25000000       1.45000005    
 Al   7.25000000       7.25000000       4.34999990    
 Al   7.25000000       7.25000000       7.25000000    
 Al   7.25000000       7.25000000       10.1499996    
 Al   7.25000000       7.25000000       13.0500002    
 Al   7.25000000       10.1499996       1.45000005    
 Al   7.25000000       10.1499996       4.34999990    
 Al   7.25000000       10.1499996       7.25000000    
 Al   7.25000000       10.1499996       10.1499996    
 Al   7.25000000       10.1499996       13.0500002    
 Al   7.25000000       13.0500002       1.45000005    
 Al   7.25000000       13.0500002       4.34999990    
 Al   7.25000000       13.0500002       7.25000000    
 Al   7.25000000       13.0500002       10.1499996    
 Al   7.25000000       13.0500002       13.0500002    
 Al   10.1499996       1.45000005       1.45000005    
 Al   10.1499996       1.45000005       4.34999990    
 Al   10.1499996       1.45000005       7.25000000    
 Al   10.1499996       1.45000005       10.1499996    
 Al   10.1499996       1.45000005       13.0500002    
 Al   10.1499996       4.34999990       1.45000005    
 Al   10.1499996       4.34999990       4.34999990    
 Al   10.1499996       4.34999990       7.25000000    
 Al   10.1499996       4.34999990       10.1499996    
 Al   10.1499996       4.34999990       13.0500002    
 Al   10.1499996       7.25000000       1.45000005    
 Al   10.1499996       7.25000000       4.34999990    
 Al   10.1499996       7.25000000       7.25000000    
 Al   10.1499996       7.25000000       10.1499996    
 Al   10.1499996       7.25000000       13.0500002    
 Al   10.1499996       10.1499996       1.45000005    
 Al   10.1499996       10.1499996       4.34999990    
 Al   10.1499996       10.1499996       7.25000000    
 Al   10.1499996       10.1499996       10.1499996    
 Al   10.1499996       10.1499996       13.0500002    
 Al   10.1499996       13.0500002       1.45000005    
 Al   10.1499996       13.0500002       4.34999990    
 Al   10.1499996       13.0500002       7.25000000    
 Al   10.1499996       13.0500002       10.1499996    
 Al   10.1499996       13.0500002       13.0500002    
 Al   13.0500002       1.45000005       1.45000005    
 Al   13.0500002       1.45000005       4.34999990    
 Al   13.0500002       1.45000005       7.25000000    
 Al   13.0500002       1.45000005       10.1499996    
 Al   13.0500002       1.45000005       13.0500002    
 Al   13.0500002       4.34999990       1.45000005    
 Al   13.0500002       4.34999990       4.34999990    
 Al   13.0500002       4.34999990       7.25000000    
 Al   13.0500002       4.34999990       10.1499996    
 Al   13.0500002       4.34999990       13.0500002    
 Al   13.0500002       7.25000000       1.45000005    
 Al   13.0500002       7.25000000       4.34999990    
 Al   13.0500002       7.25000000       7.25000000    
 Al   13.0500002       7.25000000       10.1499996    
 Al   13.0500002       7.25000000       13.0500002    
 Al   13.0500002       10.1499996       1.45000005    
 Al   13.0500002       10.1499996       4.34999990    
 Al   13.0500002       10.1499996       7.25000000    
 Al   13.0500002       10.1499996       10.1499996    
 Al   13.0500002       10.1499996       13.0500002    
 Al   13.0500002       13.0500002       1.45000005    
 Al   13.0500002       13.0500002       4.34999990    
 Al   13.0500002       13.0500002       7.25000000    
 Al   13.0500002       13.0500002       10.1499996    
 Al   13.0500002       13.0500002       13.0500002    
 N    5.80000019       2.90000010       13.0500002    
         259
 Energy:  -1314.6529399999999     
 X   0.00000000       0.00000000       0.00000000    
 X   14.5000000       0.00000000       0.00000000    
 X   0.00000000       14.5000000       0.00000000    
 X   0.00000000       0.00000000       14.5000000    
 X   14.5000000       14.5000000       0.00000000    
 X   14.5000000       0.00000000       14.5000000    
 X   0.00000000       14.5000000       14.5000000    
 X   14.5000000       14.5000000       14.5000000    
 Ni   4.10000008E-04   1.10000001E-04  -2.99999992E-05
 Ni  -7.99999980E-05  -9.99999975E-06   2.89980006    
 Ni  -7.00000019E-05   3.99999990E-05   5.80000019    
 Ni  -7.99999980E-05  -9.99999975E-06   8.70020008    
 Ni   4.10000008E-04   1.10000001E-04   11.6000299    
 Ni  -2.33999989E-03   2.90000010      -3.19999992E-04
 Ni  -2.99999992E-05   2.90000010       2.89999008    
 Ni   1.69999999E-04   2.90000010       5.80000019    
 Ni  -2.99999992E-05   2.90000010       8.70001030    
 Ni  -2.33999989E-03   2.90000010       11.6003199    
 Ni   4.10000008E-04   5.79989004      -2.99999992E-05
 Ni  -7.99999980E-05   5.80001020       2.89980006    
 Ni  -7.00000019E-05   5.79996014       5.80000019    
 Ni  -7.99999980E-05   5.80001020       8.70020008    
 Ni   4.10000008E-04   5.79989004       11.6000299    
 Ni   1.10000001E-04   8.69989014      -9.00000014E-05
 Ni   1.59999996E-04   8.69983959       2.90002990    
 Ni   1.10000001E-04   8.69989014       5.80000019    
 Ni   1.59999996E-04   8.69983959       8.69997025    
 Ni   1.10000001E-04   8.69989014       11.6000900    
 Ni   1.10000001E-04   11.6001101      -9.00000014E-05
 Ni   1.59999996E-04   11.6001596       2.90002990    
 Ni   1.10000001E-04   11.6001101       5.80000019    
 Ni   1.59999996E-04   11.6001596       8.69997025    
 Ni   1.10000001E-04   11.6001101       11.6000900    
 Ni   2.90164995       1.64999999E-03   5.69999975E-04
 Ni   2.89986992      -1.30000000E-04   2.89987993    
 Ni   2.89995003      -4.99999987E-05   5.80000019    
 Ni   2.89986992      -1.30000000E-04   8.70011997    
 Ni   2.90164995       1.64999999E-03   11.5994301    
 Ni   2.89648008       2.90000010      -9.99999975E-05
 Ni   2.90024996       2.90000010       2.89836001    
 Ni   2.89979005       2.90000010       5.80000019    
 Ni   2.90024996       2.90000010       8.70164013    
 Ni   2.89648008       2.90000010       11.6000996    
 Ni   2.90164995       5.79834986       5.69999975E-04
 Ni   2.89986992       5.80012989       2.89987993    
 Ni   2.89995003       5.80004978       5.80000019    
 Ni   2.89986992       5.80012989       8.70011997    
 Ni   2.90164995       5.79834986       11.5994301    
 Ni   2.90011001       8.69958973      -2.99999992E-05
 Ni   2.89999008       8.70007992       2.89980006    
 Ni   2.90003991       8.70007038       5.80000019    
 Ni   2.89999008       8.70007992       8.70020008    
 Ni   2.90011001       8.69958973       11.6000299    
 Ni   2.90011001       11.6004105      -2.99999992E-05
 Ni   2.89999008       11.5999203       2.89980006    
 Ni   2.90003991       11.5999298       5.80000019    
 Ni   2.89999008       11.5999203       8.70020008    
 Ni   2.90011001       11.6004105       11.6000299    
 Ni   5.80000019      -3.52000003E-03  -9.99999975E-05
 Ni   5.80000019       2.50000012E-04   2.89836001    
 Ni   5.80000019      -2.09999998E-04   5.80000019    
 Ni   5.80000019       2.50000012E-04   8.70164013    
 Ni   5.80000019      -3.52000003E-03   11.6000996    
 Ni   5.80000019       2.90000010      0.336210012    
 Ni   5.80000019       2.90000010       2.89222002    
 Ni   5.80000019       2.90000010       5.80000019    
 Ni   5.80000019       2.90000010       8.70777988    
 Ni   5.80000019       2.90000010       11.2637901    
 Ni   5.80000019       5.80352020      -9.99999975E-05
 Ni   5.80000019       5.79974985       2.89836001    
 Ni   5.80000019       5.80021000       5.80000019    
 Ni   5.80000019       5.79974985       8.70164013    
 Ni   5.80000019       5.80352020       11.6000996    
 Ni   5.80000019       8.70234013      -3.19999992E-04
 Ni   5.80000019       8.70003033       2.89999008    
 Ni   5.80000019       8.69983006       5.80000019    
 Ni   5.80000019       8.70003033       8.70001030    
 Ni   5.80000019       8.70234013       11.6003199    
 Ni   5.80000019       11.5976601      -3.19999992E-04
 Ni   5.80000019       11.5999699       2.89999008    
 Ni   5.80000019       11.6001701       5.80000019    
 Ni   5.80000019       11.5999699       8.70001030    
 Ni   5.80000019       11.5976601       11.6003199    
 Ni   8.69834995       1.64999999E-03   5.69999975E-04
 Ni   8.70013046      -1.30000000E-04   2.89987993    
 Ni   8.70005035      -4.99999987E-05   5.80000019    
 Ni   8.70013046      -1.30000000E-04   8.70011997    
 Ni   8.69834995       1.64999999E-03   11.5994301    
 Ni   8.70351982       2.90000010      -9.99999975E-05
 Ni   8.69974995       2.90000010       2.89836001    
 Ni   8.70020962       2.90000010       5.80000019    
 Ni   8.69974995       2.90000010       8.70164013    
 Ni   8.70351982       2.90000010       11.6000996    
 Ni   8.69834995       5.79834986       5.69999975E-04
 Ni   8.70013046       5.80012989       2.89987993    
 Ni   8.70005035       5.80004978       5.80000019    
 Ni   8.70013046       5.80012989       8.70011997    
 Ni   8.69834995       5.79834986       11.5994301    
 Ni   8.69989014       8.69958973      -2.99999992E-05
 Ni   8.70001030       8.70007992       2.89980006    
 Ni   8.69995975       8.70007038       5.80000019    
 Ni   8.70001030       8.70007992       8.70020008    
 Ni   8.69989014       8.69958973       11.6000299    
 Ni   8.69989014       11.6004105      -2.99999992E-05
 Ni   8.70001030       11.5999203       2.89980006    
 Ni   8.69995975       11.5999298       5.80000019    
 Ni   8.70001030       11.5999203       8.70020008    
 Ni   8.69989014       11.6004105       11.6000299    
 Ni   11.5995903       1.10000001E-04  -2.99999992E-05
 Ni   11.6000795      -9.99999975E-06   2.89980006    
 Ni   11.6000700       3.99999990E-05   5.80000019    
 Ni   11.6000795      -9.99999975E-06   8.70020008    
 Ni   11.5995903       1.10000001E-04   11.6000299    
 Ni   11.6023397       2.90000010      -3.19999992E-04
 Ni   11.6000299       2.90000010       2.89999008    
 Ni   11.5998297       2.90000010       5.80000019    
 Ni   11.6000299       2.90000010       8.70001030    
 Ni   11.6023397       2.90000010       11.6003199    
 Ni   11.5995903       5.79989004      -2.99999992E-05
 Ni   11.6000795       5.80001020       2.89980006    
 Ni   11.6000700       5.79996014       5.80000019    
 Ni   11.6000795       5.80001020       8.70020008    
 Ni   11.5995903       5.79989004       11.6000299    
 Ni   11.5998898       8.69989014      -9.00000014E-05
 Ni   11.5998402       8.69983959       2.90002990    
 Ni   11.5998898       8.69989014       5.80000019    
 Ni   11.5998402       8.69983959       8.69997025    
 Ni   11.5998898       8.69989014       11.6000900    
 Ni   11.5998898       11.6001101      -9.00000014E-05
 Ni   11.5998402       11.6001596       2.90002990    
 Ni   11.5998898       11.6001101       5.80000019    
 Ni   11.5998402       11.6001596       8.69997025    
 Ni   11.5998898       11.6001101       11.6000900    
 Al   1.44965994       1.45011997       1.45027995    
 Al   1.45010996       1.45026004       4.35010004    
 Al   1.45010996       1.45026004       7.24989986    
 Al   1.44965994       1.45011997       10.1497202    
 Al   1.44955003       1.45077002       13.0500002    
 Al   1.44965994       4.34988022       1.45027995    
 Al   1.45010996       4.34974003       4.35010004    
 Al   1.45010996       4.34974003       7.24989986    
 Al   1.44965994       4.34988022       10.1497202    
 Al   1.44955003       4.34922981       13.0500002    
 Al   1.44974995       7.25024986       1.45025003    
 Al   1.44970000       7.25029993       4.35008001    
 Al   1.44970000       7.25029993       7.24991989    
 Al   1.44974995       7.25024986       10.1497498    
 Al   1.44985998       7.25014019       13.0500002    
 Al   1.44960999       10.1499996       1.44992995    
 Al   1.44967997       10.1499996       4.35018015    
 Al   1.44967997       10.1499996       7.24982023    
 Al   1.44960999       10.1499996       10.1500702    
 Al   1.44972003       10.1499996       13.0500002    
 Al   1.44974995       13.0497503       1.45025003    
 Al   1.44970000       13.0496998       4.35008001    
 Al   1.44970000       13.0496998       7.24991989    
 Al   1.44974995       13.0497503       10.1497498    
 Al   1.44985998       13.0498600       13.0500002    
 Al   4.34683990       1.44684005       1.45523000    
 Al   4.35044003       1.45044005       4.35044003    
 Al   4.35044003       1.45044005       7.24955988    
 Al   4.34683990       1.44684005       10.1447697    
 Al   4.33073997       1.43074000       13.0500002    
 Al   4.34683990       4.35315990       1.45523000    
 Al   4.35044003       4.34955978       4.35044003    
 Al   4.35044003       4.34955978       7.24955988    
 Al   4.34683990       4.35315990       10.1447697    
 Al   4.33073997       4.36925983       13.0500002    
 Al   4.35012007       7.25033998       1.45027995    
 Al   4.35025978       7.24988985       4.35010004    
 Al   4.35025978       7.24988985       7.24989986    
 Al   4.35012007       7.25033998       10.1497202    
 Al   4.35077000       7.25045013       13.0500002    
 Al   4.35008001       10.1499996       1.45028996    
 Al   4.35044003       10.1499996       4.35007000    
 Al   4.35044003       10.1499996       7.24992990    
 Al   4.35008001       10.1499996       10.1497097    
 Al   4.35004997       10.1499996       13.0500002    
 Al   4.35012007       13.0496597       1.45027995    
 Al   4.35025978       13.0501099       4.35010004    
 Al   4.35025978       13.0501099       7.24989986    
 Al   4.35012007       13.0496597       10.1497202    
 Al   4.35077000       13.0495501       13.0500002    
 Al   7.25316000       1.44684005       1.45523000    
 Al   7.24955988       1.45044005       4.35044003    
 Al   7.24955988       1.45044005       7.24955988    
 Al   7.25316000       1.44684005       10.1447697    
 Al   7.26925993       1.43074000       13.0500002    
 Al   7.25316000       4.35315990       1.45523000    
 Al   7.24955988       4.34955978       4.35044003    
 Al   7.24955988       4.34955978       7.24955988    
 Al   7.25316000       4.35315990       10.1447697    
 Al   7.26925993       4.36925983       13.0500002    
 Al   7.24987984       7.25033998       1.45027995    
 Al   7.24974012       7.24988985       4.35010004    
 Al   7.24974012       7.24988985       7.24989986    
 Al   7.24987984       7.25033998       10.1497202    
 Al   7.24922991       7.25045013       13.0500002    
 Al   7.24991989       10.1499996       1.45028996    
 Al   7.24955988       10.1499996       4.35007000    
 Al   7.24955988       10.1499996       7.24992990    
 Al   7.24991989       10.1499996       10.1497097    
 Al   7.24994993       10.1499996       13.0500002    
 Al   7.24987984       13.0496597       1.45027995    
 Al   7.24974012       13.0501099       4.35010004    
 Al   7.24974012       13.0501099       7.24989986    
 Al   7.24987984       13.0496597       10.1497202    
 Al   7.24922991       13.0495501       13.0500002    
 Al   10.1503401       1.45011997       1.45027995    
 Al   10.1498899       1.45026004       4.35010004    
 Al   10.1498899       1.45026004       7.24989986    
 Al   10.1503401       1.45011997       10.1497202    
 Al   10.1504498       1.45077002       13.0500002    
 Al   10.1503401       4.34988022       1.45027995    
 Al   10.1498899       4.34974003       4.35010004    
 Al   10.1498899       4.34974003       7.24989986    
 Al   10.1503401       4.34988022       10.1497202    
 Al   10.1504498       4.34922981       13.0500002    
 Al   10.1502504       7.25024986       1.45025003    
 Al   10.1503000       7.25029993       4.35008001    
 Al   10.1503000       7.25029993       7.24991989    
 Al   10.1502504       7.25024986       10.1497498    
 Al   10.1501398       7.25014019       13.0500002    
 Al   10.1503897       10.1499996       1.44992995    
 Al   10.1503201       10.1499996       4.35018015    
 Al   10.1503201       10.1499996       7.24982023    
 Al   10.1503897       10.1499996       10.1500702    
 Al   10.1502800       10.1499996       13.0500002    
 Al   10.1502504       13.0497503       1.45025003    
 Al   10.1503000       13.0496998       4.35008001    
 Al   10.1503000       13.0496998       7.24991989    
 Al   10.1502504       13.0497503       10.1497498    
 Al   10.1501398       13.0498600       13.0500002    
 Al   13.0500002       1.45008004       1.45028996    
 Al   13.0500002       1.45044005       4.35007000    
 Al   13.0500002       1.45044005       7.24992990    
 Al   13.0500002       1.45008004       10.1497097    
 Al   13.0500002       1.45005000       13.0500002    
 Al   13.0500002       4.34991980       1.45028996    
 Al   13.0500002       4.34955978       4.35007000    
 Al   13.0500002       4.34955978       7.24992990    
 Al   13.0500002       4.34991980       10.1497097    
 Al   13.0500002       4.34994984       13.0500002    
 Al   13.0500002       7.25039005       1.44992995    
 Al   13.0500002       7.25031996       4.35018015    
 Al   13.0500002       7.25031996       7.24982023    
 Al   13.0500002       7.25039005       10.1500702    
 Al   13.0500002       7.25027990       13.0500002    
 Al   13.0500002       10.1499996       1.45024002    
 Al   13.0500002       10.1499996       4.34989977    
 Al   13.0500002       10.1499996       7.25010014    
 Al   13.0500002       10.1499996       10.1497602    
 Al   13.0500002       10.1499996       13.0500002    
 Al   13.0500002       13.0496101       1.44992995    
 Al   13.0500002       13.0496798       4.35018015    
 Al   13.0500002       13.0496798       7.24982023    
 Al   13.0500002       13.0496101       10.1500702    
 Al   13.0500002       13.0497198       13.0500002    
 N    5.80000019       2.90000010       13.0500002    
         259
 Energy:  -1314.6592161000001     
 X   0.00000000       0.00000000       0.00000000    
 X   14.5000000       0.00000000       0.00000000    
 X   0.00000000       14.5000000       0.00000000    
 X   0.00000000       0.00000000       14.5000000    
 X   14.5000000       14.5000000       0.00000000    
 X   14.5000000       0.00000000       14.5000000    
 X   0.00000000       14.5000000       14.5000000    
 X   14.5000000       14.5000000       14.5000000    
 Ni   4.49999992E-04   1.19999997E-04  -3.99999990E-05
 Ni  -7.99999980E-05  -9.99999975E-06   2.89978004    
 Ni  -7.99999980E-05   4.99999987E-05   5.80000019    
 Ni  -7.99999980E-05  -9.99999975E-06   8.70022011    
 Ni   4.49999992E-04   1.19999997E-04   11.6000404    
 Ni  -2.57000001E-03   2.90000010      -3.49999988E-04
 Ni  -2.99999992E-05   2.90000010       2.89999008    
 Ni   1.90000006E-04   2.90000010       5.80000019    
 Ni  -2.99999992E-05   2.90000010       8.70001030    
 Ni  -2.57000001E-03   2.90000010       11.6003504    
 Ni   4.49999992E-04   5.79988003      -3.99999990E-05
 Ni  -7.99999980E-05   5.80001020       2.89978004    
 Ni  -7.99999980E-05   5.79995012       5.80000019    
 Ni  -7.99999980E-05   5.80001020       8.70022011    
 Ni   4.49999992E-04   5.79988003       11.6000404    
 Ni   1.19999997E-04   8.69987965      -9.99999975E-05
 Ni   1.80000003E-04   8.69981956       2.90003991    