         259
 Energy:  -1315.0397785000000     
 X   0.00000000       0.00000000       0.00000000    
 X   14.5000000       0.00000000       0.00000000    
 X   0.00000000       14.5000000       0.00000000    
 X   0.00000000       0.00000000       14.5000000    
 X   14.5000000       14.5000000       0.00000000    
 X   14.5000000       0.00000000       14.5000000    
 X   0.00000000       14.5000000       14.5000000    
 X   14.5000000       14.5000000       14.5000000    
 Ni   9.51999985E-03   2.49999994E-03  -3.87999997E-03
 Ni  -5.77999977E-03  -8.84000026E-03   2.89368010    
 Ni  -1.30599998E-02  -1.18000004E-02   5.80000019    
 Ni  -5.77999977E-03  -8.84000026E-03   8.70631981    
 Ni   9.51999985E-03   2.49999994E-03   11.6038799    
 Ni  -1.44900000E-02   2.90000010       1.12000003E-03
 Ni  -7.20999995E-03   2.90000010       2.90675998    
 Ni  -8.29000026E-03   2.90000010       5.80000019    
 Ni  -7.20999995E-03   2.90000010       8.69324017    
 Ni  -1.44900000E-02   2.90000010       11.5988798    
 Ni   9.51999985E-03   5.79750013      -3.87999997E-03
 Ni  -5.77999977E-03   5.80883980       2.89368010    
 Ni  -1.30599998E-02   5.81180000       5.80000019    
 Ni  -5.77999977E-03   5.80883980       8.70631981    
 Ni   9.51999985E-03   5.79750013       11.6038799    
 Ni   6.20999979E-03   8.69379044      -1.09000001E-02
 Ni  -3.28999991E-03   8.70328999       2.88620996    
 Ni  -9.01999976E-03   8.70901966       5.80000019    
 Ni  -3.28999991E-03   8.70328999       8.71378994    
 Ni   6.20999979E-03   8.69379044       11.6108999    
 Ni   6.20999979E-03   11.6062098      -1.09000001E-02
 Ni  -3.28999991E-03   11.5967102       2.88620996    
 Ni  -9.01999976E-03   11.5909796       5.80000019    
 Ni  -3.28999991E-03   11.5967102       8.71378994    
 Ni   6.20999979E-03   11.6062098       11.6108999    
 Ni   2.92807007       2.80699991E-02   1.32000004E-03
 Ni   2.87940001      -2.06000004E-02   2.92733002    
 Ni   2.88562012      -1.43799996E-02   5.80000019    
 Ni   2.87940001      -2.06000004E-02   8.67267036    
 Ni   2.92807007       2.80699991E-02   11.5986795    
 Ni   2.87618995       2.90000010       2.32900009E-02
 Ni   2.87159991       2.90000010       2.92666006    
 Ni   2.87802005       2.90000010       5.80000019    
 Ni   2.87159991       2.90000010       8.67333984    
 Ni   2.87618995       2.90000010       11.5767097    
 Ni   2.92807007       5.77193022       1.32000004E-03
 Ni   2.87940001       5.82060003       2.92733002    
 Ni   2.88562012       5.81438017       5.80000019    
 Ni   2.87940001       5.82060003       8.67267036    
 Ni   2.92807007       5.77193022       11.5986795    
 Ni   2.90249991       8.69048023      -3.87999997E-03
 Ni   2.89116001       8.70578003       2.89368010    
 Ni   2.88820004       8.71306038       5.80000019    
 Ni   2.89116001       8.70578003       8.70631981    
 Ni   2.90249991       8.69048023       11.6038799    
 Ni   2.90249991       11.6095200      -3.87999997E-03
 Ni   2.89116001       11.5942202       2.89368010    
 Ni   2.88820004       11.5869398       5.80000019    
 Ni   2.89116001       11.5942202       8.70631981    
 Ni   2.90249991       11.6095200       11.6038799    
 Ni   5.80000019      -2.38099992E-02   2.32900009E-02
 Ni   5.80000019      -2.84000002E-02   2.92666006    
 Ni   5.80000019      -2.19800007E-02   5.80000019    
 Ni   5.80000019      -2.84000002E-02   8.67333984    
 Ni   5.80000019      -2.38099992E-02   11.5767097    
 Ni   5.80000019       2.90000010      0.416070014    
 Ni   5.80000019       2.90000010       2.94827008    
 Ni   5.80000019       2.90000010       5.80000019    
 Ni   5.80000019       2.90000010       8.65172958    
 Ni   5.80000019       2.90000010       11.1839304    
 Ni   5.80000019       5.82381010       2.32900009E-02
 Ni   5.80000019       5.82840014       2.92666006    
 Ni   5.80000019       5.82198000       5.80000019    
 Ni   5.80000019       5.82840014       8.67333984    
 Ni   5.80000019       5.82381010       11.5767097    
 Ni   5.80000019       8.71448994       1.12000003E-03
 Ni   5.80000019       8.70720959       2.90675998    
 Ni   5.80000019       8.70829010       5.80000019    
 Ni   5.80000019       8.70720959       8.69324017    
 Ni   5.80000019       8.71448994       11.5988798    
 Ni   5.80000019       11.5855103       1.12000003E-03
 Ni   5.80000019       11.5927896       2.90675998    
 Ni   5.80000019       11.5917101       5.80000019    
 Ni   5.80000019       11.5927896       8.69324017    
 Ni   5.80000019       11.5855103       11.5988798    
 Ni   8.67193031       2.80699991E-02   1.32000004E-03
 Ni   8.72060013      -2.06000004E-02   2.92733002    
 Ni   8.71438026      -1.43799996E-02   5.80000019    
 Ni   8.72060013      -2.06000004E-02   8.67267036    
 Ni   8.67193031       2.80699991E-02   11.5986795    
 Ni   8.72381020       2.90000010       2.32900009E-02
 Ni   8.72840023       2.90000010       2.92666006    
 Ni   8.72198009       2.90000010       5.80000019    
 Ni   8.72840023       2.90000010       8.67333984    
 Ni   8.72381020       2.90000010       11.5767097    
 Ni   8.67193031       5.77193022       1.32000004E-03
 Ni   8.72060013       5.82060003       2.92733002    
 Ni   8.71438026       5.81438017       5.80000019    
 Ni   8.72060013       5.82060003       8.67267036    
 Ni   8.67193031       5.77193022       11.5986795    
 Ni   8.69750023       8.69048023      -3.87999997E-03
 Ni   8.70884037       8.70578003       2.89368010    
 Ni   8.71179962       8.71306038       5.80000019    
 Ni   8.70884037       8.70578003       8.70631981    
 Ni   8.69750023       8.69048023       11.6038799    
 Ni   8.69750023       11.6095200      -3.87999997E-03
 Ni   8.70884037       11.5942202       2.89368010    
 Ni   8.71179962       11.5869398       5.80000019    
 Ni   8.70884037       11.5942202       8.70631981    
 Ni   8.69750023       11.6095200       11.6038799    
 Ni   11.5904799       2.49999994E-03  -3.87999997E-03
 Ni   11.6057796      -8.84000026E-03   2.89368010    
 Ni   11.6130600      -1.18000004E-02   5.80000019    
 Ni   11.6057796      -8.84000026E-03   8.70631981    
 Ni   11.5904799       2.49999994E-03   11.6038799    
 Ni   11.6144896       2.90000010       1.12000003E-03
 Ni   11.6072102       2.90000010       2.90675998    
 Ni   11.6082897       2.90000010       5.80000019    
 Ni   11.6072102       2.90000010       8.69324017    
 Ni   11.6144896       2.90000010       11.5988798    
 Ni   11.5904799       5.79750013      -3.87999997E-03
 Ni   11.6057796       5.80883980       2.89368010    
 Ni   11.6130600       5.81180000       5.80000019    
 Ni   11.6057796       5.80883980       8.70631981    
 Ni   11.5904799       5.79750013       11.6038799    
 Ni   11.5937901       8.69379044      -1.09000001E-02
 Ni   11.6032896       8.70328999       2.88620996    
 Ni   11.6090202       8.70901966       5.80000019    
 Ni   11.6032896       8.70328999       8.71378994    
 Ni   11.5937901       8.69379044       11.6108999    
 Ni   11.5937901       11.6062098      -1.09000001E-02
 Ni   11.6032896       11.5967102       2.88620996    
 Ni   11.6090202       11.5909796       5.80000019    
 Ni   11.6032896       11.5967102       8.71378994    
 Ni   11.5937901       11.6062098       11.6108999    
 Al   1.44026005       1.44698000       1.46016002    
 Al   1.43532002       1.44204998       4.35746002    
 Al   1.43532002       1.44204998       7.24253988    
 Al   1.44026005       1.44698000       10.1398401    
 Al   1.45309997       1.46091998       13.0500002    
 Al   1.44026005       4.35302019       1.46016002    
 Al   1.43532002       4.35795021       4.35746002    
 Al   1.43532002       4.35795021       7.24253988    
 Al   1.44026005       4.35302019       10.1398401    
 Al   1.45309997       4.33907986       13.0500002    
 Al   1.45239997       7.24760008       1.44409001    
 Al   1.43522000       7.26478004       4.35258007    
 Al   1.43522000       7.26478004       7.24741983    
 Al   1.45239997       7.24760008       10.1559095    
 Al   1.46527004       7.23472977       13.0500002    
 Al   1.44769001       10.1499996       1.43787003    
 Al   1.44034004       10.1499996       4.34400988    
 Al   1.44034004       10.1499996       7.25599003    
 Al   1.44769001       10.1499996       10.1621304    
 Al   1.45583999       10.1499996       13.0500002    
 Al   1.45239997       13.0523996       1.44409001    
 Al   1.43522000       13.0352201       4.35258007    
 Al   1.43522000       13.0352201       7.24741983    
 Al   1.45239997       13.0523996       10.1559095    
 Al   1.46527004       13.0652704       13.0500002    
 Al   4.30973005       1.40972996       1.52751994    
 Al   4.34145021       1.44145000       4.36920977    
 Al   4.34145021       1.44145000       7.23079014    
 Al   4.30973005       1.40972996       10.0724802    
 Al   4.37657022       1.47657001       13.0500002    
 Al   4.30973005       4.39027023       1.52751994    
 Al   4.34145021       4.35855007       4.36920977    
 Al   4.34145021       4.35855007       7.23079014    
 Al   4.30973005       4.39027023       10.0724802    
 Al   4.37657022       4.32343006       13.0500002    
 Al   4.34698009       7.25973988       1.46016002    
 Al   4.34205008       7.26467991       4.35746002    
 Al   4.34205008       7.26467991       7.24253988    
 Al   4.34698009       7.25973988       10.1398401    
 Al   4.36091995       7.24690008       13.0500002    
 Al   4.34578991       10.1499996       1.45165002    
 Al   4.34522009       10.1499996       4.34935999    
 Al   4.34522009       10.1499996       7.25063992    
 Al   4.34578991       10.1499996       10.1483498    
 Al   4.34521008       10.1499996       13.0500002    
 Al   4.34698009       13.0402603       1.46016002    
 Al   4.34205008       13.0353203       4.35746002    
 Al   4.34205008       13.0353203       7.24253988    
 Al   4.34698009       13.0402603       10.1398401    
 Al   4.36091995       13.0530996       13.0500002    
 Al   7.29026985       1.40972996       1.52751994    
 Al   7.25855017       1.44145000       4.36920977    
 Al   7.25855017       1.44145000       7.23079014    
 Al   7.29026985       1.40972996       10.0724802    
 Al   7.22343016       1.47657001       13.0500002    
 Al   7.29026985       4.39027023       1.52751994    
 Al   7.25855017       4.35855007       4.36920977    
 Al   7.25855017       4.35855007       7.23079014    
 Al   7.29026985       4.39027023       10.0724802    
 Al   7.22343016       4.32343006       13.0500002    
 Al   7.25301981       7.25973988       1.46016002    
 Al   7.25794983       7.26467991       4.35746002    
 Al   7.25794983       7.26467991       7.24253988    
 Al   7.25301981       7.25973988       10.1398401    
 Al   7.23907995       7.24690008       13.0500002    
 Al   7.25421000       10.1499996       1.45165002    
 Al   7.25477982       10.1499996       4.34935999    
 Al   7.25477982       10.1499996       7.25063992    
 Al   7.25421000       10.1499996       10.1483498    
 Al   7.25478983       10.1499996       13.0500002    
 Al   7.25301981       13.0402603       1.46016002    
 Al   7.25794983       13.0353203       4.35746002    
 Al   7.25794983       13.0353203       7.24253988    
 Al   7.25301981       13.0402603       10.1398401    
 Al   7.23907995       13.0530996       13.0500002    
 Al   10.1597404       1.44698000       1.46016002    
 Al   10.1646795       1.44204998       4.35746002    
 Al   10.1646795       1.44204998       7.24253988    
 Al   10.1597404       1.44698000       10.1398401    
 Al   10.1469002       1.46091998       13.0500002    
 Al   10.1597404       4.35302019       1.46016002    
 Al   10.1646795       4.35795021       4.35746002    
 Al   10.1646795       4.35795021       7.24253988    
 Al   10.1597404       4.35302019       10.1398401    
 Al   10.1469002       4.33907986       13.0500002    
 Al   10.1476002       7.24760008       1.44409001    
 Al   10.1647797       7.26478004       4.35258007    
 Al   10.1647797       7.26478004       7.24741983    
 Al   10.1476002       7.24760008       10.1559095    
 Al   10.1347303       7.23472977       13.0500002    
 Al   10.1523104       10.1499996       1.43787003    
 Al   10.1596603       10.1499996       4.34400988    
 Al   10.1596603       10.1499996       7.25599003    
 Al   10.1523104       10.1499996       10.1621304    
 Al   10.1441603       10.1499996       13.0500002    
 Al   10.1476002       13.0523996       1.44409001    
 Al   10.1647797       13.0352201       4.35258007    
 Al   10.1647797       13.0352201       7.24741983    
 Al   10.1476002       13.0523996       10.1559095    
 Al   10.1347303       13.0652704       13.0500002    
 Al   13.0500002       1.44579005       1.45165002    
 Al   13.0500002       1.44521999       4.34935999    
 Al   13.0500002       1.44521999       7.25063992    
 Al   13.0500002       1.44579005       10.1483498    
 Al   13.0500002       1.44520998       13.0500002    
 Al   13.0500002       4.35420990       1.45165002    
 Al   13.0500002       4.35478020       4.34935999    
 Al   13.0500002       4.35478020       7.25063992    
 Al   13.0500002       4.35420990       10.1483498    
 Al   13.0500002       4.35479021       13.0500002    
 Al   13.0500002       7.25230980       1.43787003    
 Al   13.0500002       7.25965977       4.34400988    
 Al   13.0500002       7.25965977       7.25599003    
 Al   13.0500002       7.25230980       10.1621304    
 Al   13.0500002       7.24416018       13.0500002    
 Al   13.0500002       10.1499996       1.43432999    
 Al   13.0500002       10.1499996       4.33865023    
 Al   13.0500002       10.1499996       7.26135015    
 Al   13.0500002       10.1499996       10.1656704    
 Al   13.0500002       10.1499996       13.0500002    
 Al   13.0500002       13.0476904       1.43787003    
 Al   13.0500002       13.0403404       4.34400988    
 Al   13.0500002       13.0403404       7.25599003    
 Al   13.0500002       13.0476904       10.1621304    
 Al   13.0500002       13.0558395       13.0500002    
 N    5.80000019       2.90000010       13.0500002    
