NiAl                                    
           1
    14.500000    0.000000    0.000000
     0.000000   14.500000    0.000000
     0.000000    0.000000   14.500000
   Ni   Al   N 
 125 125   1
Direct configuration=     1
   0.00000000  0.00000000  0.00000000
   0.00000000  0.00000000  0.20000000
   0.00000000  0.00000000  0.40000000
   0.00000000  0.00000000  0.60000000
   0.00000000  0.00000000  0.80000000
   0.00000000  0.20000000  0.00000000
   0.00000000  0.20000000  0.20000000
   0.00000000  0.20000000  0.40000000
   0.00000000  0.20000000  0.60000000
   0.00000000  0.20000000  0.80000000
   0.00000000  0.40000000  0.00000000
   0.00000000  0.40000000  0.20000000
   0.00000000  0.40000000  0.40000000
   0.00000000  0.40000000  0.60000000
   0.00000000  0.40000000  0.80000000
   0.00000000  0.60000000  0.00000000
   0.00000000  0.60000000  0.20000000
   0.00000000  0.60000000  0.40000000
   0.00000000  0.60000000  0.60000000
   0.00000000  0.60000000  0.80000000
   0.00000000  0.80000000  0.00000000
   0.00000000  0.80000000  0.20000000
   0.00000000  0.80000000  0.40000000
   0.00000000  0.80000000  0.60000000
   0.00000000  0.80000000  0.80000000
   0.20000000  0.00000000  0.00000000
   0.20000000  0.00000000  0.20000000
   0.20000000  0.00000000  0.40000000
   0.20000000  0.00000000  0.60000000
   0.20000000  0.00000000  0.80000000
   0.20000000  0.20000000  0.00000000
   0.20000000  0.20000000  0.20000000
   0.20000000  0.20000000  0.40000000
   0.20000000  0.20000000  0.60000000
   0.20000000  0.20000000  0.80000000
   0.20000000  0.40000000  0.00000000
   0.20000000  0.40000000  0.20000000
   0.20000000  0.40000000  0.40000000
   0.20000000  0.40000000  0.60000000
   0.20000000  0.40000000  0.80000000
   0.20000000  0.60000000  0.00000000
   0.20000000  0.60000000  0.20000000
   0.20000000  0.60000000  0.40000000
   0.20000000  0.60000000  0.60000000
   0.20000000  0.60000000  0.80000000
   0.20000000  0.80000000  0.00000000
   0.20000000  0.80000000  0.20000000
   0.20000000  0.80000000  0.40000000
   0.20000000  0.80000000  0.60000000
   0.20000000  0.80000000  0.80000000
   0.40000000  0.00000000  0.00000000
   0.40000000  0.00000000  0.20000000
   0.40000000  0.00000000  0.40000000
   0.40000000  0.00000000  0.60000000
   0.40000000  0.00000000  0.80000000
   0.40000000  0.20000000  0.00000000
   0.40000000  0.20000000  0.20000000
   0.40000000  0.20000000  0.40000000
   0.40000000  0.20000000  0.60000000
   0.40000000  0.20000000  0.80000000
   0.40000000  0.40000000  0.00000000
   0.40000000  0.40000000  0.20000000
   0.40000000  0.40000000  0.40000000
   0.40000000  0.40000000  0.60000000
   0.40000000  0.40000000  0.80000000
   0.40000000  0.60000000  0.00000000
   0.40000000  0.60000000  0.20000000
   0.40000000  0.60000000  0.40000000
   0.40000000  0.60000000  0.60000000
   0.40000000  0.60000000  0.80000000
   0.40000000  0.80000000  0.00000000
   0.40000000  0.80000000  0.20000000
   0.40000000  0.80000000  0.40000000
   0.40000000  0.80000000  0.60000000
   0.40000000  0.80000000  0.80000000
   0.60000000  0.00000000  0.00000000
   0.60000000  0.00000000  0.20000000
   0.60000000  0.00000000  0.40000000
   0.60000000  0.00000000  0.60000000
   0.60000000  0.00000000  0.80000000
   0.60000000  0.20000000  0.00000000
   0.60000000  0.20000000  0.20000000
   0.60000000  0.20000000  0.40000000
   0.60000000  0.20000000  0.60000000
   0.60000000  0.20000000  0.80000000
   0.60000000  0.40000000  0.00000000
   0.60000000  0.40000000  0.20000000
   0.60000000  0.40000000  0.40000000
   0.60000000  0.40000000  0.60000000
   0.60000000  0.40000000  0.80000000
   0.60000000  0.60000000  0.00000000
   0.60000000  0.60000000  0.20000000
   0.60000000  0.60000000  0.40000000
   0.60000000  0.60000000  0.60000000
   0.60000000  0.60000000  0.80000000
   0.60000000  0.80000000  0.00000000
   0.60000000  0.80000000  0.20000000
   0.60000000  0.80000000  0.40000000
   0.60000000  0.80000000  0.60000000
   0.60000000  0.80000000  0.80000000
   0.80000000  0.00000000  0.00000000
   0.80000000  0.00000000  0.20000000
   0.80000000  0.00000000  0.40000000
   0.80000000  0.00000000  0.60000000
   0.80000000  0.00000000  0.80000000
   0.80000000  0.20000000  0.00000000
   0.80000000  0.20000000  0.20000000
   0.80000000  0.20000000  0.40000000
   0.80000000  0.20000000  0.60000000
   0.80000000  0.20000000  0.80000000
   0.80000000  0.40000000  0.00000000
   0.80000000  0.40000000  0.20000000
   0.80000000  0.40000000  0.40000000
   0.80000000  0.40000000  0.60000000
   0.80000000  0.40000000  0.80000000
   0.80000000  0.60000000  0.00000000
   0.80000000  0.60000000  0.20000000
   0.80000000  0.60000000  0.40000000
   0.80000000  0.60000000  0.60000000
   0.80000000  0.60000000  0.80000000
   0.80000000  0.80000000  0.00000000
   0.80000000  0.80000000  0.20000000
   0.80000000  0.80000000  0.40000000
   0.80000000  0.80000000  0.60000000
   0.80000000  0.80000000  0.80000000
   0.10000000  0.10000000  0.10000000
   0.10000000  0.10000000  0.30000000
   0.10000000  0.10000000  0.50000000
   0.10000000  0.10000000  0.70000000
   0.10000000  0.10000000  0.90000000
   0.10000000  0.30000000  0.10000000
   0.10000000  0.30000000  0.30000000
   0.10000000  0.30000000  0.50000000
   0.10000000  0.30000000  0.70000000
   0.10000000  0.30000000  0.90000000
   0.10000000  0.50000000  0.10000000
   0.10000000  0.50000000  0.30000000
   0.10000000  0.50000000  0.50000000
   0.10000000  0.50000000  0.70000000
   0.10000000  0.50000000  0.90000000
   0.10000000  0.70000000  0.10000000
   0.10000000  0.70000000  0.30000000
   0.10000000  0.70000000  0.50000000
   0.10000000  0.70000000  0.70000000
   0.10000000  0.70000000  0.90000000
   0.10000000  0.90000000  0.10000000
   0.10000000  0.90000000  0.30000000
   0.10000000  0.90000000  0.50000000
   0.10000000  0.90000000  0.70000000
   0.10000000  0.90000000  0.90000000
   0.30000000  0.10000000  0.10000000
   0.30000000  0.10000000  0.30000000
   0.30000000  0.10000000  0.50000000
   0.30000000  0.10000000  0.70000000
   0.30000000  0.10000000  0.90000000
   0.30000000  0.30000000  0.10000000
   0.30000000  0.30000000  0.30000000
   0.30000000  0.30000000  0.50000000
   0.30000000  0.30000000  0.70000000
   0.30000000  0.30000000  0.90000000
   0.30000000  0.50000000  0.10000000
   0.30000000  0.50000000  0.30000000
   0.30000000  0.50000000  0.50000000
   0.30000000  0.50000000  0.70000000
   0.30000000  0.50000000  0.90000000
   0.30000000  0.70000000  0.10000000
   0.30000000  0.70000000  0.30000000
   0.30000000  0.70000000  0.50000000
   0.30000000  0.70000000  0.70000000
   0.30000000  0.70000000  0.90000000
   0.30000000  0.90000000  0.10000000
   0.30000000  0.90000000  0.30000000
   0.30000000  0.90000000  0.50000000
   0.30000000  0.90000000  0.70000000
   0.30000000  0.90000000  0.90000000
   0.50000000  0.10000000  0.10000000
   0.50000000  0.10000000  0.30000000
   0.50000000  0.10000000  0.50000000
   0.50000000  0.10000000  0.70000000
   0.50000000  0.10000000  0.90000000
   0.50000000  0.30000000  0.10000000
   0.50000000  0.30000000  0.30000000
   0.50000000  0.30000000  0.50000000
   0.50000000  0.30000000  0.70000000
   0.50000000  0.30000000  0.90000000
   0.50000000  0.50000000  0.10000000
   0.50000000  0.50000000  0.30000000
   0.50000000  0.50000000  0.50000000
   0.50000000  0.50000000  0.70000000
   0.50000000  0.50000000  0.90000000
   0.50000000  0.70000000  0.10000000
   0.50000000  0.70000000  0.30000000
   0.50000000  0.70000000  0.50000000
   0.50000000  0.70000000  0.70000000
   0.50000000  0.70000000  0.90000000
   0.50000000  0.90000000  0.10000000
   0.50000000  0.90000000  0.30000000
   0.50000000  0.90000000  0.50000000
   0.50000000  0.90000000  0.70000000
   0.50000000  0.90000000  0.90000000
   0.70000000  0.10000000  0.10000000
   0.70000000  0.10000000  0.30000000
   0.70000000  0.10000000  0.50000000
   0.70000000  0.10000000  0.70000000
   0.70000000  0.10000000  0.90000000
   0.70000000  0.30000000  0.10000000
   0.70000000  0.30000000  0.30000000
   0.70000000  0.30000000  0.50000000
   0.70000000  0.30000000  0.70000000
   0.70000000  0.30000000  0.90000000
   0.70000000  0.50000000  0.10000000
   0.70000000  0.50000000  0.30000000
   0.70000000  0.50000000  0.50000000
   0.70000000  0.50000000  0.70000000
   0.70000000  0.50000000  0.90000000
   0.70000000  0.70000000  0.10000000
   0.70000000  0.70000000  0.30000000
   0.70000000  0.70000000  0.50000000
   0.70000000  0.70000000  0.70000000
   0.70000000  0.70000000  0.90000000
   0.70000000  0.90000000  0.10000000
   0.70000000  0.90000000  0.30000000
   0.70000000  0.90000000  0.50000000
   0.70000000  0.90000000  0.70000000
   0.70000000  0.90000000  0.90000000
   0.90000000  0.10000000  0.10000000
   0.90000000  0.10000000  0.30000000
   0.90000000  0.10000000  0.50000000
   0.90000000  0.10000000  0.70000000
   0.90000000  0.10000000  0.90000000
   0.90000000  0.30000000  0.10000000
   0.90000000  0.30000000  0.30000000
   0.90000000  0.30000000  0.50000000
   0.90000000  0.30000000  0.70000000
   0.90000000  0.30000000  0.90000000
   0.90000000  0.50000000  0.10000000
   0.90000000  0.50000000  0.30000000
   0.90000000  0.50000000  0.50000000
   0.90000000  0.50000000  0.70000000
   0.90000000  0.50000000  0.90000000
   0.90000000  0.70000000  0.10000000
   0.90000000  0.70000000  0.30000000
   0.90000000  0.70000000  0.50000000
   0.90000000  0.70000000  0.70000000
   0.90000000  0.70000000  0.90000000
   0.90000000  0.90000000  0.10000000
   0.90000000  0.90000000  0.30000000
   0.90000000  0.90000000  0.50000000
   0.90000000  0.90000000  0.70000000
   0.90000000  0.90000000  0.90000000
   0.40000000  0.20000000  0.90000000
Direct configuration=     2
   0.00002806  0.00000745 -0.00000238
  -0.00000523 -0.00000042  0.19998626
  -0.00000506  0.00000289  0.40000000
  -0.00000523 -0.00000042  0.60001374
   0.00002806  0.00000745  0.80000238
  -0.00016153  0.20000000 -0.00002223
  -0.00000189  0.20000000  0.19999952
   0.00001198  0.20000000  0.40000000
  -0.00000189  0.20000000  0.60000048
  -0.00016153  0.20000000  0.80002223
   0.00002806  0.39999255 -0.00000238
  -0.00000523  0.40000042  0.19998626
  -0.00000506  0.39999711  0.40000000
  -0.00000523  0.40000042  0.60001374
   0.00002806  0.39999255  0.80000238
   0.00000735  0.59999265 -0.00000614
   0.00001121  0.59998879  0.20000234
   0.00000790  0.59999210  0.40000000
   0.00001121  0.59998879  0.59999766
   0.00000735  0.59999265  0.80000614
   0.00000735  0.80000735 -0.00000614
   0.00001121  0.80001121  0.20000234
   0.00000790  0.80000790  0.40000000
   0.00001121  0.80001121  0.59999766
   0.00000735  0.80000735  0.80000614
   0.20011370  0.00011370  0.00003901
   0.19999126 -0.00000874  0.19999185
   0.19999645 -0.00000355  0.40000000
   0.19999126 -0.00000874  0.60000815
   0.20011370  0.00011370  0.79996099
   0.19975703  0.20000000 -0.00000718
   0.20001746  0.20000000  0.19988681
   0.19998519  0.20000000  0.40000000
   0.20001746  0.20000000  0.60011319
   0.19975703  0.20000000  0.80000718
   0.20011370  0.39988630  0.00003901
   0.19999126  0.40000874  0.19999185
   0.19999645  0.40000355  0.40000000
   0.19999126  0.40000874  0.60000815
   0.20011370  0.39988630  0.79996099
   0.20000745  0.59997194 -0.00000238
   0.19999958  0.60000523  0.19998626
   0.20000289  0.60000506  0.40000000
   0.19999958  0.60000523  0.60001374
   0.20000745  0.59997194  0.80000238
   0.20000745  0.80002806 -0.00000238
   0.19999958  0.79999477  0.19998626
   0.20000289  0.79999494  0.40000000
   0.19999958  0.79999477  0.60001374
   0.20000745  0.80002806  0.80000238
   0.40000000 -0.00024297 -0.00000718
   0.40000000  0.00001746  0.19988681
   0.40000000 -0.00001481  0.40000000
   0.40000000  0.00001746  0.60011319
   0.40000000 -0.00024297  0.80000718
   0.40000000  0.20000000  0.02318682
   0.40000000  0.20000000  0.19946346
   0.40000000  0.20000000  0.40000000
   0.40000000  0.20000000  0.60053654
   0.40000000  0.20000000  0.77681318
   0.40000000  0.40024297 -0.00000718
   0.40000000  0.39998254  0.19988681
   0.40000000  0.40001481  0.40000000
   0.40000000  0.39998254  0.60011319
   0.40000000  0.40024297  0.80000718
   0.40000000  0.60016153 -0.00002223
   0.40000000  0.60000189  0.19999952
   0.40000000  0.59998802  0.40000000
   0.40000000  0.60000189  0.60000048
   0.40000000  0.60016153  0.80002223
   0.40000000  0.79983847 -0.00002223
   0.40000000  0.79999811  0.19999952
   0.40000000  0.80001198  0.40000000
   0.40000000  0.79999811  0.60000048
   0.40000000  0.79983847  0.80002223
   0.59988630  0.00011370  0.00003901
   0.60000874 -0.00000874  0.19999185
   0.60000355 -0.00000355  0.40000000
   0.60000874 -0.00000874  0.60000815
   0.59988630  0.00011370  0.79996099
   0.60024297  0.20000000 -0.00000718
   0.59998254  0.20000000  0.19988681
   0.60001481  0.20000000  0.40000000
   0.59998254  0.20000000  0.60011319
   0.60024297  0.20000000  0.80000718
   0.59988630  0.39988630  0.00003901
   0.60000874  0.40000874  0.19999185
   0.60000355  0.40000355  0.40000000
   0.60000874  0.40000874  0.60000815
   0.59988630  0.39988630  0.79996099
   0.59999255  0.59997194 -0.00000238
   0.60000042  0.60000523  0.19998626
   0.59999711  0.60000506  0.40000000
   0.60000042  0.60000523  0.60001374
   0.59999255  0.59997194  0.80000238
   0.59999255  0.80002806 -0.00000238
   0.60000042  0.79999477  0.19998626
   0.59999711  0.79999494  0.40000000
   0.60000042  0.79999477  0.60001374
   0.59999255  0.80002806  0.80000238
   0.79997194  0.00000745 -0.00000238
   0.80000523 -0.00000042  0.19998626
   0.80000506  0.00000289  0.40000000
   0.80000523 -0.00000042  0.60001374
   0.79997194  0.00000745  0.80000238
   0.80016153  0.20000000 -0.00002223
   0.80000189  0.20000000  0.19999952
   0.79998802  0.20000000  0.40000000
   0.80000189  0.20000000  0.60000048
   0.80016153  0.20000000  0.80002223
   0.79997194  0.39999255 -0.00000238
   0.80000523  0.40000042  0.19998626
   0.80000506  0.39999711  0.40000000
   0.80000523  0.40000042  0.60001374
   0.79997194  0.39999255  0.80000238
   0.79999265  0.59999265 -0.00000614
   0.79998879  0.59998879  0.20000234
   0.79999210  0.59999210  0.40000000
   0.79998879  0.59998879  0.59999766
   0.79999265  0.59999265  0.80000614
   0.79999265  0.80000735 -0.00000614
   0.79998879  0.80001121  0.20000234
   0.79999210  0.80000790  0.40000000
   0.79998879  0.80001121  0.59999766
   0.79999265  0.80000735  0.80000614
   0.09997624  0.10000846  0.10001946
   0.10000776  0.10001764  0.30000690
   0.10000776  0.10001764  0.49999310
   0.09997624  0.10000846  0.69998054
   0.09996879  0.10005344  0.90000000
   0.09997624  0.29999154  0.10001946
   0.10000776  0.29998236  0.30000690
   0.10000776  0.29998236  0.49999310
   0.09997624  0.29999154  0.69998054
   0.09996879  0.29994656  0.90000000
   0.09998298  0.50001702  0.10001694
   0.09997928  0.50002072  0.30000568
   0.09997928  0.50002072  0.49999432
   0.09998298  0.50001702  0.69998306
   0.09999002  0.50000998  0.90000000
   0.09997299  0.70000000  0.09999546
   0.09997790  0.70000000  0.30001255
   0.09997790  0.70000000  0.49998745
   0.09997299  0.70000000  0.70000454
   0.09998035  0.70000000  0.90000000
   0.09998298  0.89998298  0.10001694
   0.09997928  0.89997928  0.30000568
   0.09997928  0.89997928  0.49999432
   0.09998298  0.89998298  0.69998306
   0.09999002  0.89999002  0.90000000
   0.29978211  0.09978211  0.10036100
   0.30003065  0.10003065  0.30003021
   0.30003065  0.10003065  0.49996979
   0.29978211  0.09978211  0.69963900
   0.29867206  0.09867206  0.90000000
   0.29978211  0.30021789  0.10036100
   0.30003065  0.29996935  0.30003021
   0.30003065  0.29996935  0.49996979
   0.29978211  0.30021789  0.69963900
   0.29867206  0.30132794  0.90000000
   0.30000846  0.50002376  0.10001946
   0.30001764  0.49999224  0.30000690
   0.30001764  0.49999224  0.49999310
   0.30000846  0.50002376  0.69998054
   0.30005344  0.50003121  0.90000000
   0.30000556  0.70000000  0.10001994
   0.30003030  0.70000000  0.30000485
   0.30003030  0.70000000  0.49999515
   0.30000556  0.70000000  0.69998006
   0.30000349  0.70000000  0.90000000
   0.30000846  0.89997624  0.10001946
   0.30001764  0.90000776  0.30000690
   0.30001764  0.90000776  0.49999310
   0.30000846  0.89997624  0.69998054
   0.30005344  0.89996879  0.90000000
   0.50021789  0.09978211  0.10036100
   0.49996935  0.10003065  0.30003021
   0.49996935  0.10003065  0.49996979
   0.50021789  0.09978211  0.69963900
   0.50132794  0.09867206  0.90000000
   0.50021789  0.30021789  0.10036100
   0.49996935  0.29996935  0.30003021
   0.49996935  0.29996935  0.49996979
   0.50021789  0.30021789  0.69963900
   0.50132794  0.30132794  0.90000000
   0.49999154  0.50002376  0.10001946
   0.49998236  0.49999224  0.30000690
   0.49998236  0.49999224  0.49999310
   0.49999154  0.50002376  0.69998054
   0.49994656  0.50003121  0.90000000
   0.49999444  0.70000000  0.10001994
   0.49996970  0.70000000  0.30000485
   0.49996970  0.70000000  0.49999515
   0.49999444  0.70000000  0.69998006
   0.49999651  0.70000000  0.90000000
   0.49999154  0.89997624  0.10001946
   0.49998236  0.90000776  0.30000690
   0.49998236  0.90000776  0.49999310
   0.49999154  0.89997624  0.69998054
   0.49994656  0.89996879  0.90000000
   0.70002376  0.10000846  0.10001946
   0.69999224  0.10001764  0.30000690
   0.69999224  0.10001764  0.49999310
   0.70002376  0.10000846  0.69998054
   0.70003121  0.10005344  0.90000000
   0.70002376  0.29999154  0.10001946
   0.69999224  0.29998236  0.30000690
   0.69999224  0.29998236  0.49999310
   0.70002376  0.29999154  0.69998054
   0.70003121  0.29994656  0.90000000
   0.70001702  0.50001702  0.10001694
   0.70002072  0.50002072  0.30000568
   0.70002072  0.50002072  0.49999432
   0.70001702  0.50001702  0.69998306
   0.70000998  0.50000998  0.90000000
   0.70002701  0.70000000  0.09999546
   0.70002210  0.70000000  0.30001255
   0.70002210  0.70000000  0.49998745
   0.70002701  0.70000000  0.70000454
   0.70001965  0.70000000  0.90000000
   0.70001702  0.89998298  0.10001694
   0.70002072  0.89997928  0.30000568
   0.70002072  0.89997928  0.49999432
   0.70001702  0.89998298  0.69998306
   0.70000998  0.89999002  0.90000000
   0.90000000  0.10000556  0.10001994
   0.90000000  0.10003030  0.30000485
   0.90000000  0.10003030  0.49999515
   0.90000000  0.10000556  0.69998006
   0.90000000  0.10000349  0.90000000
   0.90000000  0.29999444  0.10001994
   0.90000000  0.29996970  0.30000485
   0.90000000  0.29996970  0.49999515
   0.90000000  0.29999444  0.69998006
   0.90000000  0.29999651  0.90000000
   0.90000000  0.50002701  0.09999546
   0.90000000  0.50002210  0.30001255
   0.90000000  0.50002210  0.49998745
   0.90000000  0.50002701  0.70000454
   0.90000000  0.50001965  0.90000000
   0.90000000  0.70000000  0.10001669
   0.90000000  0.70000000  0.29999282
   0.90000000  0.70000000  0.50000718
   0.90000000  0.70000000  0.69998331
   0.90000000  0.70000000  0.90000000
   0.90000000  0.89997299  0.09999546
   0.90000000  0.89997790  0.30001255
   0.90000000  0.89997790  0.49998745
   0.90000000  0.89997299  0.70000454
   0.90000000  0.89998035  0.90000000
   0.40000000  0.20000000  0.90000000
Direct configuration=     3
   0.00003080  0.00000818 -0.00000262
  -0.00000574 -0.00000046  0.19998491
  -0.00000555  0.00000317  0.40000000
  -0.00000574 -0.00000046  0.60001509
   0.00003080  0.00000818  0.80000262
  -0.00017729  0.20000000 -0.00002440
  -0.00000207  0.20000000  0.19999948
   0.00001314  0.20000000  0.40000000
  -0.00000207  0.20000000  0.60000052
  -0.00017729  0.20000000  0.80002440
   0.00003080  0.39999182 -0.00000262
  -0.00000574  0.40000046  0.19998491
  -0.00000555  0.39999683  0.40000000
  -0.00000574  0.40000046  0.60001509
   0.00003080  0.39999182  0.80000262
   0.00000807  0.59999193 -0.00000674
   0.00001230  0.59998770  0.20000257
   0.00000867  0.59999133  0.40000000
   0.00001230  0.59998770  0.59999743
   0.00000807  0.59999193  0.80000674
   0.00000807  0.80000807 -0.00000674
   0.00001230  0.80001230  0.20000257
   0.00000867  0.80000867  0.40000000
   0.00001230  0.80001230  0.59999743
   0.00000807  0.80000807  0.80000674
   0.20012479  0.00012479  0.00004282
   0.19999040 -0.00000960  0.19999106
   0.19999610 -0.00000390  0.40000000
   0.19999040 -0.00000960  0.60000894
   0.20012479  0.00012479  0.79995718
   0.19973333  0.20000000 -0.00000788
   0.20001917  0.20000000  0.19987577
   0.19998375  0.20000000  0.40000000
   0.20001917  0.20000000  0.60012423
   0.19973333  0.20000000  0.80000788
   0.20012479  0.39987521  0.00004282
   0.19999040  0.40000960  0.19999106
   0.19999610  0.40000390  0.40000000
   0.19999040  0.40000960  0.60000894
   0.20012479  0.39987521  0.79995718
   0.20000818  0.59996920 -0.00000262
   0.19999954  0.60000574  0.19998491
   0.20000317  0.60000555  0.40000000
   0.19999954  0.60000574  0.60001509
   0.20000818  0.59996920  0.80000262
   0.20000818  0.80003080 -0.00000262
   0.19999954  0.79999426  0.19998491
   0.20000317  0.79999445  0.40000000
   0.19999954  0.79999426  0.60001509
   0.20000818  0.80003080  0.80000262
   0.40000000 -0.00026667 -0.00000788
   0.40000000  0.00001917  0.19987577
   0.40000000 -0.00001625  0.40000000
   0.40000000  0.00001917  0.60012423
   0.40000000 -0.00026667  0.80000788
   0.40000000  0.20000000  0.02544851
   0.40000000  0.20000000  0.19941112
   0.40000000  0.20000000  0.40000000
   0.40000000  0.20000000  0.60058888
   0.40000000  0.20000000  0.77455149
   0.40000000  0.40026667 -0.00000788
   0.40000000  0.39998083  0.19987577
   0.40000000  0.40001625  0.40000000
   0.40000000  0.39998083  0.60012423
   0.40000000  0.40026667  0.80000788
   0.40000000  0.60017729 -0.00002440
   0.40000000  0.60000207  0.19999948
   0.40000000  0.59998686  0.40000000
   0.40000000  0.60000207  0.60000052
   0.40000000  0.60017729  0.80002440
   0.40000000  0.79982271 -0.00002440
   0.40000000  0.79999793  0.19999948
   0.40000000  0.80001314  0.40000000
   0.40000000  0.79999793  0.60000052
   0.40000000  0.79982271  0.80002440
   0.59987521  0.00012479  0.00004282
   0.60000960 -0.00000960  0.19999106
   0.60000390 -0.00000390  0.40000000
   0.60000960 -0.00000960  0.60000894
   0.59987521  0.00012479  0.79995718
   0.60026667  0.20000000 -0.00000788
   0.59998083  0.20000000  0.19987577
   0.60001625  0.20000000  0.40000000
   0.59998083  0.20000000  0.60012423
   0.60026667  0.20000000  0.80000788
   0.59987521  0.39987521  0.00004282
   0.60000960  0.40000960  0.19999106
   0.60000390  0.40000390  0.40000000
   0.60000960  0.40000960  0.60000894
   0.59987521  0.39987521  0.79995718
   0.59999182  0.59996920 -0.00000262
   0.60000046  0.60000574  0.19998491
   0.59999683  0.60000555  0.40000000
   0.60000046  0.60000574  0.60001509
   0.59999182  0.59996920  0.80000262
   0.59999182  0.80003080 -0.00000262
   0.60000046  0.79999426  0.19998491
   0.59999683  0.79999445  0.40000000
   0.60000046  0.79999426  0.60001509
   0.59999182  0.80003080  0.80000262
   0.79996920  0.00000818 -0.00000262
   0.80000574 -0.00000046  0.19998491
   0.80000555  0.00000317  0.40000000
   0.80000574 -0.00000046  0.60001509
   0.79996920  0.00000818  0.80000262
   0.80017729  0.20000000 -0.00002440
   0.80000207  0.20000000  0.19999948
   0.79998686  0.20000000  0.40000000
   0.80000207  0.20000000  0.60000052
   0.80017729  0.20000000  0.80002440
   0.79996920  0.39999182 -0.00000262
   0.80000574  0.40000046  0.19998491
   0.80000555  0.39999683  0.40000000
   0.80000574  0.40000046  0.60001509
   0.79996920  0.39999182  0.80000262
   0.79999193  0.59999193 -0.00000674
   0.79998770  0.59998770  0.20000257
   0.79999133  0.59999133  0.40000000
   0.79998770  0.59998770  0.59999743
   0.79999193  0.59999193  0.80000674
   0.79999193  0.80000807 -0.00000674
   0.79998770  0.80001230  0.20000257
   0.79999133  0.80000867  0.40000000
   0.79998770  0.80001230  0.59999743
   0.79999193  0.80000807  0.80000674
   0.09997392  0.10000929  0.10002136
   0.10000852  0.10001937  0.30000757
   0.10000852  0.10001937  0.49999243
   0.09997392  0.10000929  0.69997864
   0.09996575  0.10005866  0.90000000
   0.09997392  0.29999071  0.10002136
   0.10000852  0.29998063  0.30000757
   0.10000852  0.29998063  0.49999243
   0.09997392  0.29999071  0.69997864
   0.09996575  0.29994134  0.90000000
   0.09998132  0.50001868  0.10001860
   0.09997726  0.50002274  0.30000624
   0.09997726  0.50002274  0.49999376
   0.09998132  0.50001868  0.69998140
   0.09998905  0.50001095  0.90000000
   0.09997036  0.70000000  0.09999501
   0.09997574  0.70000000  0.30001378
   0.09997574  0.70000000  0.49998622
   0.09997036  0.70000000  0.70000499
   0.09997843  0.70000000  0.90000000
   0.09998132  0.89998132  0.10001860
   0.09997726  0.89997726  0.30000624
   0.09997726  0.89997726  0.49999376
   0.09998132  0.89998132  0.69998140
   0.09998905  0.89998905  0.90000000
   0.29976085  0.09976085  0.10039621
   0.30003364  0.10003364  0.30003316
   0.30003364  0.10003364  0.49996684
   0.29976085  0.09976085  0.69960379
   0.29854254  0.09854254  0.90000000
   0.29976085  0.30023915  0.10039621
   0.30003364  0.29996636  0.30003316
   0.30003364  0.29996636  0.49996684
   0.29976085  0.30023915  0.69960379
   0.29854254  0.30145746  0.90000000
   0.30000929  0.50002608  0.10002136
   0.30001937  0.49999148  0.30000757
   0.30001937  0.49999148  0.49999243
   0.30000929  0.50002608  0.69997864
   0.30005866  0.50003425  0.90000000
   0.30000610  0.70000000  0.10002188
   0.30003325  0.70000000  0.30000533
   0.30003325  0.70000000  0.49999467
   0.30000610  0.70000000  0.69997812
   0.30000383  0.70000000  0.90000000
   0.30000929  0.89997392  0.10002136
   0.30001937  0.90000852  0.30000757
   0.30001937  0.90000852  0.49999243
   0.30000929  0.89997392  0.69997864
   0.30005866  0.89996575  0.90000000
   0.50023915  0.09976085  0.10039621
   0.49996636  0.10003364  0.30003316
   0.49996636  0.10003364  0.49996684
   0.50023915  0.09976085  0.69960379
   0.50145746  0.09854254  0.90000000
   0.50023915  0.30023915  0.10039621
   0.49996636  0.29996636  0.30003316
   0.49996636  0.29996636  0.49996684
   0.50023915  0.30023915  0.69960379
   0.50145746  0.30145746  0.90000000
   0.49999071  0.50002608  0.10002136
   0.49998063  0.49999148  0.30000757
   0.49998063  0.49999148  0.49999243
   0.49999071  0.50002608  0.69997864
   0.49994134  0.50003425  0.90000000
   0.49999390  0.70000000  0.10002188
   0.49996675  0.70000000  0.30000533
   0.49996675  0.70000000  0.49999467
   0.49999390  0.70000000  0.69997812
   0.49999617  0.70000000  0.90000000
   0.49999071  0.89997392  0.10002136
   0.49998063  0.90000852  0.30000757
   0.49998063  0.90000852  0.49999243
   0.49999071  0.89997392  0.69997864
   0.49994134  0.89996575  0.90000000
   0.70002608  0.10000929  0.10002136
   0.69999148  0.10001937  0.30000757
   0.69999148  0.10001937  0.49999243
   0.70002608  0.10000929  0.69997864
   0.70003425  0.10005866  0.90000000
   0.70002608  0.29999071  0.10002136
   0.69999148  0.29998063  0.30000757
   0.69999148  0.29998063  0.49999243
   0.70002608  0.29999071  0.69997864
   0.70003425  0.29994134  0.90000000
   0.70001868  0.50001868  0.10001860
   0.70002274  0.50002274  0.30000624
   0.70002274  0.50002274  0.49999376
   0.70001868  0.50001868  0.69998140
   0.70001095  0.50001095  0.90000000
   0.70002964  0.70000000  0.09999501
   0.70002426  0.70000000  0.30001378
   0.70002426  0.70000000  0.49998622
   0.70002964  0.70000000  0.70000499
   0.70002157  0.70000000  0.90000000
   0.70001868  0.89998132  0.10001860
   0.70002274  0.89997726  0.30000624
   0.70002274  0.89997726  0.49999376
   0.70001868  0.89998132  0.69998140
   0.70001095  0.89998905  0.90000000
   0.90000000  0.10000610  0.10002188
   0.90000000  0.10003325  0.30000533
   0.90000000  0.10003325  0.49999467
   0.90000000  0.10000610  0.69997812
   0.90000000  0.10000383  0.90000000
   0.90000000  0.29999390  0.10002188
   0.90000000  0.29996675  0.30000533
   0.90000000  0.29996675  0.49999467
   0.90000000  0.29999390  0.69997812
   0.90000000  0.29999617  0.90000000
   0.90000000  0.50002964  0.09999501
   0.90000000  0.50002426  0.30001378
   0.90000000  0.50002426  0.49998622
   0.90000000  0.50002964  0.70000499
   0.90000000  0.50002157  0.90000000
   0.90000000  0.70000000  0.10001832
   0.90000000  0.70000000  0.29999212
   0.90000000  0.70000000  0.50000788
   0.90000000  0.70000000  0.69998168
   0.90000000  0.70000000  0.90000000
   0.90000000  0.89997036  0.09999501
   0.90000000  0.89997574  0.30001378
   0.90000000  0.89997574  0.49998622
   0.90000000  0.89997036  0.70000499
   0.90000000  0.89997843  0.90000000
   0.40000000  0.20000000  0.90000000
Direct configuration=     4
   0.00002979  0.00000791 -0.00000253
  -0.00000555 -0.00000044  0.19998541
  -0.00000537  0.00000306  0.40000000
  -0.00000555 -0.00000044  0.60001459
   0.00002979  0.00000791  0.80000253
  -0.00017148  0.20000000 -0.00002360
  -0.00000200  0.20000000  0.19999949
   0.00001271  0.20000000  0.40000000
  -0.00000200  0.20000000  0.60000051
  -0.00017148  0.20000000  0.80002360
   0.00002979  0.39999209 -0.00000253
  -0.00000555  0.40000044  0.19998541
  -0.00000537  0.39999694  0.40000000
  -0.00000555  0.40000044  0.60001459
   0.00002979  0.39999209  0.80000253
   0.00000781  0.59999219 -0.00000652
   0.00001190  0.59998810  0.20000249
   0.00000838  0.59999162  0.40000000
   0.00001190  0.59998810  0.59999751
   0.00000781  0.59999219  0.80000652
   0.00000781  0.80000781 -0.00000652
   0.00001190  0.80001190  0.20000249
   0.00000838  0.80000838  0.40000000
   0.00001190  0.80001190  0.59999751
   0.00000781  0.80000781  0.80000652
   0.20012071  0.00012071  0.00004142
   0.19999072 -0.00000928  0.19999135
   0.19999623 -0.00000377  0.40000000