LAMMPS (24 Mar 2022)
OMP_NUM_THREADS environment is not set. Defaulting to 1 thread. (src/comm.cpp:98)
  using 1 OpenMP thread(s) per MPI task
Reading data file ...
  orthogonal box = (0 0 0) to (16.198 16.198 16.198)
  1 by 1 by 1 MPI processor grid
  reading atoms ...
  256 atoms
  read_data CPU = 0.001 seconds
WARNING: Using 'neigh_modify every 1 delay 0 check yes' setting during minimization (src/min.cpp:187)
Neighbor list info ...
  update every 1 steps, delay 0 steps, check yes
  max neighbors/atom: 2000, page size: 100000
  master list distance cutoff = 8.28721
  ghost atom cutoff = 8.28721
  binsize = 4.143605, bins = 4 4 4
  1 neighbor lists, perpetual/occasional/extra = 1 0 0
  (1) pair eam/alloy, perpetual
      attributes: half, newton on
      pair build: half/bin/atomonly/newton
      stencil: half/bin/3d
      bin: standard
Setting up cg style minimization ...
  Unit style    : metal
  Current step  : 0
Per MPI rank memory allocation (min/avg/max) = 4.536 | 4.536 | 4.536 Mbytes
   Step          Temp          E_pair         E_mol          TotEng         Press     
         0   0             -859.88068      0             -859.88068      437.35643    
Loop time of 3.119e-06 on 1 procs for 0 steps with 256 atoms

96.2% CPU use with 1 MPI tasks x 1 OpenMP threads

Minimization stats:
  Stopping criterion = max iterations
  Energy initial, next-to-last, final = 
     -859.880676002348                  0  -859.880676002348
  Force two-norm initial, final = 1.523159 1.523159
  Force max component initial, final = 1.0972444 1.0972444
  Final line search alpha, max atom move = 0 0
  Iterations, force evaluations = 0 0

MPI task timing breakdown:
Section |  min time  |  avg time  |  max time  |%varavg| %total
---------------------------------------------------------------
Pair    | 0          | 0          | 0          |   0.0 |  0.00
Neigh   | 0          | 0          | 0          |   0.0 |  0.00
Comm    | 0          | 0          | 0          |   0.0 |  0.00
Output  | 0          | 0          | 0          |   0.0 |  0.00
Modify  | 0          | 0          | 0          |   0.0 |  0.00
Other   |            | 3.119e-06  |            |       |100.00

Nlocal:            256 ave         256 max         256 min
Histogram: 1 0 0 0 0 0 0 0 0 0
Nghost:           2201 ave        2201 max        2201 min
Histogram: 1 0 0 0 0 0 0 0 0 0
Neighs:          17919 ave       17919 max       17919 min
Histogram: 1 0 0 0 0 0 0 0 0 0

Total # of neighbors = 17919
Ave neighs/atom = 69.996094
Neighbor list builds = 0
Dangerous builds = 0
Setting up Verlet run ...
  Unit style    : metal
  Current step  : 0
  Time step     : 0.01
Per MPI rank memory allocation (min/avg/max) = 4.421 | 4.421 | 4.421 Mbytes
   Step          Temp          E_pair         E_mol          TotEng         Press     
         0   300           -859.88068      0             -849.99227      2922.5544    
       100   141.81457     -854.45581      0             -849.78141      4729.7056    
       200   161.31457     -855.12409      0             -849.80694      4482.1463    
       300   166.09459     -855.29282      0             -849.81812      4468.701     
       400   159.85278     -855.07631      0             -849.80735      4496.4451    
       500   160.52141     -855.08321      0             -849.79221      4505.1042    
       600   154.60628     -854.88305      0             -849.78702      4522.3269    
       700   154.21853     -854.8792       0             -849.79595      4424.3341    
       800   145.69702     -854.58746      0             -849.78509      4802.9584    
       900   148.63726     -854.68519      0             -849.78591      4399.6704    
      1000   156.49456     -854.95714      0             -849.79887      4589.6375    
      1100   153.00295     -854.83211      0             -849.78893      4477.6293    
      1200   161.71134     -855.13112      0             -849.8009       4325.4291    
      1300   153.7567      -854.86294      0             -849.79492      4454.0375    
      1400   153.18787     -854.84421      0             -849.79494      4698.8093    
      1500   155.30887     -854.91139      0             -849.7922       4513.8597    
      1600   160.8634      -855.11115      0             -849.80888      4590.9057    
      1700   154.8823      -854.89845      0             -849.79332      4775.5058    
      1800   165.96931     -855.28071      0             -849.81014      4389.6812    
      1900   147.93762     -854.67029      0             -849.79407      4652.9295    
      2000   158.64175     -855.02664      0             -849.7976       4621.7018    
      2100   156.05422     -854.93537      0             -849.79161      4638.3018    
      2200   153.60712     -854.86633      0             -849.80323      4601.8032    
      2300   153.87693     -854.86522      0             -849.79323      4385.9135    
      2400   150.29151     -854.75331      0             -849.7995       4526.1672    
      2500   158.42041     -855.02705      0             -849.8053       4304.099     
      2600   163.80138     -855.21195      0             -849.81283      4310.5816    
      2700   162.28303     -855.17074      0             -849.82168      4336.0869    
      2800   152.64112     -854.84016      0             -849.8089       4462.3664    
      2900   150.2669      -854.74441      0             -849.79141      4678.3387    
      3000   156.50427     -854.95383      0             -849.79524      4508.1269    
      3100   147.70321     -854.65587      0             -849.78737      4796.0129    
      3200   156.61058     -854.96121      0             -849.79912      4387.2311    
      3300   152.18945     -854.80577      0             -849.7894       4526.6681    
      3400   141.53618     -854.44259      0             -849.77736      4762.1951    
      3500   162.80814     -855.1827       0             -849.81633      4479.8114    
      3600   146.88218     -854.63647      0             -849.79504      4605.1361    
      3700   151.55125     -854.79328      0             -849.79795      4534.6508    
      3800   162.79121     -855.17968      0             -849.81386      4347.1856    
      3900   154.7774      -854.89668      0             -849.79501      4546.3719    
      4000   158.35006     -855.02688      0             -849.80745      4525.2077    
      4100   146.11158     -854.60903      0             -849.793        4671.6173    
      4200   167.04115     -855.32647      0             -849.82057      4274.5098    
      4300   148.57736     -854.69703      0             -849.79972      4572.1219    
      4400   157.54925     -855.00798      0             -849.81494      4486.9532    
      4500   158.01047     -855.02456      0             -849.81632      4599.8508    
      4600   155.45983     -854.92388      0             -849.79971      4633.828     
      4700   149.20145     -854.71182      0             -849.79394      4744.0069    
      4800   154.82624     -854.9113       0             -849.80802      4618.0092    
      4900   154.80836     -854.90857      0             -849.80587      4680.7045    
      5000   149.01394     -854.70818      0             -849.79648      4584.4686    
      5100   155.94124     -854.94348      0             -849.80345      4627.3618    
      5200   150.45568     -854.75258      0             -849.79336      4592.0376    
      5300   156.75565     -854.97343      0             -849.80655      4649.6612    
      5400   154.9195      -854.90117      0             -849.79481      4535.6359    
      5500   152.27764     -854.81939      0             -849.80012      4611.3413    
      5600   157.49119     -854.9988       0             -849.80768      4524.1518    
      5700   154.11889     -854.87653      0             -849.79657      4785.0714    
      5800   147.82177     -854.66817      0             -849.79577      4684.7875    
      5900   159.55414     -855.07463      0             -849.81551      4363.8309    
      6000   155.36568     -854.9315       0             -849.81044      4465.7961    
      6100   161.55945     -855.14774      0             -849.82253      4416.9426    
      6200   155.57789     -854.93378      0             -849.80573      4400.4352    
      6300   151.46535     -854.79487      0             -849.80237      4401.6823    
      6400   151.66058     -854.80145      0             -849.80251      4471.757     
      6500   149.62588     -854.72654      0             -849.79467      4568.7714    
      6600   160.50246     -855.09453      0             -849.80415      4386.9252    
      6700   152.38735     -854.81696      0             -849.79407      4680.4904    
      6800   155.00792     -854.90721      0             -849.79794      4430.9861    
      6900   143.31286     -854.50374      0             -849.77995      4849.4747    
      7000   149.32157     -854.71579      0             -849.79396      4726.6191    
      7100   154.90677     -854.9067       0             -849.80077      4564.0688    
      7200   147.58445     -854.65807      0             -849.79349      4706.8985    
      7300   146.47861     -854.61889      0             -849.79076      4627.6486    
      7400   147.43207     -854.63979      0             -849.78023      4520.373     
      7500   152.01027     -854.8116       0             -849.80114      4583.3847    
      7600   151.93614     -854.79372      0             -849.7857       4628.7654    
      7700   151.21512     -854.77842      0             -849.79417      4583.3109    
      7800   162.89222     -855.18638      0             -849.81723      4197.7697    
      7900   148.87944     -854.69671      0             -849.78944      4368.8398    
      8000   152.40918     -854.81821      0             -849.7946       4783.7992    
      8100   140.27711     -854.38882      0             -849.7651       4754.3616    
      8200   153.98655     -854.86453      0             -849.78893      4569.719     
      8300   144.95961     -854.56138      0             -849.78332      4714.8887    
      8400   167.78111     -855.32782      0             -849.79753      4579.7547    
      8500   149.70828     -854.72533      0             -849.79075      4729.0541    
      8600   159.68808     -855.06184      0             -849.7983       4482.4381    
      8700   153.76285     -854.86609      0             -849.79786      4429.5623    
      8800   162.11616     -855.14678      0             -849.80321      4557.6255    
      8900   162.85456     -855.17013      0             -849.80222      4424.9292    
      9000   167.48303     -855.32536      0             -849.8049       4348.0973    
      9100   155.42559     -854.9113       0             -849.78826      4460.6317    
      9200   157.61042     -854.98467      0             -849.78962      4492.9992    
      9300   146.52903     -854.60706      0             -849.77727      4748.0152    
      9400   160.35044     -855.08093      0             -849.79557      4432.1005    
      9500   149.8843      -854.73447      0             -849.79408      4815.9875    
      9600   155.53992     -854.91924      0             -849.79243      4607.4521    
      9700   158.6354      -855.0269       0             -849.79806      4410.8943    
      9800   144.6714      -854.55974      0             -849.79118      4737.1262    
      9900   164.67116     -855.23846      0             -849.81068      4402.3602    
     10000   149.45799     -854.72825      0             -849.80191      4435.7408    
Loop time of 5.22193 on 1 procs for 10000 steps with 256 atoms

Performance: 1654.561 ns/day, 0.015 hours/ns, 1915.001 timesteps/s
99.7% CPU use with 1 MPI tasks x 1 OpenMP threads

MPI task timing breakdown:
Section |  min time  |  avg time  |  max time  |%varavg| %total
---------------------------------------------------------------
Pair    | 4.9131     | 4.9131     | 4.9131     |   0.0 | 94.09
Neigh   | 0          | 0          | 0          |   0.0 |  0.00
Comm    | 0.085956   | 0.085956   | 0.085956   |   0.0 |  1.65
Output  | 0.17763    | 0.17763    | 0.17763    |   0.0 |  3.40
Modify  | 0.022315   | 0.022315   | 0.022315   |   0.0 |  0.43
Other   |            | 0.02294    |            |       |  0.44

Nlocal:            256 ave         256 max         256 min
Histogram: 1 0 0 0 0 0 0 0 0 0
Nghost:           2201 ave        2201 max        2201 min
Histogram: 1 0 0 0 0 0 0 0 0 0
Neighs:          17919 ave       17919 max       17919 min
Histogram: 1 0 0 0 0 0 0 0 0 0

Total # of neighbors = 17919
Ave neighs/atom = 69.996094
Neighbor list builds = 0
Dangerous builds = 0
System init for write_restart ...
Total wall time: 0:00:05
