 251 251   0   0
  0.1214592E+02  0.1450000E-08  0.1450000E-08  0.1450000E-08  0.2000000E-15
  1.000000000000000E-004
  CAR 
 NiAl                                    
     11.95016246    -10.68382124  301      6.77504572      1.00000000
    -10.684  0.0000E+00  0.0000E+00
    -10.608  0.0000E+00  0.0000E+00
    -10.533  0.0000E+00  0.0000E+00
    -10.457  0.0000E+00  0.0000E+00
    -10.382  0.0000E+00  0.0000E+00
    -10.307  0.0000E+00  0.0000E+00
    -10.231  0.0000E+00  0.0000E+00
    -10.156  0.0000E+00  0.0000E+00
    -10.080  0.0000E+00  0.0000E+00
    -10.005  0.0000E+00  0.0000E+00
     -9.929  0.2791E-14  0.2106E-15
     -9.854  0.6089E-08  0.4594E-09
     -9.778  0.1584E-03  0.1195E-04
     -9.703  0.5757E-01  0.4356E-02
     -9.628  0.4598E+00  0.3904E-01
     -9.552  0.1440E+00  0.4991E-01
     -9.477  0.1201E-02  0.5000E-01
     -9.401  0.1518E-06  0.5000E-01
     -9.326  0.2360E-12  0.5000E-01
     -9.250  0.0000E+00  0.5000E-01
     -9.175  0.0000E+00  0.5000E-01
     -9.099  0.0000E+00  0.5000E-01
     -9.024  0.0000E+00  0.5000E-01
     -8.949  0.0000E+00  0.5000E-01
     -8.873  0.0000E+00  0.5000E-01
     -8.798  0.0000E+00  0.5000E-01
     -8.722  0.0000E+00  0.5000E-01
     -8.647  0.0000E+00  0.5000E-01
     -8.571  0.0000E+00  0.5000E-01
     -8.496  0.0000E+00  0.5000E-01
     -8.420  0.0000E+00  0.5000E-01
     -8.345  0.0000E+00  0.5000E-01
     -8.270  0.0000E+00  0.5000E-01
     -8.194  0.0000E+00  0.5000E-01
     -8.119  0.0000E+00  0.5000E-01
     -8.043  0.0000E+00  0.5000E-01
     -7.968  0.0000E+00  0.5000E-01
     -7.892  0.0000E+00  0.5000E-01
     -7.817  0.0000E+00  0.5000E-01
     -7.741  0.0000E+00  0.5000E-01
     -7.666  0.0000E+00  0.5000E-01
     -7.591  0.0000E+00  0.5000E-01
     -7.515  0.0000E+00  0.5000E-01
     -7.440  0.0000E+00  0.5000E-01
     -7.364  0.0000E+00  0.5000E-01
     -7.289  0.0000E+00  0.5000E-01
     -7.213  0.0000E+00  0.5000E-01
     -7.138  0.0000E+00  0.5000E-01
     -7.062  0.0000E+00  0.5000E-01
     -6.987  0.0000E+00  0.5000E-01
     -6.911  0.0000E+00  0.5000E-01
     -6.836  0.0000E+00  0.5000E-01
     -6.761  0.0000E+00  0.5000E-01
     -6.685  0.0000E+00  0.5000E-01
     -6.610  0.0000E+00  0.5000E-01
     -6.534  0.0000E+00  0.5000E-01
     -6.459  0.0000E+00  0.5000E-01
     -6.383  0.0000E+00  0.5000E-01
     -6.308  0.0000E+00  0.5000E-01
     -6.232  0.0000E+00  0.5000E-01
     -6.157  0.0000E+00  0.5000E-01
     -6.082  0.0000E+00  0.5000E-01
     -6.006  0.0000E+00  0.5000E-01
     -5.931  0.0000E+00  0.5000E-01
     -5.855  0.0000E+00  0.5000E-01
     -5.780  0.0000E+00  0.5000E-01
     -5.704  0.0000E+00  0.5000E-01
     -5.629  0.0000E+00  0.5000E-01
     -5.553  0.0000E+00  0.5000E-01
     -5.478  0.0000E+00  0.5000E-01
     -5.403  0.0000E+00  0.5000E-01
     -5.327  0.0000E+00  0.5000E-01
     -5.252  0.0000E+00  0.5000E-01
     -5.176  0.0000E+00  0.5000E-01
     -5.101  0.0000E+00  0.5000E-01
     -5.025  0.0000E+00  0.5000E-01
     -4.950  0.0000E+00  0.5000E-01
     -4.874  0.0000E+00  0.5000E-01
     -4.799  0.0000E+00  0.5000E-01
     -4.724  0.0000E+00  0.5000E-01
     -4.648  0.0000E+00  0.5000E-01
     -4.573  0.0000E+00  0.5000E-01
     -4.497  0.0000E+00  0.5000E-01
     -4.422  0.5480E-11  0.5000E-01
     -4.346  0.7383E-06  0.5000E-01
     -4.271  0.1285E-02  0.5010E-01
     -4.195  0.3939E-01  0.5307E-01
     -4.120  0.4384E-01  0.5638E-01
     -4.045  0.1267E+00  0.6594E-01
     -3.969  0.3023E+00  0.8875E-01
     -3.894  0.1965E+00  0.1036E+00
     -3.818  0.5468E+00  0.1448E+00
     -3.743  0.3028E+00  0.1677E+00
     -3.667  0.3800E+00  0.1963E+00
     -3.592  0.2128E+00  0.2124E+00
     -3.516  0.1802E+00  0.2260E+00
     -3.441  0.3089E+00  0.2493E+00
     -3.365  0.3561E+00  0.2762E+00
     -3.290  0.1190E+01  0.3659E+00
     -3.215  0.4447E+00  0.3995E+00
     -3.139  0.1110E+01  0.4832E+00
     -3.064  0.7104E+00  0.5368E+00
     -2.988  0.1622E+00  0.5491E+00
     -2.913  0.1119E+00  0.5575E+00
     -2.837  0.1676E+00  0.5702E+00
     -2.762  0.6045E+00  0.6158E+00
     -2.686  0.3743E+00  0.6440E+00
     -2.611  0.1295E+01  0.7417E+00
     -2.536  0.8757E+00  0.8078E+00
     -2.460  0.7921E+00  0.8676E+00
     -2.385  0.1123E+01  0.9523E+00
     -2.309  0.6051E+00  0.9979E+00
     -2.234  0.1328E+01  0.1098E+01
     -2.158  0.3276E+00  0.1123E+01
     -2.083  0.4191E+00  0.1154E+01
     -2.007  0.2941E+00  0.1177E+01
     -1.932  0.1176E+01  0.1265E+01
     -1.857  0.7583E+00  0.1323E+01
     -1.781  0.1821E+01  0.1460E+01
     -1.706  0.1771E+01  0.1594E+01
     -1.630  0.8795E-01  0.1600E+01
     -1.555  0.1480E+00  0.1611E+01
     -1.479  0.3823E+00  0.1640E+01
     -1.404  0.3629E+00  0.1668E+01
     -1.328  0.7515E+00  0.1724E+01
     -1.253  0.2340E+01  0.1901E+01
     -1.178  0.1115E+01  0.1985E+01
     -1.102  0.1487E+01  0.2097E+01
     -1.027  0.1173E+01  0.2186E+01
     -0.951  0.1263E+01  0.2281E+01
     -0.876  0.9179E+00  0.2350E+01
     -0.800  0.9394E+00  0.2421E+01
     -0.725  0.1265E+01  0.2517E+01
     -0.649  0.1585E+01  0.2636E+01
     -0.574  0.1916E+01  0.2781E+01
     -0.499  0.1162E+01  0.2868E+01
     -0.423  0.6410E+00  0.2917E+01
     -0.348  0.4985E+00  0.2954E+01
     -0.272  0.4248E+00  0.2986E+01
     -0.197  0.1061E+01  0.3066E+01
     -0.121  0.1085E+01  0.3148E+01
     -0.046  0.1298E+01  0.3246E+01
      0.030  0.1513E+01  0.3360E+01
      0.105  0.3150E+01  0.3598E+01
      0.180  0.1794E+01  0.3733E+01
      0.256  0.1009E+01  0.3810E+01
      0.331  0.1179E+01  0.3898E+01
      0.407  0.1453E+01  0.4008E+01
      0.482  0.3242E+01  0.4253E+01
      0.558  0.2102E+01  0.4411E+01
      0.633  0.5446E+00  0.4452E+01
      0.709  0.1050E+01  0.4532E+01
      0.784  0.1153E+01  0.4619E+01
      0.860  0.2194E+01  0.4784E+01
      0.935  0.2436E+01  0.4968E+01
      1.010  0.2793E+01  0.5179E+01
      1.086  0.1575E+01  0.5297E+01
      1.161  0.1299E+01  0.5396E+01
      1.237  0.2123E+01  0.5556E+01
      1.312  0.2194E+01  0.5721E+01
      1.388  0.1436E+01  0.5830E+01
      1.463  0.1918E+01  0.5974E+01
      1.539  0.1197E+01  0.6065E+01
      1.614  0.8586E+00  0.6129E+01
      1.689  0.3667E+01  0.6406E+01
      1.765  0.3929E+01  0.6702E+01
      1.840  0.2931E+01  0.6924E+01
      1.916  0.1262E+01  0.7019E+01
      1.991  0.9934E+00  0.7094E+01
      2.067  0.2151E+01  0.7256E+01
      2.142  0.3304E+01  0.7505E+01
      2.218  0.3248E+01  0.7750E+01
      2.293  0.1280E+01  0.7847E+01
      2.368  0.8996E+00  0.7915E+01
      2.444  0.1869E+01  0.8056E+01
      2.519  0.2287E+01  0.8228E+01
      2.595  0.2529E+01  0.8419E+01
      2.670  0.3488E+01  0.8682E+01
      2.746  0.1898E+01  0.8826E+01
      2.821  0.3764E+01  0.9110E+01
      2.897  0.7171E+01  0.9651E+01
      2.972  0.7068E+01  0.1018E+02
      3.047  0.4857E+01  0.1055E+02
      3.123  0.6761E+01  0.1106E+02
      3.198  0.5500E+01  0.1148E+02
      3.274  0.4056E+01  0.1178E+02
      3.349  0.4229E+01  0.1210E+02
      3.425  0.6252E+01  0.1257E+02
      3.500  0.4731E+01  0.1293E+02
      3.576  0.4719E+01  0.1329E+02
      3.651  0.8990E+01  0.1396E+02
      3.726  0.1248E+02  0.1490E+02
      3.802  0.8869E+01  0.1557E+02
      3.877  0.9926E+01  0.1632E+02
      3.953  0.1101E+02  0.1715E+02
      4.028  0.6797E+01  0.1767E+02
      4.104  0.8151E+01  0.1828E+02
      4.179  0.6700E+01  0.1879E+02
      4.255  0.5805E+01  0.1922E+02
      4.330  0.7548E+01  0.1979E+02
      4.406  0.9878E+01  0.2054E+02
      4.481  0.1438E+02  0.2162E+02
      4.556  0.1512E+02  0.2277E+02
      4.632  0.1149E+02  0.2363E+02
      4.707  0.1523E+02  0.2478E+02
      4.783  0.2234E+02  0.2647E+02
      4.858  0.3067E+02  0.2878E+02
      4.934  0.2324E+02  0.3053E+02
      5.009  0.1860E+02  0.3194E+02
      5.085  0.1249E+02  0.3288E+02
      5.160  0.1448E+02  0.3397E+02
      5.235  0.1392E+02  0.3502E+02
      5.311  0.9739E+01  0.3576E+02
      5.386  0.4819E+01  0.3612E+02
      5.462  0.3881E+01  0.3641E+02
      5.537  0.2744E+01  0.3662E+02
      5.613  0.2096E+01  0.3678E+02
      5.688  0.7168E+00  0.3683E+02
      5.764  0.1885E+01  0.3697E+02
      5.839  0.2332E+01  0.3715E+02
      5.914  0.2328E+01  0.3733E+02
      5.990  0.2318E+01  0.3750E+02
      6.065  0.3944E+01  0.3780E+02
      6.141  0.7953E+01  0.3840E+02
      6.216  0.4477E+01  0.3874E+02
      6.292  0.4443E+01  0.3907E+02
      6.367  0.5897E+01  0.3952E+02
      6.443  0.4612E+01  0.3986E+02
      6.518  0.4015E+01  0.4017E+02
      6.593  0.2715E+01  0.4037E+02
      6.669  0.2505E+01  0.4056E+02
      6.744  0.1700E+01  0.4069E+02
      6.820  0.2243E+01  0.4086E+02
      6.895  0.2534E+01  0.4105E+02
      6.971  0.1243E+01  0.4114E+02
      7.046  0.1966E+01  0.4129E+02
      7.122  0.2002E+01  0.4144E+02
      7.197  0.2186E+01  0.4161E+02
      7.272  0.2427E+01  0.4179E+02
      7.348  0.2598E+01  0.4199E+02
      7.423  0.3849E+01  0.4228E+02
      7.499  0.1145E+01  0.4236E+02
      7.574  0.1132E+01  0.4245E+02
      7.650  0.1309E+01  0.4255E+02
      7.725  0.7164E+00  0.4260E+02
      7.801  0.1403E+01  0.4271E+02
      7.876  0.1018E+01  0.4278E+02
      7.951  0.1254E+01  0.4288E+02
      8.027  0.5544E+00  0.4292E+02
      8.102  0.5522E+00  0.4296E+02
      8.178  0.1915E+00  0.4298E+02
      8.253  0.5825E+00  0.4302E+02
      8.329  0.8838E+00  0.4309E+02
      8.404  0.4241E+00  0.4312E+02
      8.480  0.7492E+00  0.4318E+02
      8.555  0.8678E+00  0.4324E+02
      8.631  0.2040E+01  0.4340E+02
      8.706  0.2511E+01  0.4359E+02
      8.781  0.4296E+01  0.4391E+02
      8.857  0.3576E+01  0.4418E+02
      8.932  0.2711E+01  0.4438E+02
      9.008  0.2081E+01  0.4454E+02
      9.083  0.1965E+01  0.4469E+02
      9.159  0.3254E+01  0.4493E+02
      9.234  0.2446E+01  0.4512E+02
      9.310  0.2067E+01  0.4528E+02
      9.385  0.1178E+01  0.4536E+02
      9.460  0.1532E+01  0.4548E+02
      9.536  0.3078E+01  0.4571E+02
      9.611  0.5360E+01  0.4612E+02
      9.687  0.2705E+01  0.4632E+02
      9.762  0.1327E+01  0.4642E+02
      9.838  0.3727E+01  0.4670E+02
      9.913  0.4235E+01  0.4702E+02
      9.989  0.1624E+01  0.4714E+02
     10.064  0.9199E+00  0.4721E+02
     10.139  0.1070E+01  0.4729E+02
     10.215  0.2689E+01  0.4750E+02
     10.290  0.3687E+01  0.4777E+02
     10.366  0.2435E+01  0.4796E+02
     10.441  0.1140E+01  0.4804E+02
     10.517  0.1902E+01  0.4819E+02
     10.592  0.2497E+01  0.4838E+02
     10.668  0.2198E+01  0.4854E+02
     10.743  0.2238E+01  0.4871E+02
     10.818  0.1062E+01  0.4879E+02
     10.894  0.6786E+00  0.4884E+02
     10.969  0.7121E+00  0.4890E+02
     11.045  0.5244E-01  0.4890E+02
     11.120  0.9924E-04  0.4890E+02
     11.196  0.2985E-08  0.4890E+02
     11.271  0.1140E-14  0.4890E+02
     11.347  0.0000E+00  0.4890E+02
     11.422  0.0000E+00  0.4890E+02
     11.497  0.0000E+00  0.4890E+02
     11.573  0.0000E+00  0.4890E+02
     11.648  0.0000E+00  0.4890E+02
     11.724  0.0000E+00  0.4890E+02
     11.799  0.0000E+00  0.4890E+02
     11.875  0.0000E+00  0.4890E+02
     11.950  0.0000E+00  0.4890E+02
