         259
 Energy:  -1309.5902851000001     
 X   0.00000000       0.00000000       0.00000000    
 X   14.5000000       0.00000000       0.00000000    
 X   0.00000000       14.5000000       0.00000000    
 X   0.00000000       0.00000000       14.5000000    
 X   14.5000000       14.5000000       0.00000000    
 X   14.5000000       0.00000000       14.5000000    
 X   0.00000000       14.5000000       14.5000000    
 X   14.5000000       14.5000000       14.5000000    
 Ni   0.00000000       0.00000000       0.00000000    
 Ni   0.00000000       0.00000000       2.90000010    
 Ni   0.00000000       0.00000000       5.80000019    
 Ni   0.00000000       0.00000000       8.69999981    
 Ni   0.00000000       0.00000000       11.6000004    
 Ni   0.00000000       2.90000010       0.00000000    
 Ni   0.00000000       2.90000010       2.90000010    
 Ni   0.00000000       2.90000010       5.80000019    
 Ni   0.00000000       2.90000010       8.69999981    
 Ni   0.00000000       2.90000010       11.6000004    
 Ni   0.00000000       5.80000019       0.00000000    
 Ni   0.00000000       5.80000019       2.90000010    
 Ni   0.00000000       5.80000019       5.80000019    
 Ni   0.00000000       5.80000019       8.69999981    
 Ni   0.00000000       5.80000019       11.6000004    
 Ni   0.00000000       8.69999981       0.00000000    
 Ni   0.00000000       8.69999981       2.90000010    
 Ni   0.00000000       8.69999981       5.80000019    
 Ni   0.00000000       8.69999981       8.69999981    
 Ni   0.00000000       8.69999981       11.6000004    
 Ni   0.00000000       11.6000004       0.00000000    
 Ni   0.00000000       11.6000004       2.90000010    
 Ni   0.00000000       11.6000004       5.80000019    
 Ni   0.00000000       11.6000004       8.69999981    
 Ni   0.00000000       11.6000004       11.6000004    
 Ni   2.90000010       0.00000000       0.00000000    
 Ni   2.90000010       0.00000000       2.90000010    
 Ni   2.90000010       0.00000000       5.80000019    
 Ni   2.90000010       0.00000000       8.69999981    
 Ni   2.90000010       0.00000000       11.6000004    
 Ni   2.90000010       2.90000010       0.00000000    
 Ni   2.90000010       2.90000010       2.90000010    
 Ni   2.90000010       2.90000010       5.80000019    
 Ni   2.90000010       2.90000010       8.69999981    
 Ni   2.90000010       2.90000010       11.6000004    
 Ni   2.90000010       5.80000019       0.00000000    
 Ni   2.90000010       5.80000019       2.90000010    
 Ni   2.90000010       5.80000019       5.80000019    
 Ni   2.90000010       5.80000019       8.69999981    
 Ni   2.90000010       5.80000019       11.6000004    
 Ni   2.90000010       8.69999981       0.00000000    
 Ni   2.90000010       8.69999981       2.90000010    
 Ni   2.90000010       8.69999981       5.80000019    
 Ni   2.90000010       8.69999981       8.69999981    
 Ni   2.90000010       8.69999981       11.6000004    
 Ni   2.90000010       11.6000004       0.00000000    
 Ni   2.90000010       11.6000004       2.90000010    
 Ni   2.90000010       11.6000004       5.80000019    
 Ni   2.90000010       11.6000004       8.69999981    
 Ni   2.90000010       11.6000004       11.6000004    
 Ni   5.80000019       0.00000000       0.00000000    
 Ni   5.80000019       0.00000000       2.90000010    
 Ni   5.80000019       0.00000000       5.80000019    
 Ni   5.80000019       0.00000000       8.69999981    
 Ni   5.80000019       0.00000000       11.6000004    
 Ni   5.80000019       2.90000010       0.00000000    
 Ni   5.80000019       2.90000010       2.90000010    
 Ni   5.80000019       2.90000010       5.80000019    
 Ni   5.80000019       2.90000010       8.69999981    
 Ni   5.80000019       2.90000010       11.6000004    
 Ni   5.80000019       5.80000019       0.00000000    
 Ni   5.80000019       5.80000019       2.90000010    
 Ni   5.80000019       5.80000019       5.80000019    
 Ni   5.80000019       5.80000019       8.69999981    
 Ni   5.80000019       5.80000019       11.6000004    
 Ni   5.80000019       8.69999981       0.00000000    
 Ni   5.80000019       8.69999981       2.90000010    
 Ni   5.80000019       8.69999981       5.80000019    
 Ni   5.80000019       8.69999981       8.69999981    
 Ni   5.80000019       8.69999981       11.6000004    
 Ni   5.80000019       11.6000004       0.00000000    
 Ni   5.80000019       11.6000004       2.90000010    
 Ni   5.80000019       11.6000004       5.80000019    
 Ni   5.80000019       11.6000004       8.69999981    
 Ni   5.80000019       11.6000004       11.6000004    
 Ni   8.69999981       0.00000000       0.00000000    
 Ni   8.69999981       0.00000000       2.90000010    
 Ni   8.69999981       0.00000000       5.80000019    
 Ni   8.69999981       0.00000000       8.69999981    
 Ni   8.69999981       0.00000000       11.6000004    
 Ni   8.69999981       2.90000010       0.00000000    
 Ni   8.69999981       2.90000010       2.90000010    
 Ni   8.69999981       2.90000010       5.80000019    
 Ni   8.69999981       2.90000010       8.69999981    
 Ni   8.69999981       2.90000010       11.6000004    
 Ni   8.69999981       5.80000019       0.00000000    
 Ni   8.69999981       5.80000019       2.90000010    
 Ni   8.69999981       5.80000019       5.80000019    
 Ni   8.69999981       5.80000019       8.69999981    
 Ni   8.69999981       5.80000019       11.6000004    
 Ni   8.69999981       8.69999981       0.00000000    
 Ni   8.69999981       8.69999981       2.90000010    
 Ni   8.69999981       8.69999981       5.80000019    
 Ni   8.69999981       8.69999981       8.69999981    
 Ni   8.69999981       8.69999981       11.6000004    
 Ni   8.69999981       11.6000004       0.00000000    
 Ni   8.69999981       11.6000004       2.90000010    
 Ni   8.69999981       11.6000004       5.80000019    
 Ni   8.69999981       11.6000004       8.69999981    
 Ni   8.69999981       11.6000004       11.6000004    
 Ni   11.6000004       0.00000000       0.00000000    
 Ni   11.6000004       0.00000000       2.90000010    
 Ni   11.6000004       0.00000000       5.80000019    
 Ni   11.6000004       0.00000000       8.69999981    
 Ni   11.6000004       0.00000000       11.6000004    
 Ni   11.6000004       2.90000010       0.00000000    
 Ni   11.6000004       2.90000010       2.90000010    
 Ni   11.6000004       2.90000010       5.80000019    
 Ni   11.6000004       2.90000010       8.69999981    
 Ni   11.6000004       2.90000010       11.6000004    
 Ni   11.6000004       5.80000019       0.00000000    
 Ni   11.6000004       5.80000019       2.90000010    
 Ni   11.6000004       5.80000019       5.80000019    
 Ni   11.6000004       5.80000019       8.69999981    
 Ni   11.6000004       5.80000019       11.6000004    
 Ni   11.6000004       8.69999981       0.00000000    
 Ni   11.6000004       8.69999981       2.90000010    
 Ni   11.6000004       8.69999981       5.80000019    
 Ni   11.6000004       8.69999981       8.69999981    
 Ni   11.6000004       8.69999981       11.6000004    
 Ni   11.6000004       11.6000004       0.00000000    
 Ni   11.6000004       11.6000004       2.90000010    
 Ni   11.6000004       11.6000004       5.80000019    
 Ni   11.6000004       11.6000004       8.69999981    
 Ni   11.6000004       11.6000004       11.6000004    
 Al   1.45000005       1.45000005       1.45000005    
 Al   1.45000005       1.45000005       4.34999990    
 Al   1.45000005       1.45000005       7.25000000    
 Al   1.45000005       1.45000005       10.1499996    
 Al   1.45000005       1.45000005       13.0500002    
 Al   1.45000005       4.34999990       1.45000005    
 Al   1.45000005       4.34999990       4.34999990    
 Al   1.45000005       4.34999990       7.25000000    
 Al   1.45000005       4.34999990       10.1499996    
 Al   1.45000005       4.34999990       13.0500002    
 Al   1.45000005       7.25000000       1.45000005    
 Al   1.45000005       7.25000000       4.34999990    
 Al   1.45000005       7.25000000       7.25000000    
 Al   1.45000005       7.25000000       10.1499996    
 Al   1.45000005       7.25000000       13.0500002    
 Al   1.45000005       10.1499996       1.45000005    
 Al   1.45000005       10.1499996       4.34999990    
 Al   1.45000005       10.1499996       7.25000000    
 Al   1.45000005       10.1499996       10.1499996    
 Al   1.45000005       10.1499996       13.0500002    
 Al   1.45000005       13.0500002       1.45000005    
 Al   1.45000005       13.0500002       4.34999990    
 Al   1.45000005       13.0500002       7.25000000    
 Al   1.45000005       13.0500002       10.1499996    
 Al   1.45000005       13.0500002       13.0500002    
 Al   4.34999990       1.45000005       1.45000005    
 Al   4.34999990       1.45000005       4.34999990    
 Al   4.34999990       1.45000005       7.25000000    
 Al   4.34999990       1.45000005       10.1499996    
 Al   4.34999990       1.45000005       13.0500002    
 Al   4.34999990       4.34999990       1.45000005    
 Al   4.34999990       4.34999990       4.34999990    
 Al   4.34999990       4.34999990       7.25000000    
 Al   4.34999990       4.34999990       10.1499996    
 Al   4.34999990       4.34999990       13.0500002    
 Al   4.34999990       7.25000000       1.45000005    
 Al   4.34999990       7.25000000       4.34999990    
 Al   4.34999990       7.25000000       7.25000000    
 Al   4.34999990       7.25000000       10.1499996    
 Al   4.34999990       7.25000000       13.0500002    
 Al   4.34999990       10.1499996       1.45000005    
 Al   4.34999990       10.1499996       4.34999990    
 Al   4.34999990       10.1499996       7.25000000    
 Al   4.34999990       10.1499996       10.1499996    
 Al   4.34999990       10.1499996       13.0500002    
 Al   4.34999990       13.0500002       1.45000005    
 Al   4.34999990       13.0500002       4.34999990    
 Al   4.34999990       13.0500002       7.25000000    
 Al   4.34999990       13.0500002       10.1499996    
 Al   4.34999990       13.0500002       13.0500002    
 Al   7.25000000       1.45000005       1.45000005    
 Al   7.25000000       1.45000005       4.34999990    
 Al   7.25000000       1.45000005       7.25000000    
 Al   7.25000000       1.45000005       10.1499996    
 Al   7.25000000       1.45000005       13.0500002    
 Al   7.25000000       4.34999990       1.45000005    
 Al   7.25000000       4.34999990       4.34999990    
 Al   7.25000000       4.34999990       7.25000000    
 Al   7.25000000       4.34999990       10.1499996    
 Al   7.25000000       4.34999990       13.0500002    
 Al   7.25000000       7.25000000       1.45000005    
 Al   7.25000000       7.25000000       4.34999990    
 Al   7.25000000       7.25000000       7.25000000    
 Al   7.25000000       7.25000000       10.1499996    
 Al   7.25000000       7.25000000       13.0500002    
 Al   7.25000000       10.1499996       1.45000005    
 Al   7.25000000       10.1499996       4.34999990    
 Al   7.25000000       10.1499996       7.25000000    
 Al   7.25000000       10.1499996       10.1499996    
 Al   7.25000000       10.1499996       13.0500002    
 Al   7.25000000       13.0500002       1.45000005    
 Al   7.25000000       13.0500002       4.34999990    
 Al   7.25000000       13.0500002       7.25000000    
 Al   7.25000000       13.0500002       10.1499996    
 Al   7.25000000       13.0500002       13.0500002    
 Al   10.1499996       1.45000005       1.45000005    
 Al   10.1499996       1.45000005       4.34999990    
 Al   10.1499996       1.45000005       7.25000000    
 Al   10.1499996       1.45000005       10.1499996    
 Al   10.1499996       1.45000005       13.0500002    
 Al   10.1499996       4.34999990       1.45000005    
 Al   10.1499996       4.34999990       4.34999990    
 Al   10.1499996       4.34999990       7.25000000    
 Al   10.1499996       4.34999990       10.1499996    
 Al   10.1499996       4.34999990       13.0500002    
 Al   10.1499996       7.25000000       1.45000005    
 Al   10.1499996       7.25000000       4.34999990    
 Al   10.1499996       7.25000000       7.25000000    
 Al   10.1499996       7.25000000       10.1499996    
 Al   10.1499996       7.25000000       13.0500002    
 Al   10.1499996       10.1499996       1.45000005    
 Al   10.1499996       10.1499996       4.34999990    
 Al   10.1499996       10.1499996       7.25000000    
 Al   10.1499996       10.1499996       10.1499996    
 Al   10.1499996       10.1499996       13.0500002    
 Al   10.1499996       13.0500002       1.45000005    
 Al   10.1499996       13.0500002       4.34999990    
 Al   10.1499996       13.0500002       7.25000000    
 Al   10.1499996       13.0500002       10.1499996    
 Al   10.1499996       13.0500002       13.0500002    
 Al   13.0500002       1.45000005       1.45000005    
 Al   13.0500002       1.45000005       4.34999990    
 Al   13.0500002       1.45000005       7.25000000    
 Al   13.0500002       1.45000005       10.1499996    
 Al   13.0500002       1.45000005       13.0500002    
 Al   13.0500002       4.34999990       1.45000005    
 Al   13.0500002       4.34999990       4.34999990    
 Al   13.0500002       4.34999990       7.25000000    
 Al   13.0500002       4.34999990       10.1499996    
 Al   13.0500002       4.34999990       13.0500002    
 Al   13.0500002       7.25000000       1.45000005    
 Al   13.0500002       7.25000000       4.34999990    
 Al   13.0500002       7.25000000       7.25000000    
 Al   13.0500002       7.25000000       10.1499996    
 Al   13.0500002       7.25000000       13.0500002    
 Al   13.0500002       10.1499996       1.45000005    
 Al   13.0500002       10.1499996       4.34999990    
 Al   13.0500002       10.1499996       7.25000000    
 Al   13.0500002       10.1499996       10.1499996    
 Al   13.0500002       10.1499996       13.0500002    
 Al   13.0500002       13.0500002       1.45000005    
 Al   13.0500002       13.0500002       4.34999990    
 Al   13.0500002       13.0500002       7.25000000    
 Al   13.0500002       13.0500002       10.1499996    
 Al   13.0500002       13.0500002       13.0500002    
 N    1.45000005       1.45000005       0.00000000    
         259
 Energy:  -1314.5248004000000     
 X   0.00000000       0.00000000       0.00000000    
 X   14.5000000       0.00000000       0.00000000    
 X   0.00000000       14.5000000       0.00000000    
 X   0.00000000       0.00000000       14.5000000    
 X   14.5000000       14.5000000       0.00000000    
 X   14.5000000       0.00000000       14.5000000    
 X   0.00000000       14.5000000       14.5000000    
 X   14.5000000       14.5000000       14.5000000    
 Ni  -1.35899996E-02  -1.35899996E-02  -0.00000000    
 Ni   8.09999998E-04   8.09999998E-04   2.89757991    
 Ni   1.40000004E-04   1.40000004E-04   5.79916000    
 Ni   1.40000004E-04   1.40000004E-04   8.70084000    
 Ni   8.09999998E-04   8.09999998E-04   11.6024199    
 Ni  -1.35899996E-02   2.91358995      -0.00000000    
 Ni   8.09999998E-04   2.89918995       2.89757991    
 Ni   1.40000004E-04   2.89985991       5.79916000    
 Ni   1.40000004E-04   2.89985991       8.70084000    
 Ni   8.09999998E-04   2.89918995       11.6024199    
 Ni   7.90000020E-04   5.79966021      -0.00000000    
 Ni  -7.99999980E-05   5.79993010       2.89989996    
 Ni   2.99999992E-05   5.79986000       5.80015993    
 Ni   2.99999992E-05   5.79986000       8.69983959    
 Ni  -7.99999980E-05   5.79993010       11.6000996    
 Ni   3.39999999E-04   8.69999981      -0.00000000    
 Ni  -2.99999992E-05   8.69999981       2.89988995    
 Ni   1.90000006E-04   8.69999981       5.79995012    
 Ni   1.90000006E-04   8.69999981       8.70005035    
 Ni  -2.99999992E-05   8.69999981       11.6001101    
 Ni   7.90000020E-04   11.6003399      -0.00000000    
 Ni  -7.99999980E-05   11.6000700       2.89989996    
 Ni   2.99999992E-05   11.6001396       5.80015993    
 Ni   2.99999992E-05   11.6001396       8.69983959    
 Ni  -7.99999980E-05   11.6000700       11.6000996    
 Ni   2.91358995      -1.35899996E-02  -0.00000000    
 Ni   2.89918995       8.09999998E-04   2.89757991    
 Ni   2.89985991       1.40000004E-04   5.79916000    
 Ni   2.89985991       1.40000004E-04   8.70084000    
 Ni   2.89918995       8.09999998E-04   11.6024199    
 Ni   2.91358995       2.91358995      -0.00000000    
 Ni   2.89918995       2.89918995       2.89757991    
 Ni   2.89985991       2.89985991       5.79916000    
 Ni   2.89985991       2.89985991       8.70084000    
 Ni   2.89918995       2.89918995       11.6024199    
 Ni   2.89920998       5.79966021      -0.00000000    
 Ni   2.90007997       5.79993010       2.89989996    
 Ni   2.89997005       5.79986000       5.80015993    
 Ni   2.89997005       5.79986000       8.69983959    
 Ni   2.90007997       5.79993010       11.6000996    
 Ni   2.89966011       8.69999981      -0.00000000    
 Ni   2.90002990       8.69999981       2.89988995    
 Ni   2.89981008       8.69999981       5.79995012    
 Ni   2.89981008       8.69999981       8.70005035    
 Ni   2.90002990       8.69999981       11.6001101    
 Ni   2.89920998       11.6003399      -0.00000000    
 Ni   2.90007997       11.6000700       2.89989996    
 Ni   2.89997005       11.6001396       5.80015993    
 Ni   2.89997005       11.6001396       8.69983959    
 Ni   2.90007997       11.6000700       11.6000996    
 Ni   5.79966021       7.90000020E-04  -0.00000000    
 Ni   5.79993010      -7.99999980E-05   2.89989996    
 Ni   5.79986000       2.99999992E-05   5.80015993    
 Ni   5.79986000       2.99999992E-05   8.69983959    
 Ni   5.79993010      -7.99999980E-05   11.6000996    
 Ni   5.79966021       2.89920998      -0.00000000    
 Ni   5.79993010       2.90007997       2.89989996    
 Ni   5.79986000       2.89997005       5.80015993    
 Ni   5.79986000       2.89997005       8.69983959    
 Ni   5.79993010       2.90007997       11.6000996    
 Ni   5.79993010       5.79993010      -0.00000000    
 Ni   5.79998016       5.79998016       2.90000010    
 Ni   5.79994011       5.79994011       5.79968023    
 Ni   5.79994011       5.79994011       8.70032024    
 Ni   5.79998016       5.79998016       11.6000004    
 Ni   5.79979992       8.69999981      -0.00000000    
 Ni   5.79997015       8.69999981       2.89982009    
 Ni   5.79982996       8.69999981       5.80008984    
 Ni   5.79982996       8.69999981       8.69991016    
 Ni   5.79997015       8.69999981       11.6001797    
 Ni   5.79993010       11.6000700      -0.00000000    
 Ni   5.79998016       11.6000204       2.90000010    
 Ni   5.79994011       11.6000605       5.79968023    
 Ni   5.79994011       11.6000605       8.70032024    
 Ni   5.79998016       11.6000204       11.6000004    
 Ni   8.69999981       3.39999999E-04  -0.00000000    
 Ni   8.69999981      -2.99999992E-05   2.89988995    
 Ni   8.69999981       1.90000006E-04   5.79995012    
 Ni   8.69999981       1.90000006E-04   8.70005035    
 Ni   8.69999981      -2.99999992E-05   11.6001101    
 Ni   8.69999981       2.89966011      -0.00000000    
 Ni   8.69999981       2.90002990       2.89988995    
 Ni   8.69999981       2.89981008       5.79995012    
 Ni   8.69999981       2.89981008       8.70005035    
 Ni   8.69999981       2.90002990       11.6001101    
 Ni   8.69999981       5.79979992      -0.00000000    
 Ni   8.69999981       5.79997015       2.89982009    
 Ni   8.69999981       5.79982996       5.80008984    
 Ni   8.69999981       5.79982996       8.69991016    
 Ni   8.69999981       5.79997015       11.6001797    
 Ni   8.69999981       8.69999981      -0.00000000    
 Ni   8.69999981       8.69999981       2.89988995    
 Ni   8.69999981       8.69999981       5.79953003    
 Ni   8.69999981       8.69999981       8.70046997    
 Ni   8.69999981       8.69999981       11.6001101    
 Ni   8.69999981       11.6001997      -0.00000000    
 Ni   8.69999981       11.6000299       2.89982009    
 Ni   8.69999981       11.6001701       5.80008984    
 Ni   8.69999981       11.6001701       8.69991016    
 Ni   8.69999981       11.6000299       11.6001797    
 Ni   11.6003399       7.90000020E-04  -0.00000000    
 Ni   11.6000700      -7.99999980E-05   2.89989996    
 Ni   11.6001396       2.99999992E-05   5.80015993    
 Ni   11.6001396       2.99999992E-05   8.69983959    
 Ni   11.6000700      -7.99999980E-05   11.6000996    
 Ni   11.6003399       2.89920998      -0.00000000    
 Ni   11.6000700       2.90007997       2.89989996    
 Ni   11.6001396       2.89997005       5.80015993    
 Ni   11.6001396       2.89997005       8.69983959    
 Ni   11.6000700       2.90007997       11.6000996    
 Ni   11.6000700       5.79993010      -0.00000000    
 Ni   11.6000204       5.79998016       2.90000010    
 Ni   11.6000605       5.79994011       5.79968023    
 Ni   11.6000605       5.79994011       8.70032024    
 Ni   11.6000204       5.79998016       11.6000004    
 Ni   11.6001997       8.69999981      -0.00000000    
 Ni   11.6000299       8.69999981       2.89982009    
 Ni   11.6001701       8.69999981       5.80008984    
 Ni   11.6001701       8.69999981       8.69991016    
 Ni   11.6000299       8.69999981       11.6001797    
 Ni   11.6000700       11.6000700      -0.00000000    
 Ni   11.6000204       11.6000204       2.90000010    
 Ni   11.6000605       11.6000605       5.79968023    
 Ni   11.6000605       11.6000605       8.70032024    
 Ni   11.6000204       11.6000204       11.6000004    
 Al   1.45000005       1.45000005       1.83616996    
 Al   1.45000005       1.45000005       4.35171986    
 Al   1.45000005       1.45000005       7.25000000    
 Al   1.45000005       1.45000005       10.1482801    
 Al   1.45000005       1.45000005       12.6638298    
 Al   1.45000005       4.35640001       1.45577002    
 Al   1.45000005       4.35016012       4.35013008    
 Al   1.45000005       4.35000992       7.25000000    
 Al   1.45000005       4.35016012       10.1498699    
 Al   1.45000005       4.35640001       13.0442305    
 Al   1.45000005       7.25011015       1.44993997    
 Al   1.45000005       7.25006008       4.34987020    
 Al   1.45000005       7.24994993       7.25000000    
 Al   1.45000005       7.25006008       10.1501303    
 Al   1.45000005       7.25011015       13.0500603    
 Al   1.45000005       10.1498899       1.44993997    
 Al   1.45000005       10.1499395       4.34987020    
 Al   1.45000005       10.1500502       7.25000000    
 Al   1.45000005       10.1499395       10.1501303    
 Al   1.45000005       10.1498899       13.0500603    
 Al   1.45000005       13.0436001       1.45577002    
 Al   1.45000005       13.0498400       4.35013008    
 Al   1.45000005       13.0499897       7.25000000    
 Al   1.45000005       13.0498400       10.1498699    
 Al   1.45000005       13.0436001       13.0442305    
 Al   4.35640001       1.45000005       1.45577002    
 Al   4.35016012       1.45000005       4.35013008    
 Al   4.35000992       1.45000005       7.25000000    
 Al   4.35016012       1.45000005       10.1498699    
 Al   4.35640001       1.45000005       13.0442305    
 Al   4.35001993       4.35001993       1.44928002    
 Al   4.35019016       4.35019016       4.35028982    
 Al   4.35003996       4.35003996       7.25000000    
 Al   4.35019016       4.35019016       10.1497097    
 Al   4.35001993       4.35001993       13.0507202    
 Al   4.35001993       7.24983978       1.44993997    
 Al   4.35000992       7.24998999       4.35024023    
 Al   4.35002995       7.25006008       7.25000000    
 Al   4.35000992       7.24998999       10.1497602    
 Al   4.35001993       7.24983978       13.0500603    
 Al   4.35001993       10.1501598       1.44993997    
 Al   4.35000992       10.1500101       4.35024023    
 Al   4.35002995       10.1499395       7.25000000    
 Al   4.35000992       10.1500101       10.1497602    
 Al   4.35001993       10.1501598       13.0500603    
 Al   4.35001993       13.0499802       1.44928002    
 Al   4.35019016       13.0498104       4.35028982    
 Al   4.35003996       13.0499601       7.25000000    
 Al   4.35019016       13.0498104       10.1497097    
 Al   4.35001993       13.0499802       13.0507202    
 Al   7.25011015       1.45000005       1.44993997    
 Al   7.25006008       1.45000005       4.34987020    
 Al   7.24994993       1.45000005       7.25000000    
 Al   7.25006008       1.45000005       10.1501303    
 Al   7.25011015       1.45000005       13.0500603    
 Al   7.24983978       4.35001993       1.44993997    
 Al   7.24998999       4.35000992       4.35024023    
 Al   7.25006008       4.35002995       7.25000000    
 Al   7.24998999       4.35000992       10.1497602    
 Al   7.24983978       4.35001993       13.0500603    
 Al   7.24994993       7.24994993       1.44964004    
 Al   7.25002003       7.25002003       4.35033989    
 Al   7.24991989       7.24991989       7.25000000    
 Al   7.25002003       7.25002003       10.1496601    
 Al   7.24994993       7.24994993       13.0503597    
 Al   7.24994993       10.1500502       1.44964004    
 Al   7.25002003       10.1499796       4.35033989    
 Al   7.24991989       10.1500797       7.25000000    
 Al   7.25002003       10.1499796       10.1496601    
 Al   7.24994993       10.1500502       13.0503597    
 Al   7.24983978       13.0499802       1.44993997    
 Al   7.24998999       13.0499897       4.35024023    
 Al   7.25006008       13.0499697       7.25000000    
 Al   7.24998999       13.0499897       10.1497602    
 Al   7.24983978       13.0499802       13.0500603    
 Al   10.1498899       1.45000005       1.44993997    
 Al   10.1499395       1.45000005       4.34987020    
 Al   10.1500502       1.45000005       7.25000000    
 Al   10.1499395       1.45000005       10.1501303    
 Al   10.1498899       1.45000005       13.0500603    
 Al   10.1501598       4.35001993       1.44993997    
 Al   10.1500101       4.35000992       4.35024023    
 Al   10.1499395       4.35002995       7.25000000    
 Al   10.1500101       4.35000992       10.1497602    
 Al   10.1501598       4.35001993       13.0500603    
 Al   10.1500502       7.24994993       1.44964004    
 Al   10.1499796       7.25002003       4.35033989    
 Al   10.1500797       7.24991989       7.25000000    
 Al   10.1499796       7.25002003       10.1496601    
 Al   10.1500502       7.24994993       13.0503597    
 Al   10.1500502       10.1500502       1.44964004    
 Al   10.1499796       10.1499796       4.35033989    
 Al   10.1500797       10.1500797       7.25000000    
 Al   10.1499796       10.1499796       10.1496601    
 Al   10.1500502       10.1500502       13.0503597    
 Al   10.1501598       13.0499802       1.44993997    
 Al   10.1500101       13.0499897       4.35024023    
 Al   10.1499395       13.0499697       7.25000000    
 Al   10.1500101       13.0499897       10.1497602    
 Al   10.1501598       13.0499802       13.0500603    
 Al   13.0436001       1.45000005       1.45577002    
 Al   13.0498400       1.45000005       4.35013008    
 Al   13.0499897       1.45000005       7.25000000    
 Al   13.0498400       1.45000005       10.1498699    
 Al   13.0436001       1.45000005       13.0442305    
 Al   13.0499802       4.35001993       1.44928002    
 Al   13.0498104       4.35019016       4.35028982    
 Al   13.0499601       4.35003996       7.25000000    
 Al   13.0498104       4.35019016       10.1497097    
 Al   13.0499802       4.35001993       13.0507202    
 Al   13.0499802       7.24983978       1.44993997    
 Al   13.0499897       7.24998999       4.35024023    
 Al   13.0499697       7.25006008       7.25000000    
 Al   13.0499897       7.24998999       10.1497602    
 Al   13.0499802       7.24983978       13.0500603    
 Al   13.0499802       10.1501598       1.44993997    
 Al   13.0499897       10.1500101       4.35024023    
 Al   13.0499697       10.1499395       7.25000000    
 Al   13.0499897       10.1500101       10.1497602    
 Al   13.0499802       10.1501598       13.0500603    
 Al   13.0499802       13.0499802       1.44928002    
 Al   13.0498104       13.0498104       4.35028982    
 Al   13.0499601       13.0499601       7.25000000    
 Al   13.0498104       13.0498104       10.1497097    
 Al   13.0499802       13.0499802       13.0507202    
 N    1.45000005       1.45000005      -0.00000000    
         259
 Energy:  -1314.6613880000000     
 X   0.00000000       0.00000000       0.00000000    
 X   14.5000000       0.00000000       0.00000000    
 X   0.00000000       14.5000000       0.00000000    
 X   0.00000000       0.00000000       14.5000000    
 X   14.5000000       14.5000000       0.00000000    
 X   14.5000000       0.00000000       14.5000000    
 X   0.00000000       14.5000000       14.5000000    
 X   14.5000000       14.5000000       14.5000000    
 Ni  -1.07100001E-02  -1.07100001E-02  -0.00000000    
 Ni   6.39999984E-04   6.39999984E-04   2.89808989    
 Ni   1.10000001E-04   1.10000001E-04   5.79933977    
 Ni   1.10000001E-04   1.10000001E-04   8.70065975    
 Ni   6.39999984E-04   6.39999984E-04   11.6019096    
 Ni  -1.07100001E-02   2.91071010      -0.00000000    
 Ni   6.39999984E-04   2.89935994       2.89808989    
 Ni   1.10000001E-04   2.89988995       5.79933977    
 Ni   1.10000001E-04   2.89988995       8.70065975    
 Ni   6.39999984E-04   2.89935994       11.6019096    
 Ni   6.20000006E-04   5.79972982      -0.00000000    
 Ni  -5.99999985E-05   5.79995012       2.89991999    
 Ni   2.99999992E-05   5.79989004       5.80012989    
 Ni   2.99999992E-05   5.79989004       8.69987011    
 Ni  -5.99999985E-05   5.79995012       11.6000795    
 Ni   2.60000001E-04   8.69999981      -0.00000000    
 Ni  -2.99999992E-05   8.69999981       2.89990997    