       N       E                     dE             d eps       ncg     rms          rms(c)
DAV:   1     0.909475627615E+04    0.90948E+04   -0.52657E+05 11964   0.109E+03
DAV:   2    -0.480897147498E+03   -0.95757E+04   -0.91403E+04 12096   0.368E+02
DAV:   3    -0.142394326282E+04   -0.94305E+03   -0.85296E+03 18984   0.928E+01
DAV:   4    -0.149819955353E+04   -0.74256E+02   -0.70223E+02 16836   0.331E+01
DAV:   5    -0.150349452716E+04   -0.52950E+01   -0.51769E+01 20988   0.705E+00    0.134E+02
DAV:   6    -0.174548876356E+04   -0.24199E+03   -0.59578E+03 14556   0.143E+02    0.178E+02
DAV:   7    -0.130621452422E+04    0.43927E+03   -0.15103E+03 13056   0.899E+01    0.295E+01
DAV:   8    -0.131461219855E+04   -0.83977E+01   -0.33828E+02 18084   0.205E+01    0.222E+01
DAV:   9    -0.131582856246E+04   -0.12164E+01   -0.25149E+01 17616   0.199E+01    0.236E+01
DAV:  10    -0.131094097772E+04    0.48876E+01   -0.14708E+01 16308   0.159E+01    0.133E+01
DAV:  11    -0.130978032472E+04    0.11607E+01   -0.60297E+00 14712   0.977E+00    0.719E+00
DAV:  12    -0.130981304554E+04   -0.32721E-01   -0.28365E+00 21624   0.369E+00    0.556E+00
DAV:  13    -0.130974100436E+04    0.72041E-01   -0.64916E-01 15372   0.359E+00    0.444E+00
DAV:  14    -0.130960452605E+04    0.13648E+00   -0.31864E-01 13980   0.213E+00    0.219E+00
DAV:  15    -0.130959948569E+04    0.50404E-02   -0.11515E-01 15384   0.112E+00    0.181E+00
DAV:  16    -0.130959373694E+04    0.57487E-02   -0.46610E-02 15156   0.662E-01    0.129E+00
DAV:  17    -0.130959408330E+04   -0.34636E-03   -0.24054E-02 19944   0.373E-01    0.976E-01
DAV:  18    -0.130959226122E+04    0.18221E-02   -0.37282E-03 14568   0.284E-01    0.691E-01
DAV:  19    -0.130959140601E+04    0.85521E-03   -0.26622E-03 18036   0.147E-01    0.493E-01
DAV:  20    -0.130959064871E+04    0.75730E-03   -0.16210E-03 16152   0.139E-01    0.309E-01
DAV:  21    -0.130959038312E+04    0.26559E-03   -0.12463E-03 18036   0.653E-02    0.176E-01
DAV:  22    -0.130959036553E+04    0.17586E-04   -0.13013E-04 15528   0.394E-02    0.153E-01
DAV:  23    -0.130959033438E+04    0.31150E-04   -0.45020E-05 14448   0.237E-02    0.110E-01
DAV:  24    -0.130959029905E+04    0.35329E-04   -0.94918E-05 19248   0.220E-02    0.485E-02
DAV:  25    -0.130959028854E+04    0.10514E-04   -0.22333E-05 10836   0.175E-02    0.262E-02
DAV:  26    -0.130959028515E+04    0.33916E-05   -0.12665E-05  8148   0.700E-03
   1 F= -.13095903E+04 E0= -.13095386E+04  d E =-.130959E+04
       N       E                     dE             d eps       ncg     rms          rms(c)
DAV:   1    -0.131521368727E+04   -0.56234E+01   -0.70627E+01 12468   0.814E+00    0.789E+00
DAV:   2    -0.131742565989E+04   -0.22120E+01   -0.12235E+01 15756   0.142E+01    0.145E+01
DAV:   3    -0.131461675946E+04    0.28089E+01   -0.78358E+00 15720   0.145E+01    0.463E+00
DAV:   4    -0.131472129991E+04   -0.10454E+00   -0.26270E+00 17376   0.654E+00    0.458E+00
DAV:   5    -0.131452382053E+04    0.19748E+00   -0.70441E-01 14904   0.416E+00    0.147E+00
DAV:   6    -0.131454342953E+04   -0.19609E-01   -0.35667E-01 18660   0.168E+00    0.153E+00
DAV:   7    -0.131454208785E+04    0.13417E-02   -0.14619E-01 16596   0.184E+00    0.134E+00
DAV:   8    -0.131452654173E+04    0.15546E-01   -0.64408E-02 14772   0.124E+00    0.444E-01
DAV:   9    -0.131452632079E+04    0.22095E-03   -0.21943E-02 18828   0.469E-01    0.445E-01
DAV:  10    -0.131452520040E+04    0.11204E-02   -0.84221E-03 15084   0.406E-01    0.245E-01
DAV:  11    -0.131452483579E+04    0.36461E-03   -0.29039E-03 15792   0.208E-01    0.109E-01
DAV:  12    -0.131452496466E+04   -0.12887E-03   -0.13804E-03 14952   0.171E-01    0.132E-01
DAV:  13    -0.131452479760E+04    0.16705E-03   -0.55676E-04 14412   0.124E-01    0.336E-02
DAV:  14    -0.131452481426E+04   -0.16653E-04   -0.22173E-04 18864   0.478E-02    0.399E-02
DAV:  15    -0.131452480014E+04    0.14119E-04   -0.54858E-05 14988   0.332E-02    0.109E-02
DAV:  16    -0.131452480049E+04   -0.35277E-06   -0.12625E-05  8532   0.132E-02
   2 F= -.13145248E+04 E0= -.13144718E+04  d E =-.493452E+01
       N       E                     dE             d eps       ncg     rms          rms(c)
DAV:   1    -0.131465902036E+04   -0.13422E+00   -0.31557E+00 12192   0.171E+00    0.926E-01
DAV:   2    -0.131472120992E+04   -0.62190E-01   -0.39814E-01 14868   0.222E+00    0.245E+00
DAV:   3    -0.131466342490E+04    0.57785E-01   -0.12736E-01 14712   0.177E+00    0.531E-01
DAV:   4    -0.131466732553E+04   -0.39006E-02   -0.47175E-02 19692   0.812E-01    0.739E-01
DAV:   5    -0.131466228556E+04    0.50400E-02   -0.26876E-02 18024   0.707E-01    0.257E-01
DAV:   6    -0.131466197763E+04    0.30792E-03   -0.61867E-03 18564   0.314E-01    0.291E-01
DAV:   7    -0.131466160040E+04    0.37723E-03   -0.54690E-03 17592   0.288E-01    0.151E-01
DAV:   8    -0.131466145443E+04    0.14598E-03   -0.10549E-03 16992   0.116E-01    0.928E-02
DAV:   9    -0.131466143409E+04    0.20342E-04   -0.80825E-04 16380   0.123E-01    0.628E-02
DAV:  10    -0.131466139771E+04    0.36377E-04   -0.15064E-04 14964   0.595E-02    0.251E-02
DAV:  11    -0.131466139210E+04    0.56073E-05   -0.44008E-05 14928   0.287E-02    0.213E-02
DAV:  12    -0.131466138800E+04    0.40984E-05   -0.25286E-05 12876   0.196E-02
   3 F= -.13146614E+04 E0= -.13146093E+04  d E =-.507110E+01
       N       E                     dE             d eps       ncg     rms          rms(c)
DAV:   1    -0.131466664614E+04   -0.52540E-02   -0.98951E-02 12288   0.305E-01    0.173E-01
DAV:   2    -0.131466870064E+04   -0.20545E-02   -0.13283E-02 14316   0.405E-01    0.438E-01
DAV:   3    -0.131466677303E+04    0.19276E-02   -0.43408E-03 14262   0.335E-01    0.911E-02
DAV:   4    -0.131466691419E+04   -0.14116E-03   -0.14735E-03 19896   0.144E-01    0.133E-01
DAV:   5    -0.131466673911E+04    0.17508E-03   -0.77266E-04 17652   0.134E-01    0.468E-02
DAV:   6    -0.131466673022E+04    0.88876E-05   -0.18496E-04 18720   0.533E-02    0.520E-02
DAV:   7    -0.131466672142E+04    0.88049E-05   -0.17446E-04 17244   0.528E-02    0.300E-02
DAV:   8    -0.131466671373E+04    0.76890E-05   -0.37869E-05 15132   0.219E-02    0.146E-02
DAV:   9    -0.131466671392E+04   -0.18746E-06   -0.28644E-05 12708   0.208E-02
   4 F= -.13146667E+04 E0= -.13146145E+04  d E =-.507643E+01
       N       E                     dE             d eps       ncg     rms          rms(c)
DAV:   1    -0.131466679428E+04   -0.80550E-04   -0.11613E-03 12420   0.347E-02    0.206E-02
DAV:   2    -0.131466681572E+04   -0.21443E-04   -0.14109E-04 13152   0.457E-02    0.484E-02
DAV:   3    -0.131466679250E+04    0.23223E-04   -0.52666E-05 12996   0.396E-02    0.109E-02
DAV:   4    -0.131466679358E+04   -0.10798E-05   -0.15481E-05 11856   0.174E-02    0.151E-02
DAV:   5    -0.131466679112E+04    0.24579E-05   -0.82836E-06  9252   0.160E-02    0.509E-03
DAV:   6    -0.131466679134E+04   -0.22119E-06   -0.18929E-06  6300   0.623E-03
   5 F= -.13146668E+04 E0= -.13146145E+04  d E =-.507651E+01
       N       E                     dE             d eps       ncg     rms          rms(c)
DAV:   1    -0.131472411236E+04   -0.57321E-01   -0.72581E+00 11760   0.305E+00    0.294E-01
DAV:   2    -0.131473080308E+04   -0.66907E-02   -0.73254E-02 15252   0.588E-01    0.469E-01
DAV:   3    -0.131472955261E+04    0.12505E-02   -0.11971E-02 13032   0.504E-01    0.182E-01
DAV:   4    -0.131472956634E+04   -0.13732E-04   -0.36665E-03 16596   0.218E-01    0.188E-01
DAV:   5    -0.131472924108E+04    0.32526E-03   -0.15671E-03 15744   0.203E-01    0.607E-02
DAV:   6    -0.131472922500E+04    0.16084E-04   -0.38600E-04 16164   0.718E-02    0.469E-02
DAV:   7    -0.131472921163E+04    0.13370E-04   -0.15407E-04 15396   0.524E-02    0.205E-02
DAV:   8    -0.131472921036E+04    0.12648E-05   -0.61201E-05 16224   0.181E-02    0.112E-02
DAV:   9    -0.131472921180E+04   -0.14387E-05   -0.16562E-05 10764   0.193E-02
   6 F= -.13147292E+04 E0= -.13146771E+04  d E =-.624205E-01
       N       E                     dE             d eps       ncg     rms          rms(c)
DAV:   1    -0.131477376071E+04   -0.44550E-01   -0.65331E+01 11760   0.918E+00    0.952E-01
DAV:   2    -0.131485611441E+04   -0.82354E-01   -0.89731E-01 16032   0.188E+00    0.140E+00
DAV:   3    -0.131484555395E+04    0.10560E-01   -0.11241E-01 13188   0.161E+00    0.647E-01
DAV:   4    -0.131484338312E+04    0.21708E-02   -0.30365E-02 15732   0.684E-01    0.517E-01
DAV:   5    -0.131484116227E+04    0.22208E-02   -0.14066E-02 15540   0.604E-01    0.218E-01
DAV:   6    -0.131484100997E+04    0.15230E-03   -0.39992E-03 14952   0.255E-01    0.155E-01
DAV:   7    -0.131484087493E+04    0.13504E-03   -0.15857E-03 14628   0.181E-01    0.712E-02
DAV:   8    -0.131484087303E+04    0.18998E-05   -0.60442E-04 16296   0.657E-02    0.365E-02
DAV:   9    -0.131484088607E+04   -0.13038E-04   -0.19870E-04 15516   0.594E-02    0.433E-02
DAV:  10    -0.131484087428E+04    0.11790E-04   -0.87241E-05 14388   0.455E-02    0.192E-02
DAV:  11    -0.131484087679E+04   -0.25112E-05   -0.37667E-05 14388   0.268E-02
   7 F= -.13148409E+04 E0= -.13147893E+04  d E =-.174085E+00
       N       E                     dE             d eps       ncg     rms          rms(c)
DAV:   1    -0.131484280693E+04   -0.19327E-02   -0.16057E+01 11736   0.458E+00    0.437E-01
DAV:   2    -0.131485830290E+04   -0.15496E-01   -0.17212E-01 15612   0.858E-01    0.661E-01
DAV:   3    -0.131485616829E+04    0.21346E-02   -0.25623E-02 13128   0.742E-01    0.297E-01
DAV:   4    -0.131485581167E+04    0.35661E-03   -0.70640E-03 15996   0.316E-01    0.246E-01
DAV:   5    -0.131485530977E+04    0.50191E-03   -0.32302E-03 15708   0.284E-01    0.978E-02
DAV:   6    -0.131485525977E+04    0.50002E-04   -0.81427E-04 15300   0.112E-01    0.665E-02
DAV:   7    -0.131485523910E+04    0.20666E-04   -0.34226E-04 15036   0.785E-02    0.344E-02
DAV:   8    -0.131485523754E+04    0.15567E-05   -0.14437E-04 16620   0.312E-02    0.176E-02
DAV:   9    -0.131485524059E+04   -0.30431E-05   -0.41966E-05 14340   0.290E-02
   8 F= -.13148552E+04 E0= -.13148039E+04  d E =-.188449E+00
       N       E                     dE             d eps       ncg     rms          rms(c)
DAV:   1    -0.131486985034E+04   -0.14613E-01   -0.46054E+00 11748   0.266E+00    0.254E-01
DAV:   2    -0.131487618978E+04   -0.63394E-02   -0.52658E-02 14796   0.599E-01    0.590E-01
DAV:   3    -0.131487347188E+04    0.27179E-02   -0.13148E-02 13584   0.530E-01    0.128E-01
DAV:   4    -0.131487381398E+04   -0.34210E-03   -0.36026E-03 16980   0.222E-01    0.190E-01
DAV:   5    -0.131487351192E+04    0.30207E-03   -0.20221E-03 15552   0.208E-01    0.634E-02
DAV:   6    -0.131487348181E+04    0.30105E-04   -0.43319E-04 18000   0.609E-02    0.444E-02
DAV:   7    -0.131487349109E+04   -0.92746E-05   -0.23690E-04 16896   0.615E-02    0.418E-02
DAV:   8    -0.131487347909E+04    0.11991E-04   -0.55887E-05 14844   0.346E-02    0.149E-02
DAV:   9    -0.131487348155E+04   -0.24539E-05   -0.23563E-05 12360   0.221E-02
   9 F= -.13148735E+04 E0= -.13148222E+04  d E =-.182410E-01
       N       E                     dE             d eps       ncg     rms          rms(c)
DAV:   1    -0.131487521530E+04   -0.17362E-02   -0.62072E+00 11736   0.309E+00    0.293E-01
DAV:   2    -0.131488381930E+04   -0.86040E-02   -0.71668E-02 14844   0.693E-01    0.684E-01
DAV:   3    -0.131488017230E+04    0.36470E-02   -0.17491E-02 13632   0.609E-01    0.146E-01
DAV:   4    -0.131488062021E+04   -0.44790E-03   -0.48098E-03 17340   0.251E-01    0.214E-01
DAV:   5    -0.131488023477E+04    0.38544E-03   -0.25574E-03 15864   0.235E-01    0.735E-02
DAV:   6    -0.131488019026E+04    0.44507E-04   -0.54225E-04 17904   0.701E-02    0.499E-02
DAV:   7    -0.131488020366E+04   -0.13404E-04   -0.30664E-04 17076   0.697E-02    0.480E-02
DAV:   8    -0.131488018822E+04    0.15447E-04   -0.73058E-05 14940   0.402E-02    0.170E-02
DAV:   9    -0.131488019024E+04   -0.20270E-05   -0.29816E-05 13224   0.241E-02
  10 F= -.13148802E+04 E0= -.13148289E+04  d E =-.249497E-01
       N       E                     dE             d eps       ncg     rms          rms(c)
DAV:   1    -0.131488635702E+04   -0.61688E-02   -0.10817E+01 11736   0.409E+00    0.310E-01
DAV:   2    -0.131489572494E+04   -0.93679E-02   -0.10291E-01 15924   0.633E-01    0.419E-01
DAV:   3    -0.131489544666E+04    0.27828E-03   -0.14520E-02 13368   0.562E-01    0.227E-01
DAV:   4    -0.131489513198E+04    0.31468E-03   -0.33813E-03 16452   0.259E-01    0.165E-01
DAV:   5    -0.131489492976E+04    0.20222E-03   -0.13740E-03 15576   0.191E-01    0.760E-02
DAV:   6    -0.131489489499E+04    0.34770E-04   -0.46457E-04 14316   0.757E-02    0.379E-02
DAV:   7    -0.131489490723E+04   -0.12236E-04   -0.20182E-04 16140   0.485E-02    0.371E-02
DAV:   8    -0.131489490014E+04    0.70841E-05   -0.89554E-05 15168   0.359E-02    0.135E-02
DAV:   9    -0.131489490451E+04   -0.43678E-05   -0.35068E-05 14100   0.239E-02
  11 F= -.13148949E+04 E0= -.13148439E+04  d E =-.147143E-01
       N       E                     dE             d eps       ncg     rms          rms(c)
DAV:   1    -0.131488326059E+04    0.11640E-01   -0.24701E+01 11736   0.618E+00    0.476E-01
DAV:   2    -0.131490561471E+04   -0.22354E-01   -0.24553E-01 15948   0.972E-01    0.638E-01
DAV:   3    -0.131490503379E+04    0.58092E-03   -0.34177E-02 13476   0.861E-01    0.352E-01
DAV:   4    -0.131490418394E+04    0.84985E-03   -0.75178E-03 16236   0.393E-01    0.240E-01
DAV:   5    -0.131490377121E+04    0.41274E-03   -0.30655E-03 15564   0.284E-01    0.117E-01
DAV:   6    -0.131490368979E+04    0.81418E-04   -0.10719E-03 14280   0.118E-01    0.583E-02
DAV:   7    -0.131490372066E+04   -0.30871E-04   -0.47902E-04 15960   0.750E-02    0.574E-02
DAV:   8    -0.131490370450E+04    0.16160E-04   -0.20701E-04 15000   0.559E-02    0.213E-02
DAV:   9    -0.131490371482E+04   -0.10326E-04   -0.88936E-05 15996   0.372E-02    0.289E-02
DAV:  10    -0.131490370772E+04    0.71032E-05   -0.34376E-05 13296   0.289E-02    0.974E-03
DAV:  11    -0.131490370797E+04   -0.24922E-06   -0.92837E-06  7980   0.107E-02
  12 F= -.13149037E+04 E0= -.13148529E+04  d E =-.235177E-01
       N       E                     dE             d eps       ncg     rms          rms(c)
DAV:   1    -0.131490695162E+04   -0.32439E-02   -0.18020E+00 11748   0.169E+00    0.134E-01
DAV:   2    -0.131490858334E+04   -0.16317E-02   -0.18654E-02 15792   0.277E-01    0.189E-01
DAV:   3    -0.131490848063E+04    0.10271E-03   -0.27809E-03 13200   0.243E-01    0.937E-02
DAV:   4    -0.131490842980E+04    0.50833E-04   -0.58445E-04 16392   0.104E-01    0.629E-02
DAV:   5    -0.131490840862E+04    0.21177E-04   -0.29324E-04 15384   0.817E-02    0.357E-02
DAV:   6    -0.131490840266E+04    0.59580E-05   -0.93624E-05 14484   0.355E-02    0.207E-02
DAV:   7    -0.131490840206E+04    0.59747E-06   -0.38273E-05 13908   0.208E-02
  13 F= -.13149084E+04 E0= -.13148576E+04  d E =-.469409E-02
       N       E                     dE             d eps       ncg     rms          rms(c)
DAV:   1    -0.131490869133E+04   -0.28867E-03   -0.41506E+00 11736   0.257E+00    0.205E-01
DAV:   2    -0.131491251897E+04   -0.38276E-02   -0.43606E-02 15744   0.425E-01    0.292E-01
DAV:   3    -0.131491226771E+04    0.25126E-03   -0.65488E-03 13176   0.373E-01    0.144E-01
DAV:   4    -0.131491214291E+04    0.12480E-03   -0.13401E-03 16392   0.158E-01    0.929E-02
DAV:   5    -0.131491210412E+04    0.38793E-04   -0.69809E-04 15384   0.124E-01    0.564E-02
DAV:   6    -0.131491208609E+04    0.18026E-04   -0.20561E-04 14664   0.556E-02    0.310E-02
DAV:   7    -0.131491208639E+04   -0.29779E-06   -0.10171E-04 16896   0.318E-02    0.192E-02
DAV:   8    -0.131491208544E+04    0.95126E-06   -0.35946E-05 13332   0.165E-02
  14 F= -.13149121E+04 E0= -.13148613E+04  d E =-.837747E-02
       N       E                     dE             d eps       ncg     rms          rms(c)
DAV:   1    -0.131491193135E+04    0.15505E-03   -0.60131E-01 11784   0.977E-01    0.785E-02
DAV:   2    -0.131491247972E+04   -0.54838E-03   -0.61442E-03 15540   0.166E-01    0.118E-01
DAV:   3    -0.131491242799E+04    0.51730E-04   -0.10085E-03 13152   0.146E-01    0.507E-02
DAV:   4    -0.131491241811E+04    0.98861E-05   -0.21409E-04 16788   0.576E-02    0.373E-02
DAV:   5    -0.131491241110E+04    0.70117E-05   -0.10306E-04 15324   0.474E-02    0.207E-02
DAV:   6    -0.131491240853E+04    0.25700E-05   -0.26455E-05 10992   0.198E-02
  15 F= -.13149124E+04 E0= -.13148616E+04  d E =-.870056E-02
       N       E                     dE             d eps       ncg     rms          rms(c)
DAV:   1    -0.131491286998E+04   -0.45888E-03   -0.30311E+00 11748   0.219E+00    0.173E-01
DAV:   2    -0.131491561040E+04   -0.27404E-02   -0.30448E-02 15594   0.343E-01    0.252E-01
DAV:   3    -0.131491537971E+04    0.23069E-03   -0.44671E-03 13428   0.304E-01    0.127E-01
DAV:   4    -0.131491532718E+04    0.52527E-04   -0.10900E-03 16104   0.142E-01    0.101E-01
DAV:   5    -0.131491525634E+04    0.70848E-04   -0.68662E-04 14976   0.121E-01    0.450E-02
DAV:   6    -0.131491523854E+04    0.17795E-04   -0.17381E-04 15876   0.411E-02    0.226E-02
DAV:   7    -0.131491524978E+04   -0.11240E-04   -0.11574E-04 17148   0.347E-02    0.322E-02
DAV:   8    -0.131491524111E+04    0.86668E-05   -0.37022E-05 14040   0.293E-02    0.828E-03
DAV:   9    -0.131491524224E+04   -0.11318E-05   -0.10078E-05  8100   0.133E-02
  16 F= -.13149152E+04 E0= -.13148644E+04  d E =-.283372E-02
       N       E                     dE             d eps       ncg     rms          rms(c)
DAV:   1    -0.131491524814E+04   -0.70220E-05   -0.13732E-01 11784   0.467E-01    0.361E-02
DAV:   2    -0.131491536588E+04   -0.11774E-03   -0.13618E-03 15648   0.675E-02    0.459E-02
DAV:   3    -0.131491536362E+04    0.22540E-05   -0.17582E-04 13518   0.606E-02    0.310E-02
DAV:   4    -0.131491535744E+04    0.61862E-05   -0.43032E-05 14004   0.305E-02    0.178E-02
DAV:   5    -0.131491535588E+04    0.15539E-05   -0.25793E-05 13326   0.230E-02    0.101E-02
DAV:   6    -0.131491535489E+04    0.99553E-06   -0.60335E-06  7164   0.968E-03
  17 F= -.13149154E+04 E0= -.13148644E+04  d E =-.294636E-02
       N       E                     dE             d eps       ncg     rms          rms(c)
DAV:   1    -0.131491579571E+04   -0.43982E-03   -0.24087E+00 11736   0.196E+00    0.141E-01
DAV:   2    -0.131491765848E+04   -0.18628E-02   -0.22471E-02 16494   0.248E-01    0.131E-01
DAV:   3    -0.131491781674E+04   -0.15827E-03   -0.23644E-03 13644   0.229E-01    0.148E-01
DAV:   4    -0.131491759267E+04    0.22407E-03   -0.52160E-04 13548   0.129E-01    0.404E-02
DAV:   5    -0.131491759686E+04   -0.41889E-05   -0.23203E-04 18498   0.556E-02    0.312E-02
DAV:   6    -0.131491758818E+04    0.86862E-05   -0.48716E-05 13932   0.307E-02    0.136E-02
DAV:   7    -0.131491758884E+04   -0.66677E-06   -0.18987E-05 10902   0.187E-02
  18 F= -.13149176E+04 E0= -.13148667E+04  d E =-.223396E-02
       N       E                     dE             d eps       ncg     rms          rms(c)
DAV:   1    -0.131491684421E+04    0.74397E-03   -0.27131E+00 11736   0.208E+00    0.151E-01
DAV:   2    -0.131491894845E+04   -0.21042E-02   -0.25381E-02 16410   0.265E-01    0.142E-01
DAV:   3    -0.131491911145E+04   -0.16299E-03   -0.27545E-03 13428   0.245E-01    0.156E-01
DAV:   4    -0.131491887064E+04    0.24080E-03   -0.60622E-04 13452   0.134E-01    0.436E-02
DAV:   5    -0.131491887557E+04   -0.49286E-05   -0.25738E-04 18102   0.588E-02    0.333E-02
DAV:   6    -0.131491886576E+04    0.98057E-05   -0.56892E-05 14376   0.324E-02    0.139E-02
DAV:   7    -0.131491886692E+04   -0.11581E-05   -0.21852E-05 11268   0.199E-02
  19 F= -.13149189E+04 E0= -.13148680E+04  d E =-.351204E-02
       N       E                     dE             d eps       ncg     rms          rms(c)
DAV:   1    -0.131490965779E+04    0.92080E-02   -0.10850E+01 11736   0.416E+00    0.302E-01
DAV:   2    -0.131491827270E+04   -0.86149E-02   -0.10389E-01 16458   0.533E-01    0.277E-01
DAV:   3    -0.131491899399E+04   -0.72129E-03   -0.10965E-02 13650   0.489E-01    0.316E-01
DAV:   4    -0.131491796624E+04    0.10278E-02   -0.24269E-03 13572   0.275E-01    0.802E-02
DAV:   5    -0.131491800592E+04   -0.39680E-04   -0.10623E-03 18738   0.117E-01    0.710E-02
DAV:   6    -0.131491795866E+04    0.47256E-04   -0.23139E-04 16536   0.683E-02    0.270E-02
DAV:   7    -0.131491796343E+04   -0.47745E-05   -0.86350E-05 16128   0.390E-02    0.282E-02
DAV:   8    -0.131491795788E+04    0.55501E-05   -0.32837E-05 13536   0.257E-02    0.120E-02
DAV:   9    -0.131491795891E+04   -0.10237E-05   -0.12239E-05  8868   0.160E-02
  20 F= -.13149180E+04 E0= -.13148672E+04  d E =-.260402E-02
       N       E                     dE             d eps       ncg     rms          rms(c)
DAV:   1    -0.131491490295E+04    0.30549E-02   -0.55212E+00 11736   0.297E+00    0.213E-01
DAV:   2    -0.131491921489E+04   -0.43119E-02   -0.52365E-02 16686   0.372E-01    0.181E-01
DAV:   3    -0.131491964922E+04   -0.43433E-03   -0.52321E-03 13926   0.339E-01    0.233E-01
DAV:   4    -0.131491907193E+04    0.57729E-03   -0.12561E-03 14004   0.203E-01    0.500E-02
DAV:   5    -0.131491910175E+04   -0.29814E-04   -0.53009E-04 19782   0.791E-02    0.530E-02
DAV:   6    -0.131491907260E+04    0.29152E-04   -0.10827E-04 17364   0.504E-02    0.180E-02
DAV:   7    -0.131491907430E+04   -0.17016E-05   -0.36316E-05 14454   0.264E-02
  21 F= -.13149191E+04 E0= -.13148682E+04  d E =-.371941E-02
       N       E                     dE             d eps       ncg     rms          rms(c)
DAV:   1    -0.131491904040E+04    0.32199E-04   -0.24765E+00 11736   0.199E+00    0.140E-01
DAV:   2    -0.131492086138E+04   -0.18210E-02   -0.22710E-02 16866   0.238E-01    0.111E-01
DAV:   3    -0.131492111209E+04   -0.25071E-03   -0.21712E-03 13974   0.216E-01    0.167E-01
DAV:   4    -0.131492083290E+04    0.27918E-03   -0.55099E-04 13680   0.135E-01    0.444E-02
DAV:   5    -0.131492082587E+04    0.70325E-05   -0.19063E-04 18210   0.485E-02    0.226E-02
DAV:   6    -0.131492082390E+04    0.19745E-05   -0.46236E-05 13908   0.250E-02
  22 F= -.13149208E+04 E0= -.13148699E+04  d E =-.174960E-02
       N       E                     dE             d eps       ncg     rms          rms(c)
DAV:   1    -0.131492002553E+04    0.80034E-03   -0.23626E+00 11736   0.194E+00    0.140E-01
DAV:   2    -0.131492173672E+04   -0.17112E-02   -0.21464E-02 16896   0.234E-01    0.110E-01
DAV:   3    -0.131492195798E+04   -0.22126E-03   -0.21694E-03 14244   0.222E-01    0.153E-01
DAV:   4    -0.131492171576E+04    0.24222E-03   -0.53302E-04 14004   0.141E-01    0.493E-02
DAV:   5    -0.131492170239E+04    0.13368E-04   -0.19614E-04 17982   0.527E-02    0.217E-02
DAV:   6    -0.131492170069E+04    0.16991E-05   -0.49277E-05 13428   0.214E-02
  23 F= -.13149217E+04 E0= -.13148708E+04  d E =-.262639E-02
       N       E                     dE             d eps       ncg     rms          rms(c)
DAV:   1    -0.131492148139E+04    0.22100E-03   -0.50942E-01 11754   0.903E-01    0.659E-02
DAV:   2    -0.131492185132E+04   -0.36993E-03   -0.45471E-03 16584   0.115E-01    0.644E-02
DAV:   3    -0.131492187821E+04   -0.26886E-04   -0.55528E-04 13614   0.110E-01    0.637E-02
DAV:   4    -0.131492184205E+04    0.36159E-04   -0.11482E-04 13644   0.575E-02    0.263E-02
DAV:   5    -0.131492183701E+04    0.50372E-05   -0.36365E-05 13530   0.260E-02    0.100E-02
DAV:   6    -0.131492183755E+04   -0.53752E-06   -0.14851E-05  8388   0.115E-02
  24 F= -.13149218E+04 E0= -.13148709E+04  d E =-.276325E-02
       N       E                     dE             d eps       ncg     rms          rms(c)
DAV:   1    -0.131492037717E+04    0.14598E-02   -0.27544E+00 11742   0.210E+00    0.164E-01
DAV:   2    -0.131492280777E+04   -0.24306E-02   -0.27525E-02 15798   0.315E-01    0.255E-01
DAV:   3    -0.131492251838E+04    0.28939E-03   -0.40452E-03 13440   0.281E-01    0.119E-01
DAV:   4    -0.131492247422E+04    0.44159E-04   -0.94592E-04 15804   0.119E-01    0.876E-02
DAV:   5    -0.131492243476E+04    0.39457E-04   -0.55699E-04 14676   0.108E-01    0.435E-02
DAV:   6    -0.131492241798E+04    0.16781E-04   -0.14810E-04 16128   0.420E-02    0.248E-02
DAV:   7    -0.131492242493E+04   -0.69509E-05   -0.92197E-05 16014   0.368E-02    0.276E-02
DAV:   8    -0.131492241947E+04    0.54620E-05   -0.29471E-05 13548   0.246E-02    0.762E-03
DAV:   9    -0.131492242071E+04   -0.12433E-05   -0.11001E-05  8220   0.130E-02
  25 F= -.13149224E+04 E0= -.13148714E+04  d E =-.583163E-03
       N       E                     dE             d eps       ncg     rms          rms(c)
DAV:   1    -0.131492240853E+04    0.10942E-04   -0.28543E-01 11748   0.676E-01    0.537E-02
DAV:   2    -0.131492266427E+04   -0.25574E-03   -0.28364E-03 15570   0.106E-01    0.887E-02
DAV:   3    -0.131492262360E+04    0.40667E-04   -0.45641E-04 13314   0.945E-02    0.364E-02
DAV:   4    -0.131492262097E+04    0.26273E-05   -0.10931E-04 16488   0.381E-02    0.306E-02
DAV:   5    -0.131492261580E+04    0.51719E-05   -0.65392E-05 14496   0.373E-02    0.148E-02
DAV:   6    -0.131492261364E+04    0.21551E-05   -0.13270E-05 10806   0.146E-02
  26 F= -.13149226E+04 E0= -.13148716E+04  d E =-.776097E-03
       N       E                     dE             d eps       ncg     rms          rms(c)
DAV:   1    -0.131492180915E+04    0.80664E-03   -0.20224E+00 11736   0.179E+00    0.129E-01
DAV:   2    -0.131492331427E+04   -0.15051E-02   -0.18124E-02 16272   0.232E-01    0.131E-01
DAV:   3    -0.131492341513E+04   -0.10086E-03   -0.21525E-03 13374   0.215E-01    0.128E-01
DAV:   4    -0.131492326348E+04    0.15165E-03   -0.42087E-04 14520   0.114E-01    0.442E-02
DAV:   5    -0.131492326312E+04    0.35987E-06   -0.22470E-04 17208   0.625E-02    0.360E-02
DAV:   6    -0.131492325272E+04    0.10404E-04   -0.58922E-05 14304   0.333E-02    0.163E-02
DAV:   7    -0.131492325256E+04    0.15582E-06   -0.20846E-05 11088   0.176E-02
  27 F= -.13149233E+04 E0= -.13148723E+04  d E =-.638916E-03
       N       E                     dE             d eps       ncg     rms          rms(c)
DAV:   1    -0.131492323399E+04    0.18725E-04   -0.65367E-02 11784   0.321E-01    0.250E-02
DAV:   2    -0.131492328791E+04   -0.53917E-04   -0.60551E-04 15768   0.476E-02    0.337E-02
DAV:   3    -0.131492328560E+04    0.23046E-05   -0.90114E-05 12834   0.439E-02    0.206E-02
DAV:   4    -0.131492328296E+04    0.26439E-05   -0.16291E-05 10884   0.180E-02    0.104E-02
DAV:   5    -0.131492328243E+04    0.53446E-06   -0.82141E-06  7728   0.134E-02    0.614E-03
DAV:   6    -0.131492328234E+04    0.89349E-07   -0.29900E-06  6396   0.628E-03
  28 F= -.13149233E+04 E0= -.13148723E+04  d E =-.668692E-03
       N       E                     dE             d eps       ncg     rms          rms(c)
DAV:   1    -0.131492328515E+04   -0.27274E-05   -0.12067E-01 11748   0.441E-01    0.436E-02
DAV:   2    -0.131492346918E+04   -0.18403E-03   -0.16590E-03 15036   0.101E-01    0.920E-02
DAV:   3    -0.131492340579E+04    0.63385E-04   -0.34057E-04 13638   0.871E-02    0.227E-02
DAV:   4    -0.131492340948E+04   -0.36853E-05   -0.10151E-04 17340   0.339E-02    0.286E-02
DAV:   5    -0.131492340502E+04    0.44557E-05   -0.68136E-05 15480   0.359E-02    0.144E-02
DAV:   6    -0.131492340253E+04    0.24964E-05   -0.88909E-06  8364   0.126E-02
  29 F= -.13149234E+04 E0= -.13148724E+04  d E =-.120191E-03
       N       E                     dE             d eps       ncg     rms          rms(c)
DAV:   1    -0.131492340880E+04   -0.37781E-05   -0.64855E-03 11802   0.103E-01    0.132E-02
DAV:   2    -0.131492342455E+04   -0.15751E-04   -0.10138E-04 13548   0.358E-02    0.348E-02
DAV:   3    -0.131492341418E+04    0.10371E-04   -0.37945E-05 12966   0.312E-02    0.427E-03
DAV:   4    -0.131492341482E+04   -0.64255E-06   -0.59779E-06  6720   0.887E-03    0.787E-03
DAV:   5    -0.131492341443E+04    0.39386E-06   -0.41285E-06  6510   0.845E-03    0.184E-03
DAV:   6    -0.131492341448E+04   -0.50233E-07   -0.12344E-06  6138   0.297E-03
  30 F= -.13149234E+04 E0= -.13148724E+04  d E =-.132144E-03
       N       E                     dE             d eps       ncg     rms          rms(c)
DAV:   1    -0.131492334145E+04    0.72977E-04   -0.18960E-01 11748   0.550E-01    0.424E-02
DAV:   2    -0.131492350961E+04   -0.16815E-03   -0.19468E-03 16116   0.823E-02    0.510E-02
DAV:   3    -0.131492350881E+04    0.79288E-06   -0.23233E-04 13404   0.732E-02    0.338E-02
DAV:   4    -0.131492349884E+04    0.99746E-05   -0.48865E-05 14298   0.346E-02    0.173E-02
DAV:   5    -0.131492349752E+04    0.13172E-05   -0.21060E-05 12120   0.231E-02    0.119E-02
DAV:   6    -0.131492349672E+04    0.80428E-06   -0.92264E-06  7368   0.118E-02
  31 F= -.13149235E+04 E0= -.13148725E+04  d E =-.822357E-04
       N       E                     dE             d eps       ncg     rms          rms(c)
DAV:   1    -0.131492349314E+04    0.43812E-05   -0.31609E-03 11808   0.714E-02    0.692E-03
DAV:   2    -0.131492349757E+04   -0.44345E-05   -0.38160E-05 13164   0.179E-02    0.160E-02
DAV:   3    -0.131492349564E+04    0.19287E-05   -0.10024E-05  7098   0.155E-02    0.256E-03
DAV:   4    -0.131492349579E+04   -0.14878E-06   -0.17818E-06  6150   0.484E-03    0.447E-03
DAV:   5    -0.131492349569E+04    0.10565E-06   -0.13700E-06  6114   0.469E-03    0.809E-04
DAV:   6    -0.131492349573E+04   -0.38359E-07   -0.38575E-07  6102   0.163E-03
  32 F= -.13149235E+04 E0= -.13148725E+04  d E =-.812460E-04
       N       E                     dE             d eps       ncg     rms          rms(c)
DAV:   1    -0.131492349997E+04   -0.42789E-05   -0.42315E-02 11766   0.259E-01    0.195E-02
DAV:   2    -0.131492353501E+04   -0.35046E-04   -0.43132E-04 16848   0.324E-02    0.140E-02
DAV:   3    -0.131492353872E+04   -0.37065E-05   -0.37160E-05 13356   0.287E-02    0.217E-02
DAV:   4    -0.131492353357E+04    0.51477E-05   -0.12066E-05 10104   0.197E-02    0.407E-03
DAV:   5    -0.131492353394E+04   -0.37131E-06   -0.32816E-06  6708   0.737E-03    0.645E-03
DAV:   6    -0.131492353363E+04    0.31351E-06   -0.22015E-06  6198   0.641E-03
  33 F= -.13149235E+04 E0= -.13148725E+04  d E =-.379030E-04
       N       E                     dE             d eps       ncg     rms          rms(c)
DAV:   1    -0.131492353410E+04   -0.15667E-06   -0.24029E-03 11808   0.618E-02    0.565E-03
DAV:   2    -0.131492353672E+04   -0.26174E-05   -0.25745E-05 12828   0.122E-02    0.984E-03
DAV:   3    -0.131492353618E+04    0.54095E-06   -0.61315E-06  6264   0.115E-02    0.293E-03
DAV:   4    -0.131492353633E+04   -0.15402E-06   -0.13445E-06  6108   0.470E-03    0.428E-03
DAV:   5    -0.131492353622E+04    0.11097E-06   -0.11047E-06  6102   0.452E-03    0.987E-04
DAV:   6    -0.131492353625E+04   -0.35740E-07   -0.42331E-07  6066   0.146E-03
  34 F= -.13149235E+04 E0= -.13148725E+04  d E =-.405284E-04
