NiAl                                    
           1
    14.500000    0.000000    0.000000
     0.000000   14.500000    0.000000
     0.000000    0.000000   14.500000
   Ni   Al   N 
 125 125   1
Direct configuration=     1
   0.00000000  0.00000000  0.00000000
   0.00000000  0.00000000  0.20000000
   0.00000000  0.00000000  0.40000000
   0.00000000  0.00000000  0.60000000
   0.00000000  0.00000000  0.80000000
   0.00000000  0.20000000  0.00000000
   0.00000000  0.20000000  0.20000000
   0.00000000  0.20000000  0.40000000
   0.00000000  0.20000000  0.60000000
   0.00000000  0.20000000  0.80000000
   0.00000000  0.40000000  0.00000000
   0.00000000  0.40000000  0.20000000
   0.00000000  0.40000000  0.40000000
   0.00000000  0.40000000  0.60000000
   0.00000000  0.40000000  0.80000000
   0.00000000  0.60000000  0.00000000
   0.00000000  0.60000000  0.20000000
   0.00000000  0.60000000  0.40000000
   0.00000000  0.60000000  0.60000000
   0.00000000  0.60000000  0.80000000
   0.00000000  0.80000000  0.00000000
   0.00000000  0.80000000  0.20000000
   0.00000000  0.80000000  0.40000000
   0.00000000  0.80000000  0.60000000
   0.00000000  0.80000000  0.80000000
   0.20000000  0.00000000  0.00000000
   0.20000000  0.00000000  0.20000000
   0.20000000  0.00000000  0.40000000
   0.20000000  0.00000000  0.60000000
   0.20000000  0.00000000  0.80000000
   0.20000000  0.20000000  0.00000000
   0.20000000  0.20000000  0.20000000
   0.20000000  0.20000000  0.40000000
   0.20000000  0.20000000  0.60000000
   0.20000000  0.20000000  0.80000000
   0.20000000  0.40000000  0.00000000
   0.20000000  0.40000000  0.20000000
   0.20000000  0.40000000  0.40000000
   0.20000000  0.40000000  0.60000000
   0.20000000  0.40000000  0.80000000
   0.20000000  0.60000000  0.00000000
   0.20000000  0.60000000  0.20000000
   0.20000000  0.60000000  0.40000000
   0.20000000  0.60000000  0.60000000
   0.20000000  0.60000000  0.80000000
   0.20000000  0.80000000  0.00000000
   0.20000000  0.80000000  0.20000000
   0.20000000  0.80000000  0.40000000
   0.20000000  0.80000000  0.60000000
   0.20000000  0.80000000  0.80000000
   0.40000000  0.00000000  0.00000000
   0.40000000  0.00000000  0.20000000
   0.40000000  0.00000000  0.40000000
   0.40000000  0.00000000  0.60000000
   0.40000000  0.00000000  0.80000000
   0.40000000  0.20000000  0.00000000
   0.40000000  0.20000000  0.20000000
   0.40000000  0.20000000  0.40000000
   0.40000000  0.20000000  0.60000000
   0.40000000  0.20000000  0.80000000
   0.40000000  0.40000000  0.00000000
   0.40000000  0.40000000  0.20000000
   0.40000000  0.40000000  0.40000000
   0.40000000  0.40000000  0.60000000
   0.40000000  0.40000000  0.80000000
   0.40000000  0.60000000  0.00000000
   0.40000000  0.60000000  0.20000000
   0.40000000  0.60000000  0.40000000
   0.40000000  0.60000000  0.60000000
   0.40000000  0.60000000  0.80000000
   0.40000000  0.80000000  0.00000000
   0.40000000  0.80000000  0.20000000
   0.40000000  0.80000000  0.40000000
   0.40000000  0.80000000  0.60000000
   0.40000000  0.80000000  0.80000000
   0.60000000  0.00000000  0.00000000
   0.60000000  0.00000000  0.20000000
   0.60000000  0.00000000  0.40000000
   0.60000000  0.00000000  0.60000000
   0.60000000  0.00000000  0.80000000
   0.60000000  0.20000000  0.00000000
   0.60000000  0.20000000  0.20000000
   0.60000000  0.20000000  0.40000000
   0.60000000  0.20000000  0.60000000
   0.60000000  0.20000000  0.80000000
   0.60000000  0.40000000  0.00000000
   0.60000000  0.40000000  0.20000000
   0.60000000  0.40000000  0.40000000
   0.60000000  0.40000000  0.60000000
   0.60000000  0.40000000  0.80000000
   0.60000000  0.60000000  0.00000000
   0.60000000  0.60000000  0.20000000
   0.60000000  0.60000000  0.40000000
   0.60000000  0.60000000  0.60000000
   0.60000000  0.60000000  0.80000000
   0.60000000  0.80000000  0.00000000
   0.60000000  0.80000000  0.20000000
   0.60000000  0.80000000  0.40000000
   0.60000000  0.80000000  0.60000000
   0.60000000  0.80000000  0.80000000
   0.80000000  0.00000000  0.00000000
   0.80000000  0.00000000  0.20000000
   0.80000000  0.00000000  0.40000000
   0.80000000  0.00000000  0.60000000
   0.80000000  0.00000000  0.80000000
   0.80000000  0.20000000  0.00000000
   0.80000000  0.20000000  0.20000000
   0.80000000  0.20000000  0.40000000
   0.80000000  0.20000000  0.60000000
   0.80000000  0.20000000  0.80000000
   0.80000000  0.40000000  0.00000000
   0.80000000  0.40000000  0.20000000
   0.80000000  0.40000000  0.40000000
   0.80000000  0.40000000  0.60000000
   0.80000000  0.40000000  0.80000000
   0.80000000  0.60000000  0.00000000
   0.80000000  0.60000000  0.20000000
   0.80000000  0.60000000  0.40000000
   0.80000000  0.60000000  0.60000000
   0.80000000  0.60000000  0.80000000
   0.80000000  0.80000000  0.00000000
   0.80000000  0.80000000  0.20000000
   0.80000000  0.80000000  0.40000000
   0.80000000  0.80000000  0.60000000
   0.80000000  0.80000000  0.80000000
   0.10000000  0.10000000  0.10000000
   0.10000000  0.10000000  0.30000000
   0.10000000  0.10000000  0.50000000
   0.10000000  0.10000000  0.70000000
   0.10000000  0.10000000  0.90000000
   0.10000000  0.30000000  0.10000000
   0.10000000  0.30000000  0.30000000
   0.10000000  0.30000000  0.50000000
   0.10000000  0.30000000  0.70000000
   0.10000000  0.30000000  0.90000000
   0.10000000  0.50000000  0.10000000
   0.10000000  0.50000000  0.30000000
   0.10000000  0.50000000  0.50000000
   0.10000000  0.50000000  0.70000000
   0.10000000  0.50000000  0.90000000
   0.10000000  0.70000000  0.10000000
   0.10000000  0.70000000  0.30000000
   0.10000000  0.70000000  0.50000000
   0.10000000  0.70000000  0.70000000
   0.10000000  0.70000000  0.90000000
   0.10000000  0.90000000  0.10000000
   0.10000000  0.90000000  0.30000000
   0.10000000  0.90000000  0.50000000
   0.10000000  0.90000000  0.70000000
   0.10000000  0.90000000  0.90000000
   0.30000000  0.10000000  0.10000000
   0.30000000  0.10000000  0.30000000
   0.30000000  0.10000000  0.50000000
   0.30000000  0.10000000  0.70000000
   0.30000000  0.10000000  0.90000000
   0.30000000  0.30000000  0.10000000
   0.30000000  0.30000000  0.30000000
   0.30000000  0.30000000  0.50000000
   0.30000000  0.30000000  0.70000000
   0.30000000  0.30000000  0.90000000
   0.30000000  0.50000000  0.10000000
   0.30000000  0.50000000  0.30000000
   0.30000000  0.50000000  0.50000000
   0.30000000  0.50000000  0.70000000
   0.30000000  0.50000000  0.90000000
   0.30000000  0.70000000  0.10000000
   0.30000000  0.70000000  0.30000000
   0.30000000  0.70000000  0.50000000
   0.30000000  0.70000000  0.70000000
   0.30000000  0.70000000  0.90000000
   0.30000000  0.90000000  0.10000000
   0.30000000  0.90000000  0.30000000
   0.30000000  0.90000000  0.50000000
   0.30000000  0.90000000  0.70000000
   0.30000000  0.90000000  0.90000000
   0.50000000  0.10000000  0.10000000
   0.50000000  0.10000000  0.30000000
   0.50000000  0.10000000  0.50000000
   0.50000000  0.10000000  0.70000000
   0.50000000  0.10000000  0.90000000
   0.50000000  0.30000000  0.10000000
   0.50000000  0.30000000  0.30000000
   0.50000000  0.30000000  0.50000000
   0.50000000  0.30000000  0.70000000
   0.50000000  0.30000000  0.90000000
   0.50000000  0.50000000  0.10000000
   0.50000000  0.50000000  0.30000000
   0.50000000  0.50000000  0.50000000
   0.50000000  0.50000000  0.70000000
   0.50000000  0.50000000  0.90000000
   0.50000000  0.70000000  0.10000000
   0.50000000  0.70000000  0.30000000
   0.50000000  0.70000000  0.50000000
   0.50000000  0.70000000  0.70000000
   0.50000000  0.70000000  0.90000000
   0.50000000  0.90000000  0.10000000
   0.50000000  0.90000000  0.30000000
   0.50000000  0.90000000  0.50000000
   0.50000000  0.90000000  0.70000000
   0.50000000  0.90000000  0.90000000
   0.70000000  0.10000000  0.10000000
   0.70000000  0.10000000  0.30000000
   0.70000000  0.10000000  0.50000000
   0.70000000  0.10000000  0.70000000
   0.70000000  0.10000000  0.90000000
   0.70000000  0.30000000  0.10000000
   0.70000000  0.30000000  0.30000000
   0.70000000  0.30000000  0.50000000
   0.70000000  0.30000000  0.70000000
   0.70000000  0.30000000  0.90000000
   0.70000000  0.50000000  0.10000000
   0.70000000  0.50000000  0.30000000
   0.70000000  0.50000000  0.50000000
   0.70000000  0.50000000  0.70000000
   0.70000000  0.50000000  0.90000000
   0.70000000  0.70000000  0.10000000
   0.70000000  0.70000000  0.30000000
   0.70000000  0.70000000  0.50000000
   0.70000000  0.70000000  0.70000000
   0.70000000  0.70000000  0.90000000
   0.70000000  0.90000000  0.10000000
   0.70000000  0.90000000  0.30000000
   0.70000000  0.90000000  0.50000000
   0.70000000  0.90000000  0.70000000
   0.70000000  0.90000000  0.90000000
   0.90000000  0.10000000  0.10000000
   0.90000000  0.10000000  0.30000000
   0.90000000  0.10000000  0.50000000
   0.90000000  0.10000000  0.70000000
   0.90000000  0.10000000  0.90000000
   0.90000000  0.30000000  0.10000000
   0.90000000  0.30000000  0.30000000
   0.90000000  0.30000000  0.50000000
   0.90000000  0.30000000  0.70000000
   0.90000000  0.30000000  0.90000000
   0.90000000  0.50000000  0.10000000
   0.90000000  0.50000000  0.30000000
   0.90000000  0.50000000  0.50000000
   0.90000000  0.50000000  0.70000000
   0.90000000  0.50000000  0.90000000
   0.90000000  0.70000000  0.10000000
   0.90000000  0.70000000  0.30000000
   0.90000000  0.70000000  0.50000000
   0.90000000  0.70000000  0.70000000
   0.90000000  0.70000000  0.90000000
   0.90000000  0.90000000  0.10000000
   0.90000000  0.90000000  0.30000000
   0.90000000  0.90000000  0.50000000
   0.90000000  0.90000000  0.70000000
   0.90000000  0.90000000  0.90000000
   0.10000000  0.10000000  0.00000000
Direct configuration=     2
  -0.00093699 -0.00093699 -0.00000000
   0.00005580  0.00005580  0.19983332
   0.00000982  0.00000982  0.39994199
   0.00000982  0.00000982  0.60005801
   0.00005580  0.00005580  0.80016668
  -0.00093699  0.20093699 -0.00000000
   0.00005580  0.19994420  0.19983332
   0.00000982  0.19999018  0.39994199
   0.00000982  0.19999018  0.60005801
   0.00005580  0.19994420  0.80016668
   0.00005445  0.39997632 -0.00000000
  -0.00000526  0.39999527  0.19999298
   0.00000238  0.39999034  0.40001097
   0.00000238  0.39999034  0.59998903
  -0.00000526  0.39999527  0.80000702
   0.00002317  0.60000000 -0.00000000
  -0.00000231  0.60000000  0.19999214
   0.00001340  0.60000000  0.39999668
   0.00001340  0.60000000  0.60000332
  -0.00000231  0.60000000  0.80000786
   0.00005445  0.80002368 -0.00000000
  -0.00000526  0.80000473  0.19999298
   0.00000238  0.80000966  0.40001097
   0.00000238  0.80000966  0.59998903
  -0.00000526  0.80000473  0.80000702
   0.20093699 -0.00093699 -0.00000000
   0.19994420  0.00005580  0.19983332
   0.19999018  0.00000982  0.39994199
   0.19999018  0.00000982  0.60005801
   0.19994420  0.00005580  0.80016668
   0.20093699  0.20093699 -0.00000000
   0.19994420  0.19994420  0.19983332
   0.19999018  0.19999018  0.39994199
   0.19999018  0.19999018  0.60005801
   0.19994420  0.19994420  0.80016668
   0.19994555  0.39997632 -0.00000000
   0.20000526  0.39999527  0.19999298
   0.19999762  0.39999034  0.40001097
   0.19999762  0.39999034  0.59998903
   0.20000526  0.39999527  0.80000702
   0.19997683  0.60000000 -0.00000000
   0.20000231  0.60000000  0.19999214
   0.19998660  0.60000000  0.39999668
   0.19998660  0.60000000  0.60000332
   0.20000231  0.60000000  0.80000786
   0.19994555  0.80002368 -0.00000000
   0.20000526  0.80000473  0.19999298
   0.19999762  0.80000966  0.40001097
   0.19999762  0.80000966  0.59998903
   0.20000526  0.80000473  0.80000702
   0.39997632  0.00005445 -0.00000000
   0.39999527 -0.00000526  0.19999298
   0.39999034  0.00000238  0.40001097
   0.39999034  0.00000238  0.59998903
   0.39999527 -0.00000526  0.80000702
   0.39997632  0.19994555 -0.00000000
   0.39999527  0.20000526  0.19999298
   0.39999034  0.19999762  0.40001097
   0.39999034  0.19999762  0.59998903
   0.39999527  0.20000526  0.80000702
   0.39999509  0.39999509 -0.00000000
   0.39999871  0.39999871  0.20000001
   0.39999581  0.39999581  0.39997768
   0.39999581  0.39999581  0.60002232
   0.39999871  0.39999871  0.79999999
   0.39998621  0.60000000 -0.00000000
   0.39999776  0.60000000  0.19998769
   0.39998849  0.60000000  0.40000640
   0.39998849  0.60000000  0.59999360
   0.39999776  0.60000000  0.80001231
   0.39999509  0.80000491 -0.00000000
   0.39999871  0.80000129  0.20000001
   0.39999581  0.80000419  0.39997768
   0.39999581  0.80000419  0.60002232
   0.39999871  0.80000129  0.79999999
   0.60000000  0.00002317 -0.00000000
   0.60000000 -0.00000231  0.19999214
   0.60000000  0.00001340  0.39999668
   0.60000000  0.00001340  0.60000332
   0.60000000 -0.00000231  0.80000786
   0.60000000  0.19997683 -0.00000000
   0.60000000  0.20000231  0.19999214
   0.60000000  0.19998660  0.39999668
   0.60000000  0.19998660  0.60000332
   0.60000000  0.20000231  0.80000786
   0.60000000  0.39998621 -0.00000000
   0.60000000  0.39999776  0.19998769
   0.60000000  0.39998849  0.40000640
   0.60000000  0.39998849  0.59999360
   0.60000000  0.39999776  0.80001231
   0.60000000  0.60000000 -0.00000000
   0.60000000  0.60000000  0.19999242
   0.60000000  0.60000000  0.39996758
   0.60000000  0.60000000  0.60003242
   0.60000000  0.60000000  0.80000758
   0.60000000  0.80001379 -0.00000000
   0.60000000  0.80000224  0.19998769
   0.60000000  0.80001151  0.40000640
   0.60000000  0.80001151  0.59999360
   0.60000000  0.80000224  0.80001231
   0.80002368  0.00005445 -0.00000000
   0.80000473 -0.00000526  0.19999298
   0.80000966  0.00000238  0.40001097
   0.80000966  0.00000238  0.59998903
   0.80000473 -0.00000526  0.80000702
   0.80002368  0.19994555 -0.00000000
   0.80000473  0.20000526  0.19999298
   0.80000966  0.19999762  0.40001097
   0.80000966  0.19999762  0.59998903
   0.80000473  0.20000526  0.80000702
   0.80000491  0.39999509 -0.00000000
   0.80000129  0.39999871  0.20000001
   0.80000419  0.39999581  0.39997768
   0.80000419  0.39999581  0.60002232
   0.80000129  0.39999871  0.79999999
   0.80001379  0.60000000 -0.00000000
   0.80000224  0.60000000  0.19998769
   0.80001151  0.60000000  0.40000640
   0.80001151  0.60000000  0.59999360
   0.80000224  0.60000000  0.80001231
   0.80000491  0.80000491 -0.00000000
   0.80000129  0.80000129  0.20000001
   0.80000419  0.80000419  0.39997768
   0.80000419  0.80000419  0.60002232
   0.80000129  0.80000129  0.79999999
   0.10000000  0.10000000  0.12663216
   0.10000000  0.10000000  0.30011873
   0.10000000  0.10000000  0.50000000
   0.10000000  0.10000000  0.69988127
   0.10000000  0.10000000  0.87336784
   0.10000000  0.30044158  0.10039778
   0.10000000  0.30001071  0.30000903
   0.10000000  0.30000065  0.50000000
   0.10000000  0.30001071  0.69999097
   0.10000000  0.30044158  0.89960222
   0.10000000  0.50000782  0.09999554
   0.10000000  0.50000384  0.29999074
   0.10000000  0.49999668  0.50000000
   0.10000000  0.50000384  0.70000926
   0.10000000  0.50000782  0.90000446
   0.10000000  0.69999218  0.09999554
   0.10000000  0.69999616  0.29999074
   0.10000000  0.70000332  0.50000000
   0.10000000  0.69999616  0.70000926
   0.10000000  0.69999218  0.90000446
   0.10000000  0.89955842  0.10039778
   0.10000000  0.89998929  0.30000903
   0.10000000  0.89999935  0.50000000
   0.10000000  0.89998929  0.69999097
   0.10000000  0.89955842  0.89960222
   0.30044158  0.10000000  0.10039778
   0.30001071  0.10000000  0.30000903
   0.30000065  0.10000000  0.50000000
   0.30001071  0.10000000  0.69999097
   0.30044158  0.10000000  0.89960222
   0.30000144  0.30000144  0.09995060
   0.30001326  0.30001326  0.30002034
   0.30000307  0.30000307  0.50000000
   0.30001326  0.30001326  0.69997966
   0.30000144  0.30000144  0.90004940
   0.30000171  0.49998913  0.09999552
   0.30000059  0.49999957  0.30001663
   0.30000234  0.50000440  0.50000000
   0.30000059  0.49999957  0.69998337
   0.30000171  0.49998913  0.90000448
   0.30000171  0.70001087  0.09999552
   0.30000059  0.70000043  0.30001663
   0.30000234  0.69999560  0.50000000
   0.30000059  0.70000043  0.69998337
   0.30000171  0.70001087  0.90000448
   0.30000144  0.89999856  0.09995060
   0.30001326  0.89998674  0.30002034
   0.30000307  0.89999693  0.50000000
   0.30001326  0.89998674  0.69997966
   0.30000144  0.89999856  0.90004940
   0.50000782  0.10000000  0.09999554
   0.50000384  0.10000000  0.29999074
   0.49999668  0.10000000  0.50000000
   0.50000384  0.10000000  0.70000926
   0.50000782  0.10000000  0.90000446
   0.49998913  0.30000171  0.09999552
   0.49999957  0.30000059  0.30001663
   0.50000440  0.30000234  0.50000000
   0.49999957  0.30000059  0.69998337
   0.49998913  0.30000171  0.90000448
   0.49999646  0.49999646  0.09997487
   0.50000143  0.50000143  0.30002341
   0.49999473  0.49999473  0.50000000
   0.50000143  0.50000143  0.69997659
   0.49999646  0.49999646  0.90002513
   0.49999646  0.70000354  0.09997487
   0.50000143  0.69999857  0.30002341
   0.49999473  0.70000527  0.50000000
   0.50000143  0.69999857  0.69997659
   0.49999646  0.70000354  0.90002513
   0.49998913  0.89999829  0.09999552
   0.49999957  0.89999941  0.30001663
   0.50000440  0.89999766  0.50000000
   0.49999957  0.89999941  0.69998337
   0.49998913  0.89999829  0.90000448
   0.69999218  0.10000000  0.09999554
   0.69999616  0.10000000  0.29999074
   0.70000332  0.10000000  0.50000000
   0.69999616  0.10000000  0.70000926
   0.69999218  0.10000000  0.90000446
   0.70001087  0.30000171  0.09999552
   0.70000043  0.30000059  0.30001663
   0.69999560  0.30000234  0.50000000
   0.70000043  0.30000059  0.69998337
   0.70001087  0.30000171  0.90000448
   0.70000354  0.49999646  0.09997487
   0.69999857  0.50000143  0.30002341
   0.70000527  0.49999473  0.50000000
   0.69999857  0.50000143  0.69997659
   0.70000354  0.49999646  0.90002513
   0.70000354  0.70000354  0.09997487
   0.69999857  0.69999857  0.30002341
   0.70000527  0.70000527  0.50000000
   0.69999857  0.69999857  0.69997659
   0.70000354  0.70000354  0.90002513
   0.70001087  0.89999829  0.09999552
   0.70000043  0.89999941  0.30001663
   0.69999560  0.89999766  0.50000000
   0.70000043  0.89999941  0.69998337
   0.70001087  0.89999829  0.90000448
   0.89955842  0.10000000  0.10039778
   0.89998929  0.10000000  0.30000903
   0.89999935  0.10000000  0.50000000
   0.89998929  0.10000000  0.69999097
   0.89955842  0.10000000  0.89960222
   0.89999856  0.30000144  0.09995060
   0.89998674  0.30001326  0.30002034
   0.89999693  0.30000307  0.50000000
   0.89998674  0.30001326  0.69997966
   0.89999856  0.30000144  0.90004940
   0.89999829  0.49998913  0.09999552
   0.89999941  0.49999957  0.30001663
   0.89999766  0.50000440  0.50000000
   0.89999941  0.49999957  0.69998337
   0.89999829  0.49998913  0.90000448
   0.89999829  0.70001087  0.09999552
   0.89999941  0.70000043  0.30001663
   0.89999766  0.69999560  0.50000000
   0.89999941  0.70000043  0.69998337
   0.89999829  0.70001087  0.90000448
   0.89999856  0.89999856  0.09995060
   0.89998674  0.89998674  0.30002034
   0.89999693  0.89999693  0.50000000
   0.89998674  0.89998674  0.69997966
   0.89999856  0.89999856  0.90004940
   0.10000000  0.10000000 -0.00000000
Direct configuration=     3
  -0.00073866 -0.00073866 -0.00000000
   0.00004399  0.00004399  0.19986860
   0.00000774  0.00000774  0.39995427
   0.00000774  0.00000774  0.60004573
   0.00004399  0.00004399  0.80013140
  -0.00073866  0.20073866 -0.00000000
   0.00004399  0.19995601  0.19986860
   0.00000774  0.19999226  0.39995427
   0.00000774  0.19999226  0.60004573
   0.00004399  0.19995601  0.80013140
   0.00004293  0.39998133 -0.00000000
  -0.00000414  0.39999627  0.19999447
   0.00000187  0.39999238  0.40000865
   0.00000187  0.39999238  0.59999135
  -0.00000414  0.39999627  0.80000553
   0.00001827  0.60000000 -0.00000000
  -0.00000182  0.60000000  0.19999381
   0.00001056  0.60000000  0.39999738
   0.00001056  0.60000000  0.60000262
  -0.00000182  0.60000000  0.80000619
   0.00004293  0.80001867 -0.00000000
  -0.00000414  0.80000373  0.19999447
   0.00000187  0.80000762  0.40000865
   0.00000187  0.80000762  0.59999135
  -0.00000414  0.80000373  0.80000553
   0.20073866 -0.00073866 -0.00000000
   0.19995601  0.00004399  0.19986860
   0.19999226  0.00000774  0.39995427
   0.19999226  0.00000774  0.60004573
   0.19995601  0.00004399  0.80013140
   0.20073866  0.20073866 -0.00000000
   0.19995601  0.19995601  0.19986860
   0.19999226  0.19999226  0.39995427
   0.19999226  0.19999226  0.60004573
   0.19995601  0.19995601  0.80013140
   0.19995707  0.39998133 -0.00000000
   0.20000414  0.39999627  0.19999447
   0.19999813  0.39999238  0.40000865
   0.19999813  0.39999238  0.59999135
   0.20000414  0.39999627  0.80000553
   0.19998173  0.60000000 -0.00000000
   0.20000182  0.60000000  0.19999381
   0.19998944  0.60000000  0.39999738
   0.19998944  0.60000000  0.60000262
   0.20000182  0.60000000  0.80000619
   0.19995707  0.80001867 -0.00000000
   0.20000414  0.80000373  0.19999447
   0.19999813  0.80000762  0.40000865
   0.19999813  0.80000762  0.59999135
   0.20000414  0.80000373  0.80000553
   0.39998133  0.00004293 -0.00000000
   0.39999627 -0.00000414  0.19999447
   0.39999238  0.00000187  0.40000865
   0.39999238  0.00000187  0.59999135
   0.39999627 -0.00000414  0.80000553
   0.39998133  0.19995707 -0.00000000
   0.39999627  0.20000414  0.19999447
   0.39999238  0.19999813  0.40000865
   0.39999238  0.19999813  0.59999135
   0.39999627  0.20000414  0.80000553
   0.39999613  0.39999613 -0.00000000
   0.39999898  0.39999898  0.20000001
   0.39999670  0.39999670  0.39998240
   0.39999670  0.39999670  0.60001760
   0.39999898  0.39999898  0.79999999
   0.39998913  0.60000000 -0.00000000
   0.39999823  0.60000000  0.19999029
   0.39999093  0.60000000  0.40000505
   0.39999093  0.60000000  0.59999495
   0.39999823  0.60000000  0.80000971
   0.39999613  0.80000387 -0.00000000
   0.39999898  0.80000102  0.20000001
   0.39999670  0.80000330  0.39998240
   0.39999670  0.80000330  0.60001760
   0.39999898  0.80000102  0.79999999
   0.60000000  0.00001827 -0.00000000
   0.60000000 -0.00000182  0.19999381
   0.60000000  0.00001056  0.39999738
   0.60000000  0.00001056  0.60000262
   0.60000000 -0.00000182  0.80000619
   0.60000000  0.19998173 -0.00000000
   0.60000000  0.20000182  0.19999381
   0.60000000  0.19998944  0.39999738
   0.60000000  0.19998944  0.60000262
   0.60000000  0.20000182  0.80000619
   0.60000000  0.39998913 -0.00000000
   0.60000000  0.39999823  0.19999029
   0.60000000  0.39999093  0.40000505
   0.60000000  0.39999093  0.59999495
   0.60000000  0.39999823  0.80000971
   0.60000000  0.60000000 -0.00000000
   0.60000000  0.60000000  0.19999402
   0.60000000  0.60000000  0.39997444
   0.60000000  0.60000000  0.60002556
   0.60000000  0.60000000  0.80000598
   0.60000000  0.80001087 -0.00000000
   0.60000000  0.80000177  0.19999029
   0.60000000  0.80000907  0.40000505
   0.60000000  0.80000907  0.59999495
   0.60000000  0.80000177  0.80000971
   0.80001867  0.00004293 -0.00000000
   0.80000373 -0.00000414  0.19999447
   0.80000762  0.00000187  0.40000865
   0.80000762  0.00000187  0.59999135
   0.80000373 -0.00000414  0.80000553
   0.80001867  0.19995707 -0.00000000
   0.80000373  0.20000414  0.19999447
   0.80000762  0.19999813  0.40000865
   0.80000762  0.19999813  0.59999135
   0.80000373  0.20000414  0.80000553
   0.80000387  0.39999613 -0.00000000
   0.80000102  0.39999898  0.20000001
   0.80000330  0.39999670  0.39998240
   0.80000330  0.39999670  0.60001760
   0.80000102  0.39999898  0.79999999
   0.80001087  0.60000000 -0.00000000
   0.80000177  0.60000000  0.19999029
   0.80000907  0.60000000  0.40000505
   0.80000907  0.60000000  0.59999495
   0.80000177  0.60000000  0.80000971
   0.80000387  0.80000387 -0.00000000
   0.80000102  0.80000102  0.20000001
   0.80000330  0.80000330  0.39998240
   0.80000330  0.80000330  0.60001760
   0.80000102  0.80000102  0.79999999
   0.10000000  0.10000000  0.12099509
   0.10000000  0.10000000  0.30009360
   0.10000000  0.10000000  0.50000000
   0.10000000  0.10000000  0.69990640
   0.10000000  0.10000000  0.87900491
   0.10000000  0.30034812  0.10031359
   0.10000000  0.30000844  0.30000712
   0.10000000  0.30000051  0.50000000
   0.10000000  0.30000844  0.69999288
   0.10000000  0.30034812  0.89968641
   0.10000000  0.50000617  0.09999649
   0.10000000  0.50000303  0.29999270
   0.10000000  0.49999738  0.50000000
   0.10000000  0.50000303  0.70000730
   0.10000000  0.50000617  0.90000351
   0.10000000  0.69999383  0.09999649
   0.10000000  0.69999697  0.29999270
   0.10000000  0.70000262  0.50000000
   0.10000000  0.69999697  0.70000730
   0.10000000  0.69999383  0.90000351
   0.10000000  0.89965188  0.10031359
   0.10000000  0.89999156  0.30000712
   0.10000000  0.89999949  0.50000000
   0.10000000  0.89999156  0.69999288
   0.10000000  0.89965188  0.89968641
   0.30034812  0.10000000  0.10031359
   0.30000844  0.10000000  0.30000712
   0.30000051  0.10000000  0.50000000
   0.30000844  0.10000000  0.69999288
   0.30034812  0.10000000  0.89968641
   0.30000113  0.30000113  0.09996105
   0.30001045  0.30001045  0.30001603
   0.30000242  0.30000242  0.50000000
   0.30001045  0.30001045  0.69998397
   0.30000113  0.30000113  0.90003895
   0.30000135  0.49999143  0.09999647
   0.30000046  0.49999966  0.30001311
   0.30000184  0.50000347  0.50000000
   0.30000046  0.49999966  0.69998689
   0.30000135  0.49999143  0.90000353
   0.30000135  0.70000857  0.09999647
   0.30000046  0.70000034  0.30001311
   0.30000184  0.69999653  0.50000000
   0.30000046  0.70000034  0.69998689
   0.30000135  0.70000857  0.90000353
   0.30000113  0.89999887  0.09996105
   0.30001045  0.89998955  0.30001603
   0.30000242  0.89999758  0.50000000
   0.30001045  0.89998955  0.69998397
   0.30000113  0.89999887  0.90003895
   0.50000617  0.10000000  0.09999649
   0.50000303  0.10000000  0.29999270
   0.49999738  0.10000000  0.50000000
   0.50000303  0.10000000  0.70000730
   0.50000617  0.10000000  0.90000351
   0.49999143  0.30000135  0.09999647
   0.49999966  0.30000046  0.30001311
   0.50000347  0.30000184  0.50000000
   0.49999966  0.30000046  0.69998689
   0.49999143  0.30000135  0.90000353
   0.49999721  0.49999721  0.09998019
   0.50000113  0.50000113  0.30001845
   0.49999585  0.49999585  0.50000000
   0.50000113  0.50000113  0.69998155
   0.49999721  0.49999721  0.90001981
   0.49999721  0.70000279  0.09998019
   0.50000113  0.69999887  0.30001845
   0.49999585  0.70000415  0.50000000
   0.50000113  0.69999887  0.69998155
   0.49999721  0.70000279  0.90001981
   0.49999143  0.89999865  0.09999647
   0.49999966  0.89999954  0.30001311
   0.50000347  0.89999816  0.50000000
   0.49999966  0.89999954  0.69998689
   0.49999143  0.89999865  0.90000353
   0.69999383  0.10000000  0.09999649
   0.69999697  0.10000000  0.29999270
   0.70000262  0.10000000  0.50000000
   0.69999697  0.10000000  0.70000730
   0.69999383  0.10000000  0.90000351
   0.70000857  0.30000135  0.09999647
   0.70000034  0.30000046  0.30001311
   0.69999653  0.30000184  0.50000000
   0.70000034  0.30000046  0.69998689
   0.70000857  0.30000135  0.90000353
   0.70000279  0.49999721  0.09998019
   0.69999887  0.50000113  0.30001845
   0.70000415  0.49999585  0.50000000
   0.69999887  0.50000113  0.69998155
   0.70000279  0.49999721  0.90001981
   0.70000279  0.70000279  0.09998019
   0.69999887  0.69999887  0.30001845
   0.70000415  0.70000415  0.50000000
   0.69999887  0.69999887  0.69998155
   0.70000279  0.70000279  0.90001981
   0.70000857  0.89999865  0.09999647
   0.70000034  0.89999954  0.30001311
   0.69999653  0.89999816  0.50000000
   0.70000034  0.89999954  0.69998689
   0.70000857  0.89999865  0.90000353
   0.89965188  0.10000000  0.10031359
   0.89999156  0.10000000  0.30000712
   0.89999949  0.10000000  0.50000000
   0.89999156  0.10000000  0.69999288
   0.89965188  0.10000000  0.89968641
   0.89999887  0.30000113  0.09996105
   0.89998955  0.30001045  0.30001603
   0.89999758  0.30000242  0.50000000
   0.89998955  0.30001045  0.69998397
   0.89999887  0.30000113  0.90003895
   0.89999865  0.49999143  0.09999647
   0.89999954  0.49999966  0.30001311
   0.89999816  0.50000347  0.50000000
   0.89999954  0.49999966  0.69998689
   0.89999865  0.49999143  0.90000353
   0.89999865  0.70000857  0.09999647
   0.89999954  0.70000034  0.30001311
   0.89999816  0.69999653  0.50000000
   0.89999954  0.70000034  0.69998689
   0.89999865  0.70000857  0.90000353
   0.89999887  0.89999887  0.09996105
   0.89998955  0.89998955  0.30001603
   0.89999758  0.89999758  0.50000000
   0.89998955  0.89998955  0.69998397
   0.89999887  0.89999887  0.90003895
   0.10000000  0.10000000 -0.00000000
Direct configuration=     4
  -0.00077361 -0.00077361 -0.00000000
   0.00004607  0.00004607  0.19986239
   0.00000811  0.00000811  0.39995211
   0.00000811  0.00000811  0.60004789
   0.00004607  0.00004607  0.80013761
  -0.00077361  0.20077361 -0.00000000
   0.00004607  0.19995393  0.19986239
   0.00000811  0.19999189  0.39995211
   0.00000811  0.19999189  0.60004789
   0.00004607  0.19995393  0.80013761
   0.00004496  0.39998045 -0.00000000
  -0.00000434  0.39999610  0.19999420
   0.00000196  0.39999202  0.40000905
   0.00000196  0.39999202  0.59999095
  -0.00000434  0.39999610  0.80000580
   0.00001913  0.60000000 -0.00000000
  -0.00000191  0.60000000  0.19999351
   0.00001106  0.60000000  0.39999726
   0.00001106  0.60000000  0.60000274
  -0.00000191  0.60000000  0.80000649
   0.00004496  0.80001955 -0.00000000
  -0.00000434  0.80000390  0.19999420
   0.00000196  0.80000798  0.40000905
   0.00000196  0.80000798  0.59999095
  -0.00000434  0.80000390  0.80000580
   0.20077361 -0.00077361 -0.00000000
   0.19995393  0.00004607  0.19986239
   0.19999189  0.00000811  0.39995211