 254 254   0   0
  0.3019211E+02  0.1718057E-08  0.1718057E-08  0.3000000E-08  0.5000000E-15
  1.000000000000000E-004
  CAR 
 NiAl                                    
      5.50462267    -23.61813262  301      1.82245623      1.00000000
    -23.618  0.0000E+00  0.0000E+00
    -23.521  0.0000E+00  0.0000E+00
    -23.424  0.0000E+00  0.0000E+00
    -23.327  0.0000E+00  0.0000E+00
    -23.230  0.0000E+00  0.0000E+00
    -23.133  0.0000E+00  0.0000E+00
    -23.036  0.0000E+00  0.0000E+00
    -22.939  0.0000E+00  0.0000E+00
    -22.842  0.0000E+00  0.0000E+00
    -22.744  0.0000E+00  0.0000E+00
    -22.647  0.0000E+00  0.0000E+00
    -22.550  0.4645E-11  0.4509E-12
    -22.453  0.7214E-04  0.7003E-05
    -22.356  0.8290E+00  0.8048E-01
    -22.259  0.1649E+02  0.1682E+01
    -22.162  0.3278E+01  0.2000E+01
    -22.065  0.1869E-02  0.2000E+01
    -21.968  0.8885E-09  0.2000E+01
    -21.871  0.0000E+00  0.2000E+01
    -21.774  0.0000E+00  0.2000E+01
    -21.677  0.0000E+00  0.2000E+01
    -21.580  0.0000E+00  0.2000E+01
    -21.482  0.0000E+00  0.2000E+01
    -21.385  0.0000E+00  0.2000E+01
    -21.288  0.0000E+00  0.2000E+01
    -21.191  0.0000E+00  0.2000E+01
    -21.094  0.0000E+00  0.2000E+01
    -20.997  0.0000E+00  0.2000E+01
    -20.900  0.0000E+00  0.2000E+01
    -20.803  0.0000E+00  0.2000E+01
    -20.706  0.0000E+00  0.2000E+01
    -20.609  0.0000E+00  0.2000E+01
    -20.512  0.0000E+00  0.2000E+01
    -20.415  0.0000E+00  0.2000E+01
    -20.318  0.0000E+00  0.2000E+01
    -20.220  0.0000E+00  0.2000E+01
    -20.123  0.0000E+00  0.2000E+01
    -20.026  0.0000E+00  0.2000E+01
    -19.929  0.0000E+00  0.2000E+01
    -19.832  0.0000E+00  0.2000E+01
    -19.735  0.0000E+00  0.2000E+01
    -19.638  0.0000E+00  0.2000E+01
    -19.541  0.0000E+00  0.2000E+01
    -19.444  0.0000E+00  0.2000E+01
    -19.347  0.0000E+00  0.2000E+01
    -19.250  0.0000E+00  0.2000E+01
    -19.153  0.0000E+00  0.2000E+01
    -19.056  0.0000E+00  0.2000E+01
    -18.958  0.0000E+00  0.2000E+01
    -18.861  0.0000E+00  0.2000E+01
    -18.764  0.0000E+00  0.2000E+01
    -18.667  0.0000E+00  0.2000E+01
    -18.570  0.0000E+00  0.2000E+01
    -18.473  0.0000E+00  0.2000E+01
    -18.376  0.0000E+00  0.2000E+01
    -18.279  0.0000E+00  0.2000E+01
    -18.182  0.0000E+00  0.2000E+01
    -18.085  0.0000E+00  0.2000E+01
    -17.988  0.0000E+00  0.2000E+01
    -17.891  0.0000E+00  0.2000E+01
    -17.794  0.0000E+00  0.2000E+01
    -17.697  0.0000E+00  0.2000E+01
    -17.599  0.0000E+00  0.2000E+01
    -17.502  0.0000E+00  0.2000E+01
    -17.405  0.0000E+00  0.2000E+01
    -17.308  0.0000E+00  0.2000E+01
    -17.211  0.0000E+00  0.2000E+01
    -17.114  0.0000E+00  0.2000E+01
    -17.017  0.0000E+00  0.2000E+01
    -16.920  0.0000E+00  0.2000E+01
    -16.823  0.0000E+00  0.2000E+01
    -16.726  0.0000E+00  0.2000E+01
    -16.629  0.0000E+00  0.2000E+01
    -16.532  0.0000E+00  0.2000E+01
    -16.435  0.0000E+00  0.2000E+01
    -16.337  0.0000E+00  0.2000E+01
    -16.240  0.0000E+00  0.2000E+01
    -16.143  0.0000E+00  0.2000E+01
    -16.046  0.0000E+00  0.2000E+01
    -15.949  0.0000E+00  0.2000E+01
    -15.852  0.0000E+00  0.2000E+01
    -15.755  0.0000E+00  0.2000E+01
    -15.658  0.0000E+00  0.2000E+01
    -15.561  0.0000E+00  0.2000E+01
    -15.464  0.0000E+00  0.2000E+01
    -15.367  0.0000E+00  0.2000E+01
    -15.270  0.0000E+00  0.2000E+01
    -15.173  0.0000E+00  0.2000E+01
    -15.075  0.0000E+00  0.2000E+01
    -14.978  0.0000E+00  0.2000E+01
    -14.881  0.0000E+00  0.2000E+01
    -14.784  0.0000E+00  0.2000E+01
    -14.687  0.0000E+00  0.2000E+01
    -14.590  0.0000E+00  0.2000E+01
    -14.493  0.0000E+00  0.2000E+01
    -14.396  0.0000E+00  0.2000E+01
    -14.299  0.0000E+00  0.2000E+01
    -14.202  0.0000E+00  0.2000E+01
    -14.105  0.0000E+00  0.2000E+01
    -14.008  0.0000E+00  0.2000E+01
    -13.911  0.0000E+00  0.2000E+01
    -13.813  0.0000E+00  0.2000E+01
    -13.716  0.0000E+00  0.2000E+01
    -13.619  0.0000E+00  0.2000E+01
    -13.522  0.0000E+00  0.2000E+01
    -13.425  0.0000E+00  0.2000E+01
    -13.328  0.0000E+00  0.2000E+01
    -13.231  0.0000E+00  0.2000E+01
    -13.134  0.0000E+00  0.2000E+01
    -13.037  0.0000E+00  0.2000E+01
    -12.940  0.0000E+00  0.2000E+01
    -12.843  0.0000E+00  0.2000E+01
    -12.746  0.0000E+00  0.2000E+01
    -12.649  0.0000E+00  0.2000E+01
    -12.551  0.0000E+00  0.2000E+01
    -12.454  0.0000E+00  0.2000E+01
    -12.357  0.0000E+00  0.2000E+01
    -12.260  0.0000E+00  0.2000E+01
    -12.163  0.0000E+00  0.2000E+01
    -12.066  0.0000E+00  0.2000E+01
    -11.969  0.0000E+00  0.2000E+01
    -11.872  0.0000E+00  0.2000E+01
    -11.775  0.0000E+00  0.2000E+01
    -11.678  0.0000E+00  0.2000E+01
    -11.581  0.0000E+00  0.2000E+01
    -11.484  0.1916E-08  0.2000E+01
    -11.387  0.2956E-02  0.2000E+01
    -11.289  0.3894E+01  0.2378E+01
    -11.192  0.1606E+02  0.3938E+01
    -11.095  0.6410E+00  0.4000E+01
    -10.998  0.4140E-04  0.4000E+01
    -10.901  0.1950E-11  0.4000E+01
    -10.804  0.0000E+00  0.4000E+01
    -10.707  0.0000E+00  0.4000E+01
    -10.610  0.0000E+00  0.4000E+01
    -10.513  0.0000E+00  0.4000E+01
    -10.416  0.0000E+00  0.4000E+01
    -10.319  0.0000E+00  0.4000E+01
    -10.222  0.0000E+00  0.4000E+01
    -10.125  0.0000E+00  0.4000E+01
    -10.028  0.0000E+00  0.4000E+01
     -9.930  0.0000E+00  0.4000E+01
     -9.833  0.0000E+00  0.4000E+01
     -9.736  0.0000E+00  0.4000E+01
     -9.639  0.0000E+00  0.4000E+01
     -9.542  0.0000E+00  0.4000E+01
     -9.445  0.0000E+00  0.4000E+01
     -9.348  0.1799E-10  0.4000E+01
     -9.251  0.1009E-03  0.4000E+01
     -9.154  0.4423E+00  0.4043E+01
     -9.057  0.4293E+01  0.4460E+01
     -8.960  0.9300E+01  0.5362E+01
     -8.863  0.2155E+02  0.7454E+01
     -8.766  0.3276E+01  0.7772E+01
     -8.668  0.7566E+01  0.8507E+01
     -8.571  0.4407E+02  0.1278E+02
     -8.474  0.2142E+02  0.1486E+02
     -8.377  0.3176E+02  0.1795E+02
     -8.280  0.2725E+02  0.2059E+02
     -8.183  0.1780E+02  0.2232E+02
     -8.086  0.2441E+02  0.2469E+02
     -7.989  0.2732E+02  0.2734E+02
     -7.892  0.6228E+02  0.3339E+02
     -7.795  0.1818E+02  0.3515E+02
     -7.698  0.1383E+02  0.3649E+02
     -7.601  0.3847E+02  0.4023E+02
     -7.504  0.6833E+02  0.4686E+02
     -7.406  0.2572E+02  0.4936E+02
     -7.309  0.2022E+02  0.5132E+02
     -7.212  0.2576E+02  0.5382E+02
     -7.115  0.2717E+02  0.5646E+02
     -7.018  0.4234E+02  0.6057E+02
     -6.921  0.7412E+02  0.6777E+02
     -6.824  0.5125E+02  0.7274E+02
     -6.727  0.4066E+02  0.7669E+02
     -6.630  0.3888E+02  0.8046E+02
     -6.533  0.8325E+02  0.8854E+02
     -6.436  0.3851E+02  0.9228E+02
     -6.339  0.1699E+02  0.9393E+02
     -6.242  0.3864E+01  0.9431E+02
     -6.144  0.2488E+02  0.9672E+02
     -6.047  0.1090E+03  0.1073E+03
     -5.950  0.8083E+02  0.1151E+03
     -5.853  0.7603E+02  0.1225E+03
     -5.756  0.3023E+02  0.1255E+03
     -5.659  0.4638E+02  0.1300E+03
     -5.562  0.1110E+03  0.1407E+03
     -5.465  0.4075E+02  0.1447E+03
     -5.368  0.2701E+02  0.1473E+03
     -5.271  0.5372E+02  0.1525E+03
     -5.174  0.4032E+02  0.1565E+03
     -5.077  0.7079E+02  0.1633E+03
     -4.980  0.7810E+02  0.1709E+03
     -4.882  0.5941E+02  0.1767E+03
     -4.785  0.2235E+02  0.1788E+03
     -4.688  0.5527E+02  0.1842E+03
     -4.591  0.1188E+03  0.1957E+03
     -4.494  0.6351E+02  0.2019E+03
     -4.397  0.4603E+02  0.2064E+03
     -4.300  0.4469E+02  0.2107E+03
     -4.203  0.6688E+02  0.2172E+03
     -4.106  0.1198E+03  0.2288E+03
     -4.009  0.9164E+02  0.2377E+03
     -3.912  0.5899E+02  0.2435E+03
     -3.815  0.5038E+02  0.2483E+03
     -3.718  0.7159E+02  0.2553E+03
     -3.621  0.8979E+02  0.2640E+03
     -3.523  0.5994E+02  0.2698E+03
     -3.426  0.5183E+02  0.2749E+03
     -3.329  0.2211E+02  0.2770E+03
     -3.232  0.3322E+02  0.2802E+03
     -3.135  0.8900E+02  0.2889E+03
     -3.038  0.1002E+03  0.2986E+03
     -2.941  0.9281E+02  0.3076E+03
     -2.844  0.1080E+03  0.3181E+03
     -2.747  0.1472E+03  0.3324E+03
     -2.650  0.1424E+03  0.3462E+03
     -2.553  0.1775E+02  0.3479E+03
     -2.456  0.2066E+02  0.3499E+03
     -2.359  0.5986E+02  0.3557E+03
     -2.261  0.1014E+03  0.3656E+03
     -2.164  0.8971E+02  0.3743E+03
     -2.067  0.9860E+02  0.3839E+03
     -1.970  0.5817E+02  0.3895E+03
     -1.873  0.7006E+02  0.3963E+03
     -1.776  0.1136E+03  0.4073E+03
     -1.679  0.1252E+03  0.4195E+03
     -1.582  0.4173E+02  0.4235E+03
     -1.485  0.7786E+02  0.4311E+03
     -1.388  0.6907E+02  0.4378E+03
     -1.291  0.1494E+03  0.4523E+03
     -1.194  0.1111E+03  0.4631E+03
     -1.097  0.1168E+03  0.4744E+03
     -0.999  0.6826E+02  0.4811E+03
     -0.902  0.7633E+02  0.4885E+03
     -0.805  0.1325E+03  0.5013E+03
     -0.708  0.9202E+02  0.5103E+03
     -0.611  0.5557E+02  0.5157E+03
     -0.514  0.5511E+02  0.5210E+03
     -0.417  0.1311E+03  0.5337E+03
     -0.320  0.1610E+03  0.5494E+03
     -0.223  0.1092E+03  0.5600E+03
     -0.126  0.9292E+02  0.5690E+03
     -0.029  0.4717E+02  0.5736E+03
      0.068  0.6818E+02  0.5802E+03
      0.165  0.1073E+03  0.5906E+03
      0.263  0.8331E+02  0.5987E+03
      0.360  0.8664E+02  0.6071E+03
      0.457  0.8122E+02  0.6150E+03
      0.554  0.1356E+03  0.6281E+03
      0.651  0.7350E+02  0.6353E+03
      0.748  0.6843E+02  0.6419E+03
      0.845  0.4555E+02  0.6463E+03
      0.942  0.9488E+02  0.6556E+03
      1.039  0.2304E+03  0.6779E+03
      1.136  0.1390E+03  0.6914E+03
      1.233  0.9850E+02  0.7010E+03
      1.330  0.7316E+02  0.7081E+03
      1.427  0.7562E+02  0.7154E+03
      1.525  0.9368E+02  0.7245E+03
      1.622  0.1448E+03  0.7386E+03
      1.719  0.1738E+03  0.7554E+03
      1.816  0.1036E+03  0.7655E+03
      1.913  0.5107E+02  0.7705E+03
      2.010  0.1259E+03  0.7827E+03
      2.107  0.1153E+03  0.7939E+03
      2.204  0.8368E+02  0.8020E+03
      2.301  0.7816E+02  0.8096E+03
      2.398  0.7556E+02  0.8169E+03
      2.495  0.1038E+03  0.8270E+03
      2.592  0.9457E+02  0.8362E+03
      2.689  0.1363E+03  0.8494E+03
      2.786  0.7914E+02  0.8571E+03
      2.884  0.9013E+02  0.8658E+03
      2.981  0.2529E+03  0.8904E+03
      3.078  0.1886E+03  0.9087E+03
      3.175  0.8196E+02  0.9166E+03
      3.272  0.8322E+02  0.9247E+03
      3.369  0.1258E+03  0.9369E+03
      3.466  0.1307E+03  0.9496E+03
      3.563  0.1159E+03  0.9609E+03
      3.660  0.8213E+02  0.9688E+03
      3.757  0.1109E+03  0.9796E+03
      3.854  0.7437E+02  0.9868E+03
      3.951  0.1230E+03  0.9988E+03
      4.048  0.1647E+03  0.1015E+04
      4.146  0.1311E+03  0.1027E+04
      4.243  0.4579E+02  0.1032E+04
      4.340  0.7792E+00  0.1032E+04
      4.437  0.4140E-04  0.1032E+04
      4.534  0.2089E-11  0.1032E+04
      4.631  0.0000E+00  0.1032E+04
      4.728  0.0000E+00  0.1032E+04
      4.825  0.0000E+00  0.1032E+04
      4.922  0.0000E+00  0.1032E+04
      5.019  0.0000E+00  0.1032E+04
      5.116  0.0000E+00  0.1032E+04
      5.213  0.0000E+00  0.1032E+04
      5.310  0.0000E+00  0.1032E+04
      5.408  0.0000E+00  0.1032E+04
      5.505  0.0000E+00  0.1032E+04
