       N       E                     dE             d eps       ncg     rms          rms(c)
DAV:   1     0.215501823204E+04    0.21550E+04   -0.18465E+05  3168   0.734E+02
DAV:   2    -0.730441111914E+03   -0.28855E+04   -0.27221E+04  4200   0.193E+02
DAV:   3    -0.952902856416E+03   -0.22246E+03   -0.21160E+03  4740   0.412E+01
DAV:   4    -0.963590383273E+03   -0.10688E+02   -0.10476E+02  4716   0.886E+00
DAV:   5    -0.963929682084E+03   -0.33930E+00   -0.33688E+00  4356   0.167E+00    0.218E+01
DAV:   6    -0.970076758609E+03   -0.61471E+01   -0.18775E+02  4296   0.167E+01    0.184E+01
DAV:   7    -0.938336581918E+03    0.31740E+02   -0.13397E+02  3948   0.165E+01    0.115E+01
DAV:   8    -0.950794407102E+03   -0.12458E+02   -0.44867E+01  4404   0.120E+01    0.115E+01
DAV:   9    -0.933965768777E+03    0.16829E+02   -0.11228E+01  4116   0.948E+00    0.565E+00
DAV:  10    -0.932172355755E+03    0.17934E+01   -0.11349E+01  3756   0.354E+00    0.195E+00
DAV:  11    -0.932026393280E+03    0.14596E+00   -0.20655E+00  3936   0.180E+00    0.985E-01
DAV:  12    -0.932001355986E+03    0.25037E-01   -0.31849E-01  3972   0.737E-01    0.739E-01
DAV:  13    -0.931955159005E+03    0.46197E-01   -0.97527E-02  3768   0.453E-01    0.406E-01
DAV:  14    -0.931931120197E+03    0.24039E-01   -0.44605E-02  3636   0.252E-01    0.253E-01
DAV:  15    -0.931931468924E+03   -0.34873E-03   -0.34388E-02  3792   0.181E-01    0.156E-01
DAV:  16    -0.931936603803E+03   -0.51349E-02   -0.87187E-03  3684   0.110E-01    0.101E-01
DAV:  17    -0.931943191004E+03   -0.65872E-02   -0.41029E-03  3612   0.649E-02    0.747E-02
DAV:  18    -0.931947790311E+03   -0.45993E-02   -0.13437E-03  3480   0.500E-02    0.433E-02
DAV:  19    -0.931950570981E+03   -0.27807E-02   -0.76806E-04  3432   0.338E-02    0.384E-02
DAV:  20    -0.931951766943E+03   -0.11960E-02   -0.27511E-04  3468   0.220E-02    0.210E-02
DAV:  21    -0.931953190636E+03   -0.14237E-02   -0.27628E-04  3552   0.150E-02    0.176E-02
DAV:  22    -0.931954090520E+03   -0.89988E-03   -0.21752E-04  3420   0.113E-02    0.884E-03
DAV:  23    -0.931954926976E+03   -0.83646E-03   -0.50363E-05  3324   0.696E-03    0.810E-03
DAV:  24    -0.931955758793E+03   -0.83182E-03   -0.29416E-05  2880   0.516E-03    0.537E-03
DAV:  25    -0.931956677140E+03   -0.91835E-03   -0.64501E-05  3084   0.489E-03    0.317E-03
DAV:  26    -0.931957164773E+03   -0.48763E-03   -0.35540E-05  3024   0.346E-03    0.182E-03
DAV:  27    -0.931957318244E+03   -0.15347E-03   -0.70289E-06  2556   0.183E-03    0.134E-03
DAV:  28    -0.931957398955E+03   -0.80710E-04   -0.43659E-06  2532   0.135E-03    0.688E-04
DAV:  29    -0.931957420066E+03   -0.21112E-04   -0.85424E-07  2208   0.806E-04    0.596E-04
DAV:  30    -0.931957424181E+03   -0.41147E-05   -0.21607E-07  1836   0.516E-04
   1 F= -.93195742E+03 E0= -.93191302E+03  d E =-.888066E-01
