 vasp.5.4.4.18Apr17-6-g9f103f2a35 (build May 02 2017 15:33:50) complex          
  
 executed on Intel-16.0.3.210-OMP date 2018.08.09  00:21:04
 running on    6 total cores
 distrk:  each k-point on    6 cores,    1 groups
 distr:  one band on NCORES_PER_BAND=   1 cores,    6 groups


--------------------------------------------------------------------------------------------------------


 INCAR:
 POTCAR:    PAW Al_GW 19Mar2012                   
 POTCAR:    PAW_PBE N 08Apr2002                   

 ----------------------------------------------------------------------------- 
|                                                                             |
|           W    W    AA    RRRRR   N    N  II  N    N   GGGG   !!!           |
|           W    W   A  A   R    R  NN   N  II  NN   N  G    G  !!!           |
|           W    W  A    A  R    R  N N  N  II  N N  N  G       !!!           |
|           W WW W  AAAAAA  RRRRR   N  N N  II  N  N N  G  GGG   !            |
|           WW  WW  A    A  R   R   N   NN  II  N   NN  G    G                |
|           W    W  A    A  R    R  N    N  II  N    N   GGGG   !!!           |
|                                                                             |
|      For optimal performance we recommend to set                            |
|        NCORE= 4 - approx SQRT( number of cores)                             |
|      NCORE specifies how many cores store one orbital (NPAR=cpu/NCORE).     |
|      This setting can  greatly improve the performance of VASP for DFT.     |
|      The default,   NCORE=1            might be grossly inefficient         |
|      on modern multi-core architectures or massively parallel machines.     |
|      Do your own testing !!!!                                               |
|      Unfortunately you need to use the default for GW and RPA calculations. |
|      (for HF NCORE is supported but not extensively tested yet)             |
|                                                                             |
 ----------------------------------------------------------------------------- 

 POTCAR:    PAW Al_GW 19Mar2012                   
   VRHFIN =Al: s2p1                                                             
   LEXCH  = PE                                                                  
   EATOM  =    53.5387 eV,    3.9350 Ry                                         
                                                                                
   TITEL  = PAW Al_GW 19Mar2012                                                 
   LULTRA =        F    use ultrasoft PP ?                                      
   IUNSCR =        1    unscreen: 0-lin 1-nonlin 2-no                           
   RPACOR =    1.500    partial core radius                                     
   POMASS =   26.982; ZVAL   =    3.000    mass and valenz                      
   RCORE  =    2.000    outmost cutoff radius                                   
   RWIGS  =    2.000; RWIGS  =    1.058    wigner-seitz radius (au A)           
   ENMAX  =  240.300; ENMIN  =  180.225 eV                                      
   ICORE  =        3    local potential                                         
   LCOR   =        T    correct aug charges                                     
   LPAW   =        T    paw PP                                                  
   EAUG   =  482.059                                                            
   DEXC   =    0.000                                                            
   RMAX   =    2.051    core radius for proj-oper                               
   RAUG   =    1.300    factor for augmentation sphere                          
   RDEP   =    2.096    radius for radial grids                                 
   RDEPT  =    1.856    core radius for aug-charge                              
                                                                                
   Atomic configuration                                                         
    7 entries                                                                   
     n  l   j            E        occ.                                          
     1  0  0.50     -1511.1048   2.0000                                         
     2  0  0.50      -108.1629   2.0000                                         
     2  1  1.50       -69.6402   6.0000                                         
     3  0  0.50        -7.7528   2.0000                                         
     3  1  1.50        -2.7121   1.0000                                         
     3  2  2.50        -2.7212   0.0000                                         
     4  3  2.50        -2.7212   0.0000                                         
   Description                                                                  
     l       E           TYP  RCUT    TYP  RCUT                                 
     0     -7.7528455     23  1.900                                             
     0     68.0291300     23  1.900                                             
     1     -2.7120682     23  1.900                                             
     1     68.0291300     23  1.900                                             
     2     -1.3605826     23  1.900                                             
     2     81.6349560     23  1.900                                             
     3     74.8320430     23  2.000                                             
  local pseudopotential read in
  partial core-charges read in
  partial kinetic energy density read in
  kinetic energy density of atom read in
  atomic valenz-charges read in
  non local Contribution for L=           0  read in
    real space projection operators read in
  non local Contribution for L=           0  read in
    real space projection operators read in
  non local Contribution for L=           1  read in
    real space projection operators read in
  non local Contribution for L=           1  read in
    real space projection operators read in
  non local Contribution for L=           2  read in
    real space projection operators read in
  non local Contribution for L=           2  read in
    real space projection operators read in
    PAW grid and wavefunctions read in
 
   number of l-projection  operators is LMAX  =           6
   number of lm-projection operators is LMMAX =          18
 
 POTCAR:    PAW_PBE N 08Apr2002                   
   VRHFIN =N: s2p3                                                              
   LEXCH  = PE                                                                  
   EATOM  =   264.5486 eV,   19.4438 Ry                                         
                                                                                
   TITEL  = PAW_PBE N 08Apr2002                                                 
   LULTRA =        F    use ultrasoft PP ?                                      
   IUNSCR =        1    unscreen: 0-lin 1-nonlin 2-no                           
   RPACOR =    1.200    partial core radius                                     
   POMASS =   14.001; ZVAL   =    5.000    mass and valenz                      
   RCORE  =    1.500    outmost cutoff radius                                   
   RWIGS  =    1.400; RWIGS  =    0.741    wigner-seitz radius (au A)           
   ENMAX  =  400.000; ENMIN  =  300.000 eV                                      
   ICORE  =        2    local potential                                         
   LCOR   =        T    correct aug charges                                     
   LPAW   =        T    paw PP                                                  
   EAUG   =  627.112                                                            
   DEXC   =    0.000                                                            
   RMAX   =    1.529    core radius for proj-oper                               
   RAUG   =    1.300    factor for augmentation sphere                          
   RDEP   =    1.514    radius for radial grids                                 
   RDEPT  =    1.338    core radius for aug-charge                              
                                                                                
   Atomic configuration                                                         
    4 entries                                                                   
     n  l   j            E        occ.                                          
     1  0  0.50      -384.7179   2.0000                                         
     2  0  0.50       -18.5828   2.0000                                         
     2  1  0.50        -7.0898   3.0000                                         
     3  2  1.50        -6.8029   0.0000                                         
   Description                                                                  
     l       E           TYP  RCUT    TYP  RCUT                                 
     0    -18.5828119     23  1.200                                             
     0    -13.5018863     23  1.200                                             
     1     -7.0897853     23  1.500                                             
     1      9.5240782     23  1.500                                             
     2     -6.8029130      7  1.500                                             
  local pseudopotential read in
  partial core-charges read in
  partial kinetic energy density read in
  atomic valenz-charges read in
  non local Contribution for L=           0  read in
    real space projection operators read in
  non local Contribution for L=           0  read in
    real space projection operators read in
  non local Contribution for L=           1  read in
    real space projection operators read in
  non local Contribution for L=           1  read in
    real space projection operators read in
    PAW grid and wavefunctions read in
 
   number of l-projection  operators is LMAX  =           4
   number of lm-projection operators is LMMAX =           8
 
 Optimization of the real space projectors (new method)

 maximal supplied QI-value         = 18.90
 optimisation between [QCUT,QGAM] = [  8.69, 17.57] = [ 21.16, 86.49] Ry 
 Optimized for a Real-space Cutoff    1.59 Angstroem

   l    n(q)    QCUT    max X(q) W(low)/X(q) W(high)/X(q)  e(spline) 
   0      8     8.693    11.519    0.12E-03    0.31E-04    0.21E-06
   0      8     8.693     5.834    0.89E-04    0.32E-04    0.16E-06
   1      8     8.693    10.132    0.25E-03    0.39E-03    0.25E-06
   1      8     8.693     3.004    0.16E-03    0.27E-03    0.22E-06
   2      7     8.693     3.169    0.39E-03    0.93E-03    0.44E-06
   2      7     8.693     1.605    0.70E-04    0.91E-04    0.19E-06
 Optimization of the real space projectors (new method)

 maximal supplied QI-value         = 25.13
 optimisation between [QCUT,QGAM] = [  8.80, 17.59] = [ 21.67, 86.68] Ry 
 Optimized for a Real-space Cutoff    2.14 Angstroem

   l    n(q)    QCUT    max X(q) W(low)/X(q) W(high)/X(q)  e(spline) 
   0     11     8.797    79.467    0.70E-04    0.19E-04    0.19E-05
   0     11     8.797    66.151    0.68E-04    0.18E-04    0.19E-05
   1     11     8.797     6.738    0.26E-03    0.11E-02    0.73E-05
   1     11     8.797     5.013    0.25E-03    0.11E-02    0.72E-05
  PAW Al_GW 19Mar2012                   :
 energy of atom  1       EATOM=  -53.5387
 kinetic energy error for atom=    0.0011 (will be added to EATOM!!)
  PAW_PBE N 08Apr2002                   :
 energy of atom  2       EATOM= -264.5486
 kinetic energy error for atom=    0.6882 (will be added to EATOM!!)
 
 
 POSCAR: New structure                           
  positions in cartesian coordinates
  No initial velocities read in
 exchange correlation table for  LEXCH =        8
   RHO(1)=    0.500       N(1)  =     2000
   RHO(2)=  100.500       N(2)  =     4000
 


--------------------------------------------------------------------------------------------------------


 ion  position               nearest neighbor table
   1  0.444  0.444  0.079-
   2  0.444  0.778  0.079-
   3  0.444  0.111  0.079-
   4  0.778  0.444  0.079-
   5  0.778  0.778  0.079-
   6  0.778  0.111  0.079-
   7  0.111  0.444  0.079-
   8  0.111  0.778  0.079-
   9  0.111  0.111  0.079-
  10  0.556  0.556  0.157-
  11  0.556  0.889  0.157-
  12  0.556  0.222  0.157-
  13  0.889  0.556  0.157-
  14  0.889  0.889  0.157-
  15  0.889  0.222  0.157-
  16  0.222  0.556  0.157-
  17  0.222  0.889  0.157-
  18  0.222  0.222  0.157-
  19  0.667  0.667  0.234-
  20  0.667  0.000  0.234-
  21  0.667  0.333  0.234-
  22  0.000  0.667  0.234-
  23  0.000  0.000  0.234-
  24  0.000  0.333  0.234-
  25  0.333  0.667  0.234-
  26  0.333  0.000  0.234-
  27  0.333  0.333  0.234-
  28  0.778  0.778  0.312-
  29  0.778  0.111  0.312-
  30  0.778  0.444  0.312-
  31  0.111  0.778  0.312-
  32  0.111  0.111  0.312-
  33  0.111  0.444  0.312-
  34  0.444  0.778  0.312-
  35  0.444  0.111  0.312-
  36  0.444  0.444  0.312-
  37  0.889  0.889  0.390-
  38  0.889  0.222  0.390-
  39  0.889  0.556  0.390-
  40  0.222  0.889  0.390-
  41  0.222  0.222  0.390-
  42  0.222  0.556  0.390-
  43  0.556  0.889  0.390-
  44  0.556  0.222  0.390-
  45  0.556  0.556  0.390-
  46  0.000  0.000  0.466-
  47  0.000  0.333  0.466-
  48  0.000  0.667  0.466-
  49  0.333  0.000  0.466-
  50  0.333  0.333  0.466-
  51  0.333  0.667  0.466-
  52  0.667  0.000  0.466-
  53  0.667  0.333  0.466-
  54  0.667  0.667  0.466-
  55  0.111  0.111  0.545-
  56  0.111  0.444  0.545-
  57  0.111  0.778  0.545-
  58  0.444  0.111  0.545-
  59  0.444  0.444  0.545- 254 1.71 253 1.71
  60  0.444  0.778  0.545-
  61  0.778  0.111  0.545-
  62  0.778  0.444  0.545-
  63  0.778  0.778  0.545-
  64  0.278  0.278  0.079-
  65  0.278  0.611  0.079-
  66  0.278  0.944  0.079-
  67  0.611  0.278  0.079-
  68  0.611  0.611  0.079-
  69  0.611  0.944  0.079-
  70  0.944  0.278  0.079-
  71  0.944  0.611  0.079-
  72  0.944  0.944  0.079-
  73  0.389  0.389  0.157-
  74  0.389  0.722  0.157-
  75  0.389  0.056  0.157-
  76  0.722  0.389  0.157-
  77  0.722  0.722  0.157-
  78  0.722  0.056  0.157-
  79  0.056  0.389  0.157-
  80  0.056  0.722  0.157-
  81  0.056  0.056  0.157-
  82  0.500  0.500  0.234-
  83  0.500  0.833  0.234-
  84  0.500  0.167  0.234-
  85  0.833  0.500  0.234-
  86  0.833  0.833  0.234-
  87  0.833  0.167  0.234-
  88  0.167  0.500  0.234-
  89  0.167  0.833  0.234-
  90  0.167  0.167  0.234-
  91  0.611  0.611  0.312-
  92  0.611  0.944  0.312-
  93  0.611  0.278  0.312-
  94  0.944  0.611  0.312-
  95  0.944  0.944  0.312-
  96  0.944  0.278  0.312-
  97  0.278  0.611  0.312-
  98  0.278  0.944  0.312-
  99  0.278  0.278  0.312-
 100  0.722  0.722  0.390-
 101  0.722  0.056  0.390-
 102  0.722  0.389  0.390-
 103  0.056  0.722  0.390-
 104  0.056  0.056  0.390-
 105  0.056  0.389  0.390-
 106  0.389  0.722  0.390-
 107  0.389  0.056  0.390-
 108  0.389  0.389  0.390-
 109  0.833  0.833  0.466-
 110  0.833  0.167  0.466-
 111  0.833  0.500  0.466-
 112  0.167  0.833  0.466-
 113  0.167  0.167  0.466-
 114  0.167  0.500  0.466-
 115  0.500  0.833  0.466-
 116  0.500  0.167  0.466-
 117  0.500  0.500  0.466-
 118  0.944  0.944  0.545-
 119  0.944  0.278  0.545-
 120  0.944  0.611  0.545-
 121  0.278  0.944  0.545-
 122  0.278  0.278  0.545-
 123  0.278  0.611  0.545- 253 1.98
 124  0.611  0.944  0.545-
 125  0.611  0.278  0.545-
 126  0.611  0.611  0.545-
 127  0.278  0.444  0.079-
 128  0.278  0.778  0.079-
 129  0.278  0.111  0.079-
 130  0.611  0.444  0.079-
 131  0.611  0.778  0.079-
 132  0.611  0.111  0.079-
 133  0.944  0.444  0.079-
 134  0.944  0.778  0.079-
 135  0.944  0.111  0.079-
 136  0.389  0.556  0.157-
 137  0.389  0.889  0.157-
 138  0.389  0.222  0.157-
 139  0.722  0.556  0.157-
 140  0.722  0.889  0.157-
 141  0.722  0.222  0.157-
 142  0.056  0.556  0.157-
 143  0.056  0.889  0.157-
 144  0.056  0.222  0.157-
 145  0.500  0.667  0.234-
 146  0.500  0.000  0.234-
 147  0.500  0.333  0.234-
 148  0.833  0.667  0.234-
 149  0.833  0.000  0.234-
 150  0.833  0.333  0.234-
 151  0.167  0.667  0.234-
 152  0.167  0.000  0.234-
 153  0.167  0.333  0.234-
 154  0.611  0.778  0.312-
 155  0.611  0.111  0.312-
 156  0.611  0.444  0.312-
 157  0.944  0.778  0.312-
 158  0.944  0.111  0.312-
 159  0.944  0.444  0.312-
 160  0.278  0.778  0.312-
 161  0.278  0.111  0.312-
 162  0.278  0.444  0.312-
 163  0.722  0.889  0.390-
 164  0.722  0.222  0.390-
 165  0.722  0.556  0.390-
 166  0.056  0.889  0.390-
 167  0.056  0.222  0.390-
 168  0.056  0.556  0.390-
 169  0.389  0.889  0.390-
 170  0.389  0.222  0.390-
 171  0.389  0.556  0.390-
 172  0.833  0.000  0.466-
 173  0.833  0.333  0.466-
 174  0.833  0.667  0.466-
 175  0.167  0.000  0.466-
 176  0.167  0.333  0.466-
 177  0.167  0.667  0.466-
 178  0.500  0.000  0.466-
 179  0.500  0.333  0.466-
 180  0.500  0.667  0.466-
 181  0.944  0.111  0.545-
 182  0.944  0.444  0.545-
 183  0.944  0.778  0.545-
 184  0.278  0.111  0.545-
 185  0.278  0.444  0.545- 254 1.71 253 1.71
 186  0.278  0.778  0.545-
 187  0.611  0.111  0.545-
 188  0.611  0.444  0.545-
 189  0.611  0.778  0.545-
 190  0.444  0.278  0.079-
 191  0.444  0.611  0.079-
 192  0.444  0.944  0.079-
 193  0.778  0.278  0.079-
 194  0.778  0.611  0.079-
 195  0.778  0.944  0.079-
 196  0.111  0.278  0.079-
 197  0.111  0.611  0.079-
 198  0.111  0.944  0.079-
 199  0.556  0.389  0.157-
 200  0.556  0.722  0.157-
 201  0.556  0.056  0.157-
 202  0.889  0.389  0.157-
 203  0.889  0.722  0.157-
 204  0.889  0.056  0.157-
 205  0.222  0.389  0.157-
 206  0.222  0.722  0.157-
 207  0.222  0.056  0.157-
 208  0.667  0.500  0.234-
 209  0.667  0.833  0.234-
 210  0.667  0.167  0.234-
 211  1.000  0.500  0.234-
 212  1.000  0.833  0.234-
 213  1.000  0.167  0.234-
 214  0.333  0.500  0.234-
 215  0.333  0.833  0.234-
 216  0.333  0.167  0.234-
 217  0.778  0.611  0.312-
 218  0.778  0.944  0.312-
 219  0.778  0.278  0.312-
 220  0.111  0.611  0.312-
 221  0.111  0.944  0.312-
 222  0.111  0.278  0.312-
 223  0.444  0.611  0.312-
 224  0.444  0.944  0.312-
 225  0.444  0.278  0.312-
 226  0.889  0.722  0.390-
 227  0.889  0.056  0.390-
 228  0.889  0.389  0.390-
 229  0.222  0.722  0.390-
 230  0.222  0.056  0.390-
 231  0.222  0.389  0.390-
 232  0.556  0.722  0.390-
 233  0.556  0.056  0.390-
 234  0.556  0.389  0.390-
 235  1.000  0.833  0.466-
 236  1.000  0.167  0.466-
 237  1.000  0.500  0.466-
 238  0.333  0.833  0.466-
 239  0.333  0.167  0.466-
 240  0.333  0.500  0.466-
 241  0.667  0.833  0.466-
 242  0.667  0.167  0.466-
 243  0.667  0.500  0.466-
 244  0.111  0.944  0.545-
 245  0.111  0.278  0.545-
 246  0.111  0.611  0.545-
 247  0.444  0.944  0.545-
 248  0.444  0.278  0.545- 254 1.98
 249  0.444  0.611  0.545-
 250  0.778  0.944  0.545-
 251  0.778  0.278  0.545-
 252  0.778  0.611  0.545-
 253  0.340  0.487  0.568- 254 1.25 185 1.71  59 1.71 123 1.98
 254  0.382  0.402  0.568- 253 1.25 185 1.71  59 1.71 248 1.98
 
  LATTYP: Found a hexagonal cell.
 ALAT       =    17.1805734625
 C/A-ratio  =     1.7461582447
  
  Lattice vectors:
  
 A1 = (   0.0000000000,  -8.5902867312,  14.8788130701)
 A2 = (   0.0000000000,  17.1805734625,   0.0000000000)
 A3 = ( -30.0000000000,   0.0000000000,   0.0000000000)


Analysis of symmetry for initial positions (statically):
=====================================================================
 Subroutine PRICEL returns:
 Original cell was already a primitive cell.
 

 Routine SETGRP: Setting up the symmetry group for a 
 hexagonal supercell.


 Subroutine GETGRP returns: Found  2 space group operations
 (whereof  1 operations were pure point group operations)
 out of a pool of 24 trial point group operations.


The static configuration has the point symmetry C_1 .
 The point group associated with its full space group is C_1h.


Analysis of symmetry for dynamics (positions and initial velocities):
=====================================================================
 Subroutine PRICEL returns:
 Original cell was already a primitive cell.
 

 Routine SETGRP: Setting up the symmetry group for a 
 hexagonal supercell.


 Subroutine GETGRP returns: Found  2 space group operations
 (whereof  1 operations were pure point group operations)
 out of a pool of 24 trial point group operations.


The dynamic configuration has the point symmetry C_1 .
 The point group associated with its full space group is C_1h.


 Subroutine INISYM returns: Found  2 space group operations
 (whereof  1 operations are pure point group operations),
 and found     1 'primitive' translations

 
 
 KPOINTS: Automatic generation                    

Automatic generation of k-mesh.
Space group operators:
 irot       det(A)        alpha          n_x          n_y          n_z        tau_x        tau_y        tau_z
    1     1.000000     0.000000     1.000000     0.000000     0.000000     0.000000     0.000000     0.000000
    2    -1.000000   180.000000     0.000000     1.000000     0.000000    -0.833333     0.000000     0.000000
 
 Subroutine IBZKPT returns following result:
 ===========================================
 
 Found      3 irreducible k-points:
 
 Following reciprocal coordinates:
            Coordinates               Weight
  0.000000  0.000000  0.000000      1.000000
  0.500000  0.000000  0.000000      2.000000
  0.000000  0.500000  0.000000      1.000000
 
 Following cartesian coordinates:
            Coordinates               Weight
  0.000000  0.000000  0.000000      1.000000
  0.000000 -0.029103  0.016802      2.000000
  0.000000  0.000000 -0.033605      1.000000
 


--------------------------------------------------------------------------------------------------------




 Dimension of arrays:
   k-points           NKPTS =      3   k-points in BZ     NKDIM =      3   number of bands    NBANDS=    516
   number of dos      NEDOS =    301   number of ions     NIONS =    254
   non local maximal  LDIM  =      6   non local SUM 2l+1 LMDIM =     18
   total plane-waves  NPLWV = 819200
   max r-space proj   IRMAX =   4449   max aug-charges    IRDMAX=   4357
   dimension x,y,z NGX =    80 NGY =   80 NGZ =  128
   dimension x,y,z NGXF=   160 NGYF=  160 NGZF=  256
   support grid    NGXF=   160 NGYF=  160 NGZF=  256
   ions per type =             252   2
   NGX,Y,Z   is equivalent  to a cutoff of   7.74,  7.74,  7.09 a.u.
   NGXF,Y,Z  is equivalent  to a cutoff of  15.48, 15.48, 14.19 a.u.

 SYSTEM =  NiAl                                    
 POSCAR =  New structure                           

 Startparameter for this run:
   NWRITE =      2    write-flag & timer
   PREC   = normal    normal or accurate (medium, high low for compatibility)
   ISTART =      0    job   : 0-new  1-cont  2-samecut
   ICHARG =      2    charge: 1-file 2-atom 10-const
   ISPIN  =      1    spin polarized calculation?
   LNONCOLLINEAR =      F non collinear calculations
   LSORBIT =      F    spin-orbit coupling
   INIWAV =      1    electr: 0-lowe 1-rand  2-diag
   LASPH  =      F    aspherical Exc in radial PAW
   METAGGA=      F    non-selfconsistent MetaGGA calc.

 Electronic Relaxation 1
   ENCUT  =  300.0 eV  22.05 Ry    4.70 a.u.  24.26 24.26 42.37*2*pi/ulx,y,z
   ENINI  =  300.0     initial cutoff
   ENAUG  =  627.1 eV  augmentation charge cutoff
   NELM   =     60;   NELMIN=  6; NELMDL= -5     # of ELM steps 
   EDIFF  = 0.5E-05   stopping-criterion for ELM
   LREAL  =      T    real-space projection
   NLSPLINE    = F    spline interpolate recip. space projectors
   LCOMPAT=      F    compatible to vasp.4.4
   GGA_COMPAT  = T    GGA compatible to vasp.4.4-vasp.4.6
   LMAXPAW     = -100 max onsite density
   LMAXMIX     =    2 max onsite mixed and CHGCAR
   VOSKOWN=      0    Vosko Wilk Nusair interpolation
   ROPT   =   -0.00050  -0.00050
 Ionic relaxation
   EDIFFG = 0.5E-04   stopping-criterion for IOM
   NSW    =      0    number of steps for IOM
   NBLOCK =      1;   KBLOCK =      1    inner block; outer block 
   IBRION =     -1    ionic relax: 0-MD 1-quasi-New 2-CG
   NFREE  =      0    steps in history (QN), initial steepest desc. (CG)
   ISIF   =      0    stress and relaxation
   IWAVPR =     10    prediction:  0-non 1-charg 2-wave 3-comb
   ISYM   =      2    0-nonsym 1-usesym 2-fastsym
   LCORR  =      T    Harris-Foulkes like correction to forces

   POTIM  = 0.5000    time-step for ionic-motion
   TEIN   =    0.0    initial temperature
   TEBEG  =    0.0;   TEEND  =   0.0 temperature during run
   SMASS  =  -3.00    Nose mass-parameter (am)
   estimated Nose-frequenzy (Omega)   =  0.10E-29 period in steps =****** mass=  -0.675E-26a.u.
   SCALEE = 1.0000    scale energy and forces
   NPACO  =    256;   APACO  = 16.0  distance and # of slots for P.C.
   PSTRESS=    0.0 pullay stress

  Mass of Ions in am
   POMASS =  26.98 14.00
  Ionic Valenz
   ZVAL   =   3.00  5.00
  Atomic Wigner-Seitz radii
   RWIGS  =  -1.00 -1.00
  virtual crystal weights 
   VCA    =   1.00  1.00
   NELECT =     766.0000    total number of electrons
   NUPDOWN=      -1.0000    fix difference up-down

 DOS related values:
   EMIN   =  10.00;   EMAX   =-10.00  energy-range for DOS
   EFERMI =   0.00
   ISMEAR =     0;   SIGMA  =   0.05  broadening in eV -4-tet -1-fermi 0-gaus

 Electronic relaxation 2 (details)
   IALGO  =     38    algorithm
   LDIAG  =      T    sub-space diagonalisation (order eigenvalues)
   LSUBROT=      F    optimize rotation matrix (better conditioning)
   TURBO    =      0    0=normal 1=particle mesh
   IRESTART =      0    0=no restart 2=restart with 2 vectors
   NREBOOT  =      0    no. of reboots
   NMIN     =      0    reboot dimension
   EREF     =   0.00    reference energy to select bands
   IMIX   =      4    mixing-type and parameters
     AMIX     =   0.40;   BMIX     =  1.00
     AMIX_MAG =   1.60;   BMIX_MAG =  1.00
     AMIN     =   0.10
     WC   =   100.;   INIMIX=   1;  MIXPRE=   1;  MAXMIX= -45

 Intra band minimization:
   WEIMIN = 0.0000     energy-eigenvalue tresh-hold
   EBREAK =  0.24E-08  absolut break condition
   DEPER  =   0.30     relativ break condition  

   TIME   =   0.40     timestep for ELM

  volume/ion in A,a.u.               =      30.19       203.75
  Fermi-wavevector in a.u.,A,eV,Ry     =   0.759583  1.435404  7.850108  0.576967
  Thomas-Fermi vector in A             =   1.858410
 
 Write flags
   LWAVE        =      F    write WAVECAR
   LDOWNSAMPLE  =      F    k-point downsampling of WAVECAR
   LCHARG       =      F    write CHGCAR
   LVTOT        =      F    write LOCPOT, total local potential
   LVHAR        =      F    write LOCPOT, Hartree potential only
   LELF         =      F    write electronic localiz. function (ELF)
   LORBIT       =      0    0 simple, 1 ext, 2 COOP (PROOUT), +10 PAW based schemes


 Dipole corrections
   LMONO  =      F    monopole corrections only (constant potential shift)
   LDIPOL =      F    correct potential (dipole corrections)
   IDIPOL =      0    1-x, 2-y, 3-z, 4-all directions 
   EPSILON=  1.0000000 bulk dielectric constant

 Exchange correlation treatment:
   GGA     =    --    GGA type
   LEXCH   =     8    internal setting for exchange type
   VOSKOWN=      0    Vosko Wilk Nusair interpolation
   LHFCALC =     F    Hartree Fock is set to
   LHFONE  =     F    Hartree Fock one center treatment
   AEXX    =    0.0000 exact exchange contribution

 Linear response parameters
   LEPSILON=     F    determine dielectric tensor
   LRPA    =     F    only Hartree local field effects (RPA)
   LNABLA  =     F    use nabla operator in PAW spheres
   LVEL    =     F    velocity operator in full k-point grid
   LINTERFAST=   F  fast interpolation
   KINTER  =     0    interpolate to denser k-point grid
   CSHIFT  =0.1000    complex shift for real part using Kramers Kronig
   OMEGAMAX=  -1.0    maximum frequency
   DEG_THRESHOLD= 0.2000000E-02 threshold for treating states as degnerate
   RTIME   =   -0.100 relaxation time in fs
  (WPLASMAI=    0.000 imaginary part of plasma frequency in eV, 0.658/RTIME)
   DFIELD  = 0.0000000 0.0000000 0.0000000 field for delta impulse in time
 
 Orbital magnetization related:
   ORBITALMAG=     F  switch on orbital magnetization
   LCHIMAG   =     F  perturbation theory with respect to B field
   DQ        =  0.001000  dq finite difference perturbation B field
   LLRAUG    =     F  two centre corrections for induced B field



--------------------------------------------------------------------------------------------------------


 Static calculation
 charge density and potential will be updated during run
 non-spin polarized calculation
 Variant of blocked Davidson
 Davidson routine will perform the subspace rotation
 perform sub-space diagonalisation
    after iterative eigenvector-optimisation
 modified Broyden-mixing scheme, WC =      100.0
 initial mixing is a Kerker type mixing with AMIX =  0.4000 and BMIX =      1.0000
 Hartree-type preconditioning will be used
 using additional bands          133
 real space projection scheme for non local part
 use partial core corrections
 calculate Harris-corrections to forces 
   (improved forces if not selfconsistent)
 use gradient corrections 
 use of overlap-Matrix (Vanderbilt PP)
 Gauss-broadening in eV      SIGMA  =   0.05


--------------------------------------------------------------------------------------------------------


  energy-cutoff  :      300.00
  volume of cell :     7668.80
      direct lattice vectors                 reciprocal lattice vectors
     0.000000000-17.180573462  0.000000000     0.000000000 -0.058205275  0.033604831
     0.000000000 -8.590286731-14.878813070     0.000000000  0.000000000 -0.067209662
    30.000000000  0.000000000  0.000000000     0.033333333  0.000000000  0.000000000

  length of vectors
    17.180573462 17.180573462 30.000000000     0.067209662  0.067209662  0.033333333


 
 k-points in units of 2pi/SCALE and weight: Automatic generation                    
   0.00000000  0.00000000  0.00000000       0.250
   0.00000000 -0.02910264  0.01680242       0.500
   0.00000000  0.00000000 -0.03360483       0.250
 
 k-points in reciprocal lattice and weights: Automatic generation                    
   0.00000000  0.00000000  0.00000000       0.250
   0.50000000  0.00000000  0.00000000       0.500
   0.00000000  0.50000000  0.00000000       0.250
 
 position of ions in fractional coordinates (direct lattice) 
   0.44444456  0.44444473  0.07873467
   0.44444419  0.77777777  0.07873467
   0.44444468  0.11111101  0.07873467
   0.77777744  0.44444473  0.07873467
   0.77777765  0.77777777  0.07873467
   0.77777756  0.11111101  0.07873467
   0.11111110  0.44444473  0.07873467
   0.11111131  0.77777777  0.07873467
   0.11111122  0.11111101  0.07873467
   0.55555520  0.55555574  0.15702600
   0.55555541  0.88888878  0.15702600
   0.55555591  0.22222203  0.15702600
   0.88888866  0.55555574  0.15702600
   0.88888887  0.88888878  0.15702600
   0.88888878  0.22222203  0.15702600
   0.22222232  0.55555574  0.15702600
   0.22222253  0.88888878  0.15702600
   0.22222245  0.22222203  0.15702600
   0.66666642  0.66666675  0.23375733
   0.66666692  0.00000000  0.23375733
   0.66666655  0.33333304  0.23375733
   0.00000008  0.66666675  0.23375733
   0.00000000  0.00000000  0.23375733
   0.00000021  0.33333304  0.23375733
   0.33333354  0.66666675  0.23375733
   0.33333346  0.00000000  0.23375733
   0.33333367  0.33333304  0.23375733
   0.77777765  0.77777777  0.31173067
   0.77777756  0.11111101  0.31173067
   0.77777744  0.44444473  0.31173067
   0.11111131  0.77777777  0.31173067
   0.11111122  0.11111101  0.31173067
   0.11111110  0.44444473  0.31173067
   0.44444419  0.77777777  0.31173067
   0.44444468  0.11111101  0.31173067
   0.44444456  0.44444473  0.31173067
   0.88888887  0.88888878  0.38970400
   0.88888878  0.22222203  0.38970400
   0.88888866  0.55555574  0.38970400
   0.22222253  0.88888878  0.38970400
   0.22222245  0.22222203  0.38970400
   0.22222232  0.55555574  0.38970400
   0.55555541  0.88888878  0.38970400
   0.55555591  0.22222203  0.38970400
   0.55555520  0.55555574  0.38970400
   0.00000000  0.00000000  0.46643533
   0.00000021  0.33333304  0.46643533
   0.00000008  0.66666675  0.46643533
   0.33333346  0.00000000  0.46643533
   0.33333367  0.33333304  0.46643533
   0.33333354  0.66666675  0.46643533
   0.66666692  0.00000000  0.46643533
   0.66666655  0.33333304  0.46643533
   0.66666642  0.66666675  0.46643533
   0.11111122  0.11111101  0.54472667
   0.11111110  0.44444473  0.54472667
   0.11111131  0.77777777  0.54472667
   0.44444468  0.11111101  0.54472667
   0.44444456  0.44444473  0.54472667
   0.44444419  0.77777777  0.54472667
   0.77777756  0.11111101  0.54472667
   0.77777744  0.44444473  0.54472667
   0.77777765  0.77777777  0.54472667
   0.27777777  0.27777753  0.07873467
   0.27777764  0.61111125  0.07873467
   0.27777785  0.94444429  0.07873467
   0.61111123  0.27777753  0.07873467
   0.61111110  0.61111125  0.07873467
   0.61111131  0.94444429  0.07873467
   0.94444469  0.27777753  0.07873467
   0.94444456  0.61111125  0.07873467
   0.94444477  0.94444429  0.07873467
   0.38888865  0.38888922  0.15702600
   0.38888886  0.72222226  0.15702600
   0.38888878  0.05555551  0.15702600
   0.72222211  0.38888922  0.15702600
   0.72222232  0.72222226  0.15702600
   0.72222224  0.05555551  0.15702600
   0.05555519  0.38888922  0.15702600
   0.05555540  0.72222226  0.15702600
   0.05555532  0.05555551  0.15702600
   0.49999988  0.50000023  0.23375733
   0.50000009  0.83333327  0.23375733
   0.50000000  0.16666652  0.23375733
   0.83333334  0.50000023  0.23375733
   0.83333355  0.83333327  0.23375733
   0.83333346  0.16666652  0.23375733
   0.16666642  0.50000023  0.23375733
   0.16666663  0.83333327  0.23375733
   0.16666654  0.16666652  0.23375733
   0.61111110  0.61111125  0.31173067
   0.61111131  0.94444429  0.31173067
   0.61111123  0.27777753  0.31173067
   0.94444456  0.61111125  0.31173067
   0.94444477  0.94444429  0.31173067
   0.94444469  0.27777753  0.31173067
   0.27777764  0.61111125  0.31173067
   0.27777785  0.94444429  0.31173067
   0.27777777  0.27777753  0.31173067
   0.72222232  0.72222226  0.38970400
   0.72222224  0.05555551  0.38970400
   0.72222211  0.38888922  0.38970400
   0.05555540  0.72222226  0.38970400
   0.05555532  0.05555551  0.38970400
   0.05555519  0.38888922  0.38970400
   0.38888886  0.72222226  0.38970400
   0.38888878  0.05555551  0.38970400
   0.38888865  0.38888922  0.38970400
   0.83333355  0.83333327  0.46643533
   0.83333346  0.16666652  0.46643533
   0.83333334  0.50000023  0.46643533
   0.16666663  0.83333327  0.46643533
   0.16666654  0.16666652  0.46643533
   0.16666642  0.50000023  0.46643533
   0.50000009  0.83333327  0.46643533
   0.50000000  0.16666652  0.46643533
   0.49999988  0.50000023  0.46643533
   0.94444477  0.94444429  0.54472667
   0.94444469  0.27777753  0.54472667
   0.94444456  0.61111125  0.54472667
   0.27777785  0.94444429  0.54472667
   0.27777777  0.27777753  0.54472667
   0.27777764  0.61111125  0.54472667
   0.61111131  0.94444429  0.54472667
   0.61111123  0.27777753  0.54472667
   0.61111110  0.61111125  0.54472667
   0.27777783  0.44444473  0.07873467
   0.27777804  0.77777777  0.07873467
   0.27777795  0.11111101  0.07873467
   0.61111071  0.44444473  0.07873467
   0.61111092  0.77777777  0.07873467
   0.61111141  0.11111101  0.07873467
   0.94444417  0.44444473  0.07873467
   0.94444438  0.77777777  0.07873467
   0.94444429  0.11111101  0.07873467
   0.38888905  0.55555574  0.15702600
   0.38888868  0.88888878  0.15702600
   0.38888918  0.22222203  0.15702600
   0.72222193  0.55555574  0.15702600
   0.72222214  0.88888878  0.15702600
   0.72222205  0.22222203  0.15702600
   0.05555559  0.55555574  0.15702600
   0.05555580  0.88888878  0.15702600
   0.05555572  0.22222203  0.15702600
   0.49999969  0.66666675  0.23375733
   0.50000019  0.00000000  0.23375733
   0.50000040  0.33333304  0.23375733
   0.83333315  0.66666675  0.23375733
   0.83333307  0.00000000  0.23375733
   0.83333328  0.33333304  0.23375733
   0.16666681  0.66666675  0.23375733
   0.16666673  0.00000000  0.23375733
   0.16666694  0.33333304  0.23375733
   0.61111092  0.77777777  0.31173067
   0.61111141  0.11111101  0.31173067
   0.61111071  0.44444473  0.31173067
   0.94444438  0.77777777  0.31173067
   0.94444429  0.11111101  0.31173067
   0.94444417  0.44444473  0.31173067
   0.27777804  0.77777777  0.31173067
   0.27777795  0.11111101  0.31173067
   0.27777783  0.44444473  0.31173067
   0.72222214  0.88888878  0.38970400
   0.72222205  0.22222203  0.38970400
   0.72222193  0.55555574  0.38970400
   0.05555580  0.88888878  0.38970400
   0.05555572  0.22222203  0.38970400
   0.05555559  0.55555574  0.38970400
   0.38888868  0.88888878  0.38970400
   0.38888918  0.22222203  0.38970400
   0.38888905  0.55555574  0.38970400
   0.83333307  0.00000000  0.46643533
   0.83333328  0.33333304  0.46643533
   0.83333315  0.66666675  0.46643533
   0.16666673  0.00000000  0.46643533
   0.16666694  0.33333304  0.46643533
   0.16666681  0.66666675  0.46643533
   0.50000019  0.00000000  0.46643533
   0.50000040  0.33333304  0.46643533
   0.49999969  0.66666675  0.46643533
   0.94444429  0.11111101  0.54472667
   0.94444417  0.44444473  0.54472667
   0.94444438  0.77777777  0.54472667
   0.27777795  0.11111101  0.54472667
   0.27777783  0.44444473  0.54472667
   0.27777804  0.77777777  0.54472667
   0.61111141  0.11111101  0.54472667
   0.61111071  0.44444473  0.54472667
   0.61111092  0.77777777  0.54472667
   0.44444450  0.27777753  0.07873467
   0.44444437  0.61111125  0.07873467
   0.44444458  0.94444429  0.07873467
   0.77777796  0.27777753  0.07873467
   0.77777783  0.61111125  0.07873467
   0.77777804  0.94444429  0.07873467
   0.11111104  0.27777753  0.07873467
   0.11111091  0.61111125  0.07873467
   0.11111112  0.94444429  0.07873467
   0.55555538  0.38888922  0.15702600
   0.55555559  0.72222226  0.15702600
   0.55555551  0.05555551  0.15702600
   0.88888884  0.38888922  0.15702600
   0.88888905  0.72222226  0.15702600
   0.88888897  0.05555551  0.15702600
   0.22222192  0.38888922  0.15702600
   0.22222213  0.72222226  0.15702600
   0.22222205  0.05555551  0.15702600
   0.66666661  0.50000023  0.23375733
   0.66666682  0.83333327  0.23375733
   0.66666673  0.16666652  0.23375733
   0.99999969  0.50000023  0.23375733
   0.99999990  0.83333327  0.23375733
   0.99999981  0.16666652  0.23375733
   0.33333315  0.50000023  0.23375733
   0.33333336  0.83333327  0.23375733
   0.33333327  0.16666652  0.23375733
   0.77777783  0.61111125  0.31173067
   0.77777804  0.94444429  0.31173067
   0.77777796  0.27777753  0.31173067
   0.11111091  0.61111125  0.31173067
   0.11111112  0.94444429  0.31173067
   0.11111104  0.27777753  0.31173067
   0.44444437  0.61111125  0.31173067
   0.44444458  0.94444429  0.31173067
   0.44444450  0.27777753  0.31173067
   0.88888905  0.72222226  0.38970400
   0.88888897  0.05555551  0.38970400
   0.88888884  0.38888922  0.38970400
   0.22222213  0.72222226  0.38970400
   0.22222205  0.05555551  0.38970400
   0.22222192  0.38888922  0.38970400
   0.55555559  0.72222226  0.38970400
   0.55555551  0.05555551  0.38970400
   0.55555538  0.38888922  0.38970400
   0.99999990  0.83333327  0.46643533
   0.99999981  0.16666652  0.46643533
   0.99999969  0.50000023  0.46643533
   0.33333336  0.83333327  0.46643533
   0.33333327  0.16666652  0.46643533
   0.33333315  0.50000023  0.46643533
   0.66666682  0.83333327  0.46643533
   0.66666673  0.16666652  0.46643533
   0.66666661  0.50000023  0.46643533
   0.11111112  0.94444429  0.54472667
   0.11111104  0.27777753  0.54472667
   0.11111091  0.61111125  0.54472667
   0.44444458  0.94444429  0.54472667
   0.44444450  0.27777753  0.54472667
   0.44444437  0.61111125  0.54472667
   0.77777804  0.94444429  0.54472667
   0.77777796  0.27777753  0.54472667
   0.77777783  0.61111125  0.54472667
   0.34003429  0.48659795  0.56800000
   0.38217494  0.40231704  0.56800000
 
 position of ions in cartesian coordinates  (Angst):
   2.36204000-11.45372000 -6.61281000
   2.36204000-14.31714000-11.57241000
   2.36204000 -8.59029000 -1.65320000
   2.36204000-17.18057000 -6.61281000
   2.36204000-20.04400000-11.57241000
   2.36204000-14.31714000 -1.65320000
   2.36204000 -5.72686000 -6.61281000
   2.36204000 -8.59029000-11.57241000
   2.36204000 -2.86343000 -1.65320000
   4.71078000-14.31714000 -8.26601000
   4.71078000-17.18057000-13.22561000
   4.71078000-11.45372000 -3.30640000
   4.71078000-20.04400000 -8.26601000
   4.71078000-22.90743000-13.22561000
   4.71078000-17.18057000 -3.30640000
   4.71078000 -8.59029000 -8.26601000
   4.71078000-11.45372000-13.22561000
   4.71078000 -5.72686000 -3.30640000
   7.01272000-17.18057000 -9.91921000
   7.01272000-11.45372000  0.00000000
   7.01272000-14.31714000 -4.95960000
   7.01272000 -5.72686000 -9.91921000
   7.01272000  0.00000000  0.00000000
   7.01272000 -2.86343000 -4.95960000
   7.01272000-11.45372000 -9.91921000
   7.01272000 -5.72686000  0.00000000
   7.01272000 -8.59029000 -4.95960000
   9.35192000-20.04400000-11.57241000
   9.35192000-14.31714000 -1.65320000
   9.35192000-17.18057000 -6.61281000
   9.35192000 -8.59029000-11.57241000
   9.35192000 -2.86343000 -1.65320000
   9.35192000 -5.72686000 -6.61281000
   9.35192000-14.31714000-11.57241000
   9.35192000 -8.59029000 -1.65320000
   9.35192000-11.45372000 -6.61281000
  11.69112000-22.90743000-13.22561000
  11.69112000-17.18057000 -3.30640000
  11.69112000-20.04400000 -8.26601000
  11.69112000-11.45372000-13.22561000
  11.69112000 -5.72686000 -3.30640000
  11.69112000 -8.59029000 -8.26601000
  11.69112000-17.18057000-13.22561000
  11.69112000-11.45372000 -3.30640000
  11.69112000-14.31714000 -8.26601000
  13.99306000  0.00000000  0.00000000
  13.99306000 -2.86343000 -4.95960000
  13.99306000 -5.72686000 -9.91921000
  13.99306000 -5.72686000  0.00000000
  13.99306000 -8.59029000 -4.95960000
  13.99306000-11.45372000 -9.91921000
  13.99306000-11.45372000  0.00000000
  13.99306000-14.31714000 -4.95960000
  13.99306000-17.18057000 -9.91921000
  16.34180000 -2.86343000 -1.65320000
  16.34180000 -5.72686000 -6.61281000
  16.34180000 -8.59029000-11.57241000
  16.34180000 -8.59029000 -1.65320000
  16.34180000-11.45372000 -6.61281000
  16.34180000-14.31714000-11.57241000
  16.34180000-14.31714000 -1.65320000
  16.34180000-17.18057000 -6.61281000
  16.34180000-20.04400000-11.57241000
   2.36204000 -7.15857000 -4.13300000
   2.36204000-10.02200000 -9.09261000
   2.36204000-12.88543000-14.05221000
   2.36204000-12.88543000 -4.13300000
   2.36204000-15.74886000 -9.09261000
   2.36204000-18.61229000-14.05221000
   2.36204000-18.61229000 -4.13300000
   2.36204000-21.47572000 -9.09261000
   2.36204000-24.33915000-14.05221000
   4.71078000-10.02200000 -5.78621000
   4.71078000-12.88543000-10.74581000
   4.71078000 -7.15857000 -0.82660000
   4.71078000-15.74886000 -5.78621000
   4.71078000-18.61229000-10.74581000
   4.71078000-12.88543000 -0.82660000
   4.71078000 -4.29514000 -5.78621000
   4.71078000 -7.15857000-10.74581000
   4.71078000 -1.43171000 -0.82660000
   7.01272000-12.88543000 -7.43941000
   7.01272000-15.74886000-12.39901000
   7.01272000-10.02200000 -2.47980000
   7.01272000-18.61229000 -7.43941000
   7.01272000-21.47572000-12.39901000
   7.01272000-15.74886000 -2.47980000
   7.01272000 -7.15857000 -7.43941000
   7.01272000-10.02200000-12.39901000
   7.01272000 -4.29514000 -2.47980000
   9.35192000-15.74886000 -9.09261000
   9.35192000-18.61229000-14.05221000
   9.35192000-12.88543000 -4.13300000
   9.35192000-21.47572000 -9.09261000
   9.35192000-24.33915000-14.05221000
   9.35192000-18.61229000 -4.13300000
   9.35192000-10.02200000 -9.09261000
   9.35192000-12.88543000-14.05221000
   9.35192000 -7.15857000 -4.13300000
  11.69112000-18.61229000-10.74581000
  11.69112000-12.88543000 -0.82660000
  11.69112000-15.74886000 -5.78621000
  11.69112000 -7.15857000-10.74581000
  11.69112000 -1.43171000 -0.82660000
  11.69112000 -4.29514000 -5.78621000
  11.69112000-12.88543000-10.74581000
  11.69112000 -7.15857000 -0.82660000
  11.69112000-10.02200000 -5.78621000
  13.99306000-21.47572000-12.39901000
  13.99306000-15.74886000 -2.47980000
  13.99306000-18.61229000 -7.43941000
  13.99306000-10.02200000-12.39901000
  13.99306000 -4.29514000 -2.47980000
  13.99306000 -7.15857000 -7.43941000
  13.99306000-15.74886000-12.39901000
  13.99306000-10.02200000 -2.47980000
  13.99306000-12.88543000 -7.43941000
  16.34180000-24.33915000-14.05221000
  16.34180000-18.61229000 -4.13300000
  16.34180000-21.47572000 -9.09261000
  16.34180000-12.88543000-14.05221000
  16.34180000 -7.15857000 -4.13300000
  16.34180000-10.02200000 -9.09261000
  16.34180000-18.61229000-14.05221000
  16.34180000-12.88543000 -4.13300000
  16.34180000-15.74886000 -9.09261000
   2.36204000 -8.59029000 -6.61281000
   2.36204000-11.45372000-11.57241000
   2.36204000 -5.72686000 -1.65320000
   2.36204000-14.31714000 -6.61281000
   2.36204000-17.18057000-11.57241000
   2.36204000-11.45372000 -1.65320000
   2.36204000-20.04400000 -6.61281000
   2.36204000-22.90743000-11.57241000
   2.36204000-17.18057000 -1.65320000
   4.71078000-11.45372000 -8.26601000
   4.71078000-14.31714000-13.22561000
   4.71078000 -8.59029000 -3.30640000
   4.71078000-17.18057000 -8.26601000
   4.71078000-20.04400000-13.22561000
   4.71078000-14.31714000 -3.30640000
   4.71078000 -5.72686000 -8.26601000
   4.71078000 -8.59029000-13.22561000
   4.71078000 -2.86343000 -3.30640000
   7.01272000-14.31714000 -9.91921000
   7.01272000 -8.59029000  0.00000000
   7.01272000-11.45372000 -4.95960000
   7.01272000-20.04400000 -9.91921000
   7.01272000-14.31714000  0.00000000
   7.01272000-17.18057000 -4.95960000
   7.01272000 -8.59029000 -9.91921000
   7.01272000 -2.86343000  0.00000000
   7.01272000 -5.72686000 -4.95960000
   9.35192000-17.18057000-11.57241000
   9.35192000-11.45372000 -1.65320000
   9.35192000-14.31714000 -6.61281000
   9.35192000-22.90743000-11.57241000
   9.35192000-17.18057000 -1.65320000
   9.35192000-20.04400000 -6.61281000
   9.35192000-11.45372000-11.57241000
   9.35192000 -5.72686000 -1.65320000
   9.35192000 -8.59029000 -6.61281000
  11.69112000-20.04400000-13.22561000
  11.69112000-14.31714000 -3.30640000
  11.69112000-17.18057000 -8.26601000
  11.69112000 -8.59029000-13.22561000
  11.69112000 -2.86343000 -3.30640000
  11.69112000 -5.72686000 -8.26601000
  11.69112000-14.31714000-13.22561000
  11.69112000 -8.59029000 -3.30640000
  11.69112000-11.45372000 -8.26601000
  13.99306000-14.31714000  0.00000000
  13.99306000-17.18057000 -4.95960000
  13.99306000-20.04400000 -9.91921000
  13.99306000 -2.86343000  0.00000000
  13.99306000 -5.72686000 -4.95960000
  13.99306000 -8.59029000 -9.91921000
  13.99306000 -8.59029000  0.00000000
  13.99306000-11.45372000 -4.95960000
  13.99306000-14.31714000 -9.91921000
  16.34180000-17.18057000 -1.65320000
  16.34180000-20.04400000 -6.61281000
  16.34180000-22.90743000-11.57241000
  16.34180000 -5.72686000 -1.65320000
  16.34180000 -8.59029000 -6.61281000
  16.34180000-11.45372000-11.57241000
  16.34180000-11.45372000 -1.65320000
  16.34180000-14.31714000 -6.61281000
  16.34180000-17.18057000-11.57241000
   2.36204000-10.02200000 -4.13300000
   2.36204000-12.88543000 -9.09261000
   2.36204000-15.74886000-14.05221000
   2.36204000-15.74886000 -4.13300000
   2.36204000-18.61229000 -9.09261000
   2.36204000-21.47572000-14.05221000
   2.36204000 -4.29514000 -4.13300000
   2.36204000 -7.15857000 -9.09261000
   2.36204000-10.02200000-14.05221000
   4.71078000-12.88543000 -5.78621000
   4.71078000-15.74886000-10.74581000
   4.71078000-10.02200000 -0.82660000
   4.71078000-18.61229000 -5.78621000
   4.71078000-21.47572000-10.74581000
   4.71078000-15.74886000 -0.82660000
   4.71078000 -7.15857000 -5.78621000
   4.71078000-10.02200000-10.74581000
   4.71078000 -4.29514000 -0.82660000
   7.01272000-15.74886000 -7.43941000
   7.01272000-18.61229000-12.39901000
   7.01272000-12.88543000 -2.47980000
   7.01272000-21.47571346 -7.43941000
   7.01272000-24.33914346-12.39901000
   7.01272000-18.61228346 -2.47980000
   7.01272000-10.02200000 -7.43941000
   7.01272000-12.88543000-12.39901000
   7.01272000 -7.15857000 -2.47980000
   9.35192000-18.61229000 -9.09261000
   9.35192000-21.47572000-14.05221000
   9.35192000-15.74886000 -4.13300000
   9.35192000 -7.15857000 -9.09261000
   9.35192000-10.02200000-14.05221000
   9.35192000 -4.29514000 -4.13300000
   9.35192000-12.88543000 -9.09261000
   9.35192000-15.74886000-14.05221000
   9.35192000-10.02200000 -4.13300000
  11.69112000-21.47572000-10.74581000
  11.69112000-15.74886000 -0.82660000
  11.69112000-18.61229000 -5.78621000
  11.69112000-10.02200000-10.74581000
  11.69112000 -4.29514000 -0.82660000
  11.69112000 -7.15857000 -5.78621000
  11.69112000-15.74886000-10.74581000
  11.69112000-10.02200000 -0.82660000
  11.69112000-12.88543000 -5.78621000
  13.99306000-24.33914346-12.39901000
  13.99306000-18.61228346 -2.47980000
  13.99306000-21.47571346 -7.43941000
  13.99306000-12.88543000-12.39901000
  13.99306000 -7.15857000 -2.47980000
  13.99306000-10.02200000 -7.43941000
  13.99306000-18.61229000-12.39901000
  13.99306000-12.88543000 -2.47980000
  13.99306000-15.74886000 -7.43941000
  16.34180000-10.02200000-14.05221000
  16.34180000 -4.29514000 -4.13300000
  16.34180000 -7.15857000 -9.09261000
  16.34180000-15.74886000-14.05221000
  16.34180000-10.02200000 -4.13300000
  16.34180000-12.88543000 -9.09261000
  16.34180000-21.47572000-14.05221000
  16.34180000-15.74886000 -4.13300000
  16.34180000-18.61229000 -9.09261000
  17.04000000-10.02200000 -7.24000000
  17.04000000-10.02200333 -5.98600000
 


--------------------------------------------------------------------------------------------------------


 k-point  1 :   0.0000 0.0000 0.0000  plane waves:   90499
 k-point  2 :   0.5000 0.0000 0.0000  plane waves:   90530
 k-point  3 :   0.0000 0.5000 0.0000  plane waves:   90530

 maximum and minimum number of plane-waves per node :     90530    90499

 maximum number of plane-waves:     90530
 maximum index in each direction: 
   IXMAX=   24   IYMAX=   24   IZMAX=   42
   IXMIN=  -24   IYMIN=  -24   IZMIN=  -42


 serial   3D FFT for wavefunctions
 parallel 3D FFT for charge:
    minimum data exchange during FFTs selected (reduces bandwidth)


 total amount of memory used by VASP MPI-rank0   652131. kBytes
=======================================================================

   base      :      30000. kBytes
   nonlr-proj:      89910. kBytes
   fftplans  :      40601. kBytes
   grid      :      95147. kBytes
   one-center:       3950. kBytes
   wavefun   :     392523. kBytes
 
     INWAV:  cpu time    0.0000: real time    0.0001
 Broyden mixing: mesh for mixing (old mesh)
   NGX = 49   NGY = 49   NGZ = 85
  (NGX  =160   NGY  =160   NGZ  =256)
  gives a total of 204085 points

 initial charge density was supplied:
 charge density of overlapping atoms calculated
 number of electron     766.0000000 magnetization 
 keeping initial charge density in first step


--------------------------------------------------------------------------------------------------------


 Maximum index for non-local projection operator         4273
 Maximum index for augmentation-charges          758 (set IRDMAX)


--------------------------------------------------------------------------------------------------------


 First call to EWALD:  gamma=   0.090
 Maximum number of real-space cells 3x 3x 2
 Maximum number of reciprocal cells 2x 2x 4

    FEWALD:  cpu time    0.0331: real time    0.0389


----------------------------------------- Iteration    1(   1)  ---------------------------------------


    POTLOK:  cpu time    0.8296: real time    0.8573
    SETDIJ:  cpu time    0.1043: real time    0.1044
     EDDAV:  cpu time   18.7831: real time   21.4475
       DOS:  cpu time    0.0149: real time    0.0149
    --------------------------------------------
      LOOP:  cpu time   19.7341: real time   22.4458

 eigenvalue-minimisations  :  3168
 total energy-change (2. order) : 0.2155018E+04  (-0.1846505E+05)
 number of electron     766.0000000 magnetization 
 augmentation part      766.0000000 magnetization 

 Free energy of the ion-electron system (eV)
  ---------------------------------------------------
  alpha Z        PSCENC =       505.22967617
  Ewald energy   TEWEN  =     89748.02187050
  -Hartree energ DENC   =   -103753.05754488
  -exchange      EXHF   =         0.00000000
  -V(xc)+E(xc)   XCENC  =     -6602.03766622
  PAW double counting   =     17092.30507181    -9042.14386232
  entropy T*S    EENTRO =        -0.07426339
  eigenvalues    EBANDS =       187.57297462
  atomic energy  EATOM  =     14019.20197576
  Solvation  Ediel_sol  =         0.00000000
  ---------------------------------------------------
  free energy    TOTEN  =      2155.01823204 eV

  energy without entropy =     2155.09249544  energy(sigma->0) =     2155.05536374


--------------------------------------------------------------------------------------------------------




----------------------------------------- Iteration    1(   2)  ---------------------------------------


     EDDAV:  cpu time   23.1583: real time   26.3162
       DOS:  cpu time    0.0117: real time    0.0119
    --------------------------------------------
      LOOP:  cpu time   23.1713: real time   26.3310

 eigenvalue-minimisations  :  4200
 total energy-change (2. order) :-0.2885459E+04  (-0.2722104E+04)
 number of electron     766.0000000 magnetization 
 augmentation part      766.0000000 magnetization 

 Free energy of the ion-electron system (eV)
  ---------------------------------------------------
  alpha Z        PSCENC =       505.22967617
  Ewald energy   TEWEN  =     89748.02187050
  -Hartree energ DENC   =   -103753.05754488
  -exchange      EXHF   =         0.00000000
  -V(xc)+E(xc)   XCENC  =     -6602.03766622
  PAW double counting   =     17092.30507181    -9042.14386232
  entropy T*S    EENTRO =        -0.11960961
  eigenvalues    EBANDS =     -2697.84102312
  atomic energy  EATOM  =     14019.20197576
  Solvation  Ediel_sol  =         0.00000000
  ---------------------------------------------------
  free energy    TOTEN  =      -730.44111191 eV

  energy without entropy =     -730.32150231  energy(sigma->0) =     -730.38130711


--------------------------------------------------------------------------------------------------------




----------------------------------------- Iteration    1(   3)  ---------------------------------------


     EDDAV:  cpu time   25.4644: real time   28.9132
       DOS:  cpu time    0.0012: real time    0.0012
    --------------------------------------------
      LOOP:  cpu time   25.4669: real time   28.9169

 eigenvalue-minimisations  :  4740
 total energy-change (2. order) :-0.2224617E+03  (-0.2115958E+03)
 number of electron     766.0000000 magnetization 
 augmentation part      766.0000000 magnetization 

 Free energy of the ion-electron system (eV)
  ---------------------------------------------------
  alpha Z        PSCENC =       505.22967617
  Ewald energy   TEWEN  =     89748.02187050
  -Hartree energ DENC   =   -103753.05754488
  -exchange      EXHF   =         0.00000000
  -V(xc)+E(xc)   XCENC  =     -6602.03766622
  PAW double counting   =     17092.30507181    -9042.14386232
  entropy T*S    EENTRO =        -0.20205026
  eigenvalues    EBANDS =     -2920.22032698
  atomic energy  EATOM  =     14019.20197576
  Solvation  Ediel_sol  =         0.00000000
  ---------------------------------------------------
  free energy    TOTEN  =      -952.90285642 eV

  energy without entropy =     -952.70080616  energy(sigma->0) =     -952.80183129


--------------------------------------------------------------------------------------------------------




----------------------------------------- Iteration    1(   4)  ---------------------------------------


     EDDAV:  cpu time   25.3424: real time   28.7395
       DOS:  cpu time    0.0012: real time    0.0012
    --------------------------------------------
      LOOP:  cpu time   25.3448: real time   28.7431

 eigenvalue-minimisations  :  4716
 total energy-change (2. order) :-0.1068753E+02  (-0.1047615E+02)
 number of electron     766.0000000 magnetization 
 augmentation part      766.0000000 magnetization 

 Free energy of the ion-electron system (eV)
  ---------------------------------------------------
  alpha Z        PSCENC =       505.22967617
  Ewald energy   TEWEN  =     89748.02187050
  -Hartree energ DENC   =   -103753.05754488
  -exchange      EXHF   =         0.00000000
  -V(xc)+E(xc)   XCENC  =     -6602.03766622
  PAW double counting   =     17092.30507181    -9042.14386232
  entropy T*S    EENTRO =        -0.21665252
  eigenvalues    EBANDS =     -2930.89325157
  atomic energy  EATOM  =     14019.20197576
  Solvation  Ediel_sol  =         0.00000000
  ---------------------------------------------------
  free energy    TOTEN  =      -963.59038327 eV

  energy without entropy =     -963.37373075  energy(sigma->0) =     -963.48205701


--------------------------------------------------------------------------------------------------------




----------------------------------------- Iteration    1(   5)  ---------------------------------------


     EDDAV:  cpu time   23.8226: real time   27.0835
       DOS:  cpu time    0.0130: real time    0.0132
    CHARGE:  cpu time    1.6676: real time    1.7194
    MIXING:  cpu time    0.0266: real time    0.0267
    --------------------------------------------
      LOOP:  cpu time   25.5312: real time   28.8452

 eigenvalue-minimisations  :  4356
 total energy-change (2. order) :-0.3392988E+00  (-0.3368782E+00)
 number of electron     765.9999970 magnetization 
 augmentation part       -9.5432241 magnetization 

 Broyden mixing:
  rms(total) = 0.21842E+01    rms(broyden)= 0.21817E+01
  rms(prec ) = 0.28434E+01
  weight for this iteration     100.00

 Free energy of the ion-electron system (eV)
  ---------------------------------------------------
  alpha Z        PSCENC =       505.22967617
  Ewald energy   TEWEN  =     89748.02187050
  -Hartree energ DENC   =   -103753.05754488
  -exchange      EXHF   =         0.00000000
  -V(xc)+E(xc)   XCENC  =     -6602.03766622
  PAW double counting   =     17092.30507181    -9042.14386232
  entropy T*S    EENTRO =        -0.21793026
  eigenvalues    EBANDS =     -2931.23127264
  atomic energy  EATOM  =     14019.20197576
  Solvation  Ediel_sol  =         0.00000000
  ---------------------------------------------------
  free energy    TOTEN  =      -963.92968208 eV

  energy without entropy =     -963.71175182  energy(sigma->0) =     -963.82071695


--------------------------------------------------------------------------------------------------------




----------------------------------------- Iteration    1(   6)  ---------------------------------------


    POTLOK:  cpu time    0.7942: real time    0.7943
    SETDIJ:  cpu time    0.1067: real time    0.1067
     EDDAV:  cpu time   23.6716: real time   26.8362
       DOS:  cpu time    0.0140: real time    0.0140
    CHARGE:  cpu time    1.6684: real time    1.7018
    MIXING:  cpu time    0.0289: real time    0.0292
    --------------------------------------------
      LOOP:  cpu time   26.2855: real time   29.4849

 eigenvalue-minimisations  :  4296
 total energy-change (2. order) :-0.6147077E+01  (-0.1877451E+02)
 number of electron     765.9999988 magnetization 
 augmentation part       -9.7068485 magnetization 

 Broyden mixing:
  rms(total) = 0.18382E+01    rms(broyden)= 0.18376E+01
  rms(prec ) = 0.39831E+01
  weight for this iteration     100.00

 eigenvalues of (default mixing * dielectric matrix)
  average eigenvalue GAMMA=   0.8308
  0.8308

 Free energy of the ion-electron system (eV)
  ---------------------------------------------------
  alpha Z        PSCENC =       505.22967617
  Ewald energy   TEWEN  =     89748.02187050
  -Hartree energ DENC   =   -104690.76003678
  -exchange      EXHF   =         0.00000000
  -V(xc)+E(xc)   XCENC  =     -6590.08683347
  PAW double counting   =     19188.53652559   -11140.14838727
  entropy T*S    EENTRO =        -0.11705375
  eigenvalues    EBANDS =     -2009.95449536
  atomic energy  EATOM  =     14019.20197576
  Solvation  Ediel_sol  =         0.00000000
  ---------------------------------------------------
  free energy    TOTEN  =      -970.07675861 eV

  energy without entropy =     -969.95970486  energy(sigma->0) =     -970.01823174


--------------------------------------------------------------------------------------------------------




----------------------------------------- Iteration    1(   7)  ---------------------------------------


    POTLOK:  cpu time    0.8086: real time    0.8086
    SETDIJ:  cpu time    0.1064: real time    0.1064
     EDDAV:  cpu time   22.1592: real time   25.1267
       DOS:  cpu time    0.0025: real time    0.0025
    CHARGE:  cpu time    1.6472: real time    1.6800
    MIXING:  cpu time    0.0288: real time    0.0289
    --------------------------------------------
      LOOP:  cpu time   24.7544: real time   27.7559

 eigenvalue-minimisations  :  3948
 total energy-change (2. order) : 0.3174018E+02  (-0.1339726E+02)
 number of electron     765.9999991 magnetization 
 augmentation part       -9.8392558 magnetization 

 Broyden mixing:
  rms(total) = 0.11467E+01    rms(broyden)= 0.11462E+01
  rms(prec ) = 0.19700E+01
  weight for this iteration     100.00

 eigenvalues of (default mixing * dielectric matrix)
  average eigenvalue GAMMA=   0.7202
  1.1244  0.3161

 Free energy of the ion-electron system (eV)
  ---------------------------------------------------
  alpha Z        PSCENC =       505.22967617
  Ewald energy   TEWEN  =     89748.02187050
  -Hartree energ DENC   =   -104153.82171932
  -exchange      EXHF   =         0.00000000
  -V(xc)+E(xc)   XCENC  =     -6587.79019973
  PAW double counting   =     19652.64403948   -11604.44157662
  entropy T*S    EENTRO =        -0.06492629
  eigenvalues    EBANDS =     -2517.31572188
  atomic energy  EATOM  =     14019.20197576
  Solvation  Ediel_sol  =         0.00000000
  ---------------------------------------------------
  free energy    TOTEN  =      -938.33658192 eV

  energy without entropy =     -938.27165563  energy(sigma->0) =     -938.30411877


--------------------------------------------------------------------------------------------------------




----------------------------------------- Iteration    1(   8)  ---------------------------------------


    POTLOK:  cpu time    0.8023: real time    0.8024
    SETDIJ:  cpu time    0.1063: real time    0.1063
     EDDAV:  cpu time   24.0623: real time   27.3276
       DOS:  cpu time    0.0020: real time    0.0020
    CHARGE:  cpu time    1.6547: real time    1.6879
    MIXING:  cpu time    0.0301: real time    0.0301
    --------------------------------------------
      LOOP:  cpu time   26.6594: real time   29.9592

 eigenvalue-minimisations  :  4404
 total energy-change (2. order) :-0.1245783E+02  (-0.4486724E+01)
 number of electron     765.9999995 magnetization 
 augmentation part       -9.8521514 magnetization 

 Broyden mixing:
  rms(total) = 0.11503E+01    rms(broyden)= 0.11503E+01
  rms(prec ) = 0.34685E+01
  weight for this iteration     100.00

 eigenvalues of (default mixing * dielectric matrix)
  average eigenvalue GAMMA=   0.7153
  1.3470  0.5460  0.2530

 Free energy of the ion-electron system (eV)
  ---------------------------------------------------
  alpha Z        PSCENC =       505.22967617
  Ewald energy   TEWEN  =     89748.02187050
  -Hartree energ DENC   =   -104261.19213975
  -exchange      EXHF   =         0.00000000
  -V(xc)+E(xc)   XCENC  =     -6583.55748700
  PAW double counting   =     20464.15777684   -12416.39842342
  entropy T*S    EENTRO =        -0.11329011
  eigenvalues    EBANDS =     -2426.14436610
  atomic energy  EATOM  =     14019.20197576
  Solvation  Ediel_sol  =         0.00000000
  ---------------------------------------------------
  free energy    TOTEN  =      -950.79440710 eV

  energy without entropy =     -950.68111699  energy(sigma->0) =     -950.73776205


--------------------------------------------------------------------------------------------------------




----------------------------------------- Iteration    1(   9)  ---------------------------------------


    POTLOK:  cpu time    0.8059: real time    0.8060
    SETDIJ:  cpu time    0.1061: real time    0.1061
     EDDAV:  cpu time   22.8986: real time   25.9954
       DOS:  cpu time    0.0016: real time    0.0016
    CHARGE:  cpu time    1.6484: real time    1.6816
    MIXING:  cpu time    0.0307: real time    0.0307
    --------------------------------------------
      LOOP:  cpu time   25.4929: real time   28.6246

 eigenvalue-minimisations  :  4116
 total energy-change (2. order) : 0.1682864E+02  (-0.1122764E+01)
 number of electron     765.9999981 magnetization 
 augmentation part       -9.8778986 magnetization 

 Broyden mixing:
  rms(total) = 0.56529E+00    rms(broyden)= 0.56471E+00
  rms(prec ) = 0.87538E+00
  weight for this iteration     100.00

 eigenvalues of (default mixing * dielectric matrix)
  average eigenvalue GAMMA=   0.8976
  2.3865  0.7597  0.3007  0.1435

 Free energy of the ion-electron system (eV)
  ---------------------------------------------------
  alpha Z        PSCENC =       505.22967617
  Ewald energy   TEWEN  =     89748.02187050
  -Hartree energ DENC   =   -104363.17350637
  -exchange      EXHF   =         0.00000000
  -V(xc)+E(xc)   XCENC  =     -6580.50608671
  PAW double counting   =     21032.67043744   -12985.24647413
  entropy T*S    EENTRO =        -0.09612275
  eigenvalues    EBANDS =     -2310.06753869
  atomic energy  EATOM  =     14019.20197576
  Solvation  Ediel_sol  =         0.00000000
  ---------------------------------------------------
  free energy    TOTEN  =      -933.96576878 eV

  energy without entropy =     -933.86964603  energy(sigma->0) =     -933.91770740


--------------------------------------------------------------------------------------------------------




----------------------------------------- Iteration    1(  10)  ---------------------------------------


    POTLOK:  cpu time    0.8031: real time    0.8032
    SETDIJ:  cpu time    0.1058: real time    0.1058
     EDDAV:  cpu time   21.4063: real time   24.3170
       DOS:  cpu time    0.0018: real time    0.0018
    CHARGE:  cpu time    1.6366: real time    1.6695
    MIXING:  cpu time    0.0332: real time    0.0334
    --------------------------------------------
      LOOP:  cpu time   23.9884: real time   26.9334

 eigenvalue-minimisations  :  3756
 total energy-change (2. order) : 0.1793413E+01  (-0.1134921E+01)
 number of electron     765.9999984 magnetization 
 augmentation part       -9.9420431 magnetization 

 Broyden mixing:
  rms(total) = 0.19493E+00    rms(broyden)= 0.19484E+00
  rms(prec ) = 0.26668E+00
  weight for this iteration     100.00

 eigenvalues of (default mixing * dielectric matrix)
  average eigenvalue GAMMA=   0.8649
  2.4734  0.7024  0.7024  0.3037  0.1428

 Free energy of the ion-electron system (eV)
  ---------------------------------------------------
  alpha Z        PSCENC =       505.22967617
  Ewald energy   TEWEN  =     89748.02187050
  -Hartree energ DENC   =   -104526.64930685
  -exchange      EXHF   =         0.00000000
  -V(xc)+E(xc)   XCENC  =     -6572.36137829
  PAW double counting   =     22404.73505634   -14358.34785456
  entropy T*S    EENTRO =        -0.08961046
  eigenvalues    EBANDS =     -2151.91278437
  atomic energy  EATOM  =     14019.20197576
  Solvation  Ediel_sol  =         0.00000000
  ---------------------------------------------------
  free energy    TOTEN  =      -932.17235576 eV

  energy without entropy =     -932.08274529  energy(sigma->0) =     -932.12755052


--------------------------------------------------------------------------------------------------------




----------------------------------------- Iteration    1(  11)  ---------------------------------------


    POTLOK:  cpu time    0.8108: real time    0.8109
    SETDIJ:  cpu time    0.1062: real time    0.1062
     EDDAV:  cpu time   22.1451: real time   25.1838
       DOS:  cpu time    0.0019: real time    0.0019
    CHARGE:  cpu time    1.6746: real time    1.7073
    MIXING:  cpu time    0.0351: real time    0.0351
    --------------------------------------------
      LOOP:  cpu time   24.7753: real time   27.8479

 eigenvalue-minimisations  :  3936
 total energy-change (2. order) : 0.1459625E+00  (-0.2065524E+00)
 number of electron     765.9999986 magnetization 
 augmentation part      -10.0108618 magnetization 

 Broyden mixing:
  rms(total) = 0.98539E-01    rms(broyden)= 0.98268E-01
  rms(prec ) = 0.12956E+00
  weight for this iteration     100.00

 eigenvalues of (default mixing * dielectric matrix)
  average eigenvalue GAMMA=   0.9374
  2.3099  1.5011  0.6855  0.6855  0.2997  0.1427

 Free energy of the ion-electron system (eV)
  ---------------------------------------------------
  alpha Z        PSCENC =       505.22967617
  Ewald energy   TEWEN  =     89748.02187050
  -Hartree energ DENC   =   -104578.99410720
  -exchange      EXHF   =         0.00000000
  -V(xc)+E(xc)   XCENC  =     -6570.31017656
  PAW double counting   =     22667.18133596   -14621.15502245
  entropy T*S    EENTRO =        -0.09085827
  eigenvalues    EBANDS =     -2101.11108719
  atomic energy  EATOM  =     14019.20197576
  Solvation  Ediel_sol  =         0.00000000
  ---------------------------------------------------
  free energy    TOTEN  =      -932.02639328 eV

  energy without entropy =     -931.93553501  energy(sigma->0) =     -931.98096415


--------------------------------------------------------------------------------------------------------




----------------------------------------- Iteration    1(  12)  ---------------------------------------


    POTLOK:  cpu time    0.8120: real time    0.8121
    SETDIJ:  cpu time    0.1069: real time    0.1069
     EDDAV:  cpu time   22.3351: real time   25.3632
       DOS:  cpu time    0.0025: real time    0.0025
    CHARGE:  cpu time    1.6464: real time    1.6792
    MIXING:  cpu time    0.0361: real time    0.0361
    --------------------------------------------
      LOOP:  cpu time   24.9406: real time   28.0027

 eigenvalue-minimisations  :  3972
 total energy-change (2. order) : 0.2503729E-01  (-0.3184933E-01)
 number of electron     765.9999986 magnetization 
 augmentation part      -10.0239974 magnetization 

 Broyden mixing:
  rms(total) = 0.73866E-01    rms(broyden)= 0.73789E-01
  rms(prec ) = 0.10268E+00
  weight for this iteration     100.00

 eigenvalues of (default mixing * dielectric matrix)
  average eigenvalue GAMMA=   1.0308
  2.3703  2.3703  0.1427  0.3004  0.7162  0.7162  0.5997

 Free energy of the ion-electron system (eV)
  ---------------------------------------------------
  alpha Z        PSCENC =       505.22967617
  Ewald energy   TEWEN  =     89748.02187050
  -Hartree energ DENC   =   -104607.62135446
  -exchange      EXHF   =         0.00000000
  -V(xc)+E(xc)   XCENC  =     -6569.95709667
  PAW double counting   =     22656.52853994   -14610.71390008
  entropy T*S    EENTRO =        -0.08731640
  eigenvalues    EBANDS =     -2072.60375075
  atomic energy  EATOM  =     14019.20197576
  Solvation  Ediel_sol  =         0.00000000
  ---------------------------------------------------
  free energy    TOTEN  =      -932.00135599 eV

  energy without entropy =     -931.91403959  energy(sigma->0) =     -931.95769779


--------------------------------------------------------------------------------------------------------




----------------------------------------- Iteration    1(  13)  ---------------------------------------


    POTLOK:  cpu time    0.8125: real time    0.8126
    SETDIJ:  cpu time    0.1064: real time    0.1064
     EDDAV:  cpu time   21.4782: real time   24.3802
       DOS:  cpu time    0.0015: real time    0.0015
    CHARGE:  cpu time    1.6499: real time    1.6828
    MIXING:  cpu time    0.0369: real time    0.0369
    --------------------------------------------
      LOOP:  cpu time   24.0870: real time   27.0231

 eigenvalue-minimisations  :  3768
 total energy-change (2. order) : 0.4619698E-01  (-0.9752742E-02)
 number of electron     765.9999985 magnetization 
 augmentation part      -10.0161071 magnetization 

 Broyden mixing:
  rms(total) = 0.40620E-01    rms(broyden)= 0.40605E-01
  rms(prec ) = 0.68790E-01
  weight for this iteration     100.00

 eigenvalues of (default mixing * dielectric matrix)
  average eigenvalue GAMMA=   1.0235
  2.5266  2.5266  0.7927  0.7006  0.7006  0.1427  0.3002  0.4984

 Free energy of the ion-electron system (eV)
  ---------------------------------------------------
  alpha Z        PSCENC =       505.22967617
  Ewald energy   TEWEN  =     89748.02187050
  -Hartree energ DENC   =   -104653.50117741
  -exchange      EXHF   =         0.00000000
  -V(xc)+E(xc)   XCENC  =     -6569.34851319
  PAW double counting   =     22665.33030817   -14619.79835561
  entropy T*S    EENTRO =        -0.09217814
  eigenvalues    EBANDS =     -2026.99876525
  atomic energy  EATOM  =     14019.20197576
  Solvation  Ediel_sol  =         0.00000000
  ---------------------------------------------------
  free energy    TOTEN  =      -931.95515900 eV

  energy without entropy =     -931.86298087  energy(sigma->0) =     -931.90906994


--------------------------------------------------------------------------------------------------------




----------------------------------------- Iteration    1(  14)  ---------------------------------------


    POTLOK:  cpu time    0.8078: real time    0.8079
    SETDIJ:  cpu time    0.1070: real time    0.1070
     EDDAV:  cpu time   20.8536: real time   23.7365
       DOS:  cpu time    0.0012: real time    0.0012
    CHARGE:  cpu time    1.6569: real time    1.6901
    MIXING:  cpu time    0.0393: real time    0.0393
    --------------------------------------------
      LOOP:  cpu time   23.4675: real time   26.3848

 eigenvalue-minimisations  :  3636
 total energy-change (2. order) : 0.2403881E-01  (-0.4460475E-02)
 number of electron     765.9999985 magnetization 
 augmentation part      -10.0123418 magnetization 

 Broyden mixing:
  rms(total) = 0.25348E-01    rms(broyden)= 0.25342E-01
  rms(prec ) = 0.41522E-01
  weight for this iteration     100.00

 eigenvalues of (default mixing * dielectric matrix)
  average eigenvalue GAMMA=   1.0667
  2.4835  2.4835  1.4093  0.1427  0.9045  0.3003  0.7015  0.7015  0.4733

 Free energy of the ion-electron system (eV)
  ---------------------------------------------------
  alpha Z        PSCENC =       505.22967617
  Ewald energy   TEWEN  =     89748.02187050
  -Hartree energ DENC   =   -104683.55005106
  -exchange      EXHF   =         0.00000000
  -V(xc)+E(xc)   XCENC  =     -6568.83978136
  PAW double counting   =     22695.23879695   -14649.81026907
  entropy T*S    EENTRO =        -0.08997410
  eigenvalues    EBANDS =     -1997.33336398
  atomic energy  EATOM  =     14019.20197576
  Solvation  Ediel_sol  =         0.00000000
  ---------------------------------------------------
  free energy    TOTEN  =      -931.93112020 eV

  energy without entropy =     -931.84114610  energy(sigma->0) =     -931.88613315


--------------------------------------------------------------------------------------------------------




----------------------------------------- Iteration    1(  15)  ---------------------------------------


    POTLOK:  cpu time    0.8221: real time    0.8221
    SETDIJ:  cpu time    0.1069: real time    0.1069
     EDDAV:  cpu time   21.4912: real time   24.5116
       DOS:  cpu time    0.0029: real time    0.0029
    CHARGE:  cpu time    1.6570: real time    1.6901
    MIXING:  cpu time    0.0415: real time    0.0415
    --------------------------------------------
      LOOP:  cpu time   24.1232: real time   27.1779

 eigenvalue-minimisations  :  3792
 total energy-change (2. order) :-0.3487273E-03  (-0.3438839E-02)
 number of electron     765.9999985 magnetization 
 augmentation part      -10.0126561 magnetization 

 Broyden mixing:
  rms(total) = 0.15562E-01    rms(broyden)= 0.15543E-01
  rms(prec ) = 0.24689E-01
  weight for this iteration     100.00

 eigenvalues of (default mixing * dielectric matrix)
  average eigenvalue GAMMA=   1.1715
  2.8701  2.8701  1.4205  1.4205  0.1427  0.3003  0.7194  0.7194  0.7752  0.4769

 Free energy of the ion-electron system (eV)
  ---------------------------------------------------
  alpha Z        PSCENC =       505.22967617
  Ewald energy   TEWEN  =     89748.02187050
  -Hartree energ DENC   =   -104713.90887896
  -exchange      EXHF   =         0.00000000
  -V(xc)+E(xc)   XCENC  =     -6568.49929164
  PAW double counting   =     22700.35681462   -14654.91492031
  entropy T*S    EENTRO =        -0.08873988
  eigenvalues    EBANDS =     -1967.32997517
  atomic energy  EATOM  =     14019.20197576
  Solvation  Ediel_sol  =         0.00000000
  ---------------------------------------------------
  free energy    TOTEN  =      -931.93146892 eV

  energy without entropy =     -931.84272904  energy(sigma->0) =     -931.88709898


--------------------------------------------------------------------------------------------------------




----------------------------------------- Iteration    1(  16)  ---------------------------------------


    POTLOK:  cpu time    0.8239: real time    0.8240
    SETDIJ:  cpu time    0.1063: real time    0.1063
     EDDAV:  cpu time   21.0380: real time   24.0029
       DOS:  cpu time    0.0021: real time    0.0021
    CHARGE:  cpu time    1.6371: real time    1.6698
    MIXING:  cpu time    0.0432: real time    0.0432
    --------------------------------------------
      LOOP:  cpu time   23.6523: real time   26.6512

 eigenvalue-minimisations  :  3684
 total energy-change (2. order) :-0.5134879E-02  (-0.8718750E-03)
 number of electron     765.9999985 magnetization 
 augmentation part      -10.0106877 magnetization 

 Broyden mixing:
  rms(total) = 0.10110E-01    rms(broyden)= 0.10105E-01
  rms(prec ) = 0.16177E-01
  weight for this iteration     100.00

 eigenvalues of (default mixing * dielectric matrix)
  average eigenvalue GAMMA=   1.2440
  3.8513  2.6569  1.5693  1.5693  0.1427  0.3003  0.8437  0.8437  0.7146  0.7146
  0.4775

 Free energy of the ion-electron system (eV)
  ---------------------------------------------------
  alpha Z        PSCENC =       505.22967617
  Ewald energy   TEWEN  =     89748.02187050
  -Hartree energ DENC   =   -104733.57086605
  -exchange      EXHF   =         0.00000000
  -V(xc)+E(xc)   XCENC  =     -6568.40897631
  PAW double counting   =     22683.52084050   -14638.06000750
  entropy T*S    EENTRO =        -0.08916822
  eigenvalues    EBANDS =     -1947.78194865
  atomic energy  EATOM  =     14019.20197576
  Solvation  Ediel_sol  =         0.00000000
  ---------------------------------------------------
  free energy    TOTEN  =      -931.93660380 eV

  energy without entropy =     -931.84743558  energy(sigma->0) =     -931.89201969


--------------------------------------------------------------------------------------------------------




----------------------------------------- Iteration    1(  17)  ---------------------------------------


    POTLOK:  cpu time    0.8245: real time    0.8246
    SETDIJ:  cpu time    0.1065: real time    0.1065
     EDDAV:  cpu time   20.6476: real time   23.5872
       DOS:  cpu time    0.0092: real time    0.0092
    CHARGE:  cpu time    1.6399: real time    1.6725
[...]
     11.69112     -8.59029     -8.26601        -0.009270     -0.001139      0.035416
     11.69112    -17.18057    -13.22561        -0.013677     -0.013397     -0.010165
     11.69112    -11.45372     -3.30640        -0.038527     -0.034699      0.029299
     11.69112    -14.31714     -8.26601         0.015284      0.003312      0.007400
     13.99306      0.00000      0.00000         0.011126     -0.005665     -0.030427
     13.99306     -2.86343     -4.95960         0.023155     -0.005483     -0.001667
     13.99306     -5.72686     -9.91921         0.011690     -0.014182     -0.001284
     13.99306     -5.72686      0.00000         0.011175      0.008248      0.002119
     13.99306     -8.59029     -4.95960         0.006076     -0.006272     -0.030398
     13.99306    -11.45372     -9.91921        -0.029198      0.001891     -0.000668
     13.99306    -11.45372      0.00000        -0.022196     -0.007453      0.036725
     13.99306    -14.31714     -4.95960         0.020480      0.031122     -0.012533
     13.99306    -17.18057     -9.91921        -0.002666     -0.012459     -0.026746
     16.34180     -2.86343     -1.65320        -0.017684     -0.003963     -0.013393
     16.34180     -5.72686     -6.61281         0.057207     -0.091712     -0.004331
     16.34180     -8.59029    -11.57241         0.040749      0.001019     -0.008748
     16.34180     -8.59029     -1.65320         0.001832     -0.022700      0.005239
     16.34180    -11.45372     -6.61281        -3.295716     -7.324141      0.097492
     16.34180    -14.31714    -11.57241        -0.003020      0.020855      0.017228
     16.34180    -14.31714     -1.65320        -0.004149      0.013297     -0.028769
     16.34180    -17.18057     -6.61281        -0.007818      0.017833     -0.002560
     16.34180    -20.04400    -11.57241        -0.009976     -0.017554      0.011762
      2.36204     -7.15857     -4.13300        -0.004994      0.018870     -0.012397
      2.36204    -10.02200     -9.09261         0.000715     -0.000000      0.001453
      2.36204    -12.88543    -14.05221         0.011064      0.004325      0.009354
      2.36204    -12.88543     -4.13300        -0.004994     -0.018870     -0.012397
      2.36204    -15.74886     -9.09261         0.013627      0.006741      0.027456
      2.36204    -18.61229    -14.05221         0.012744     -0.000000     -0.020247
      2.36204    -18.61229     -4.13300         0.008345     -0.000000     -0.013657
      2.36204    -21.47572     -9.09261         0.013627     -0.006741      0.027456
      2.36204    -24.33915    -14.05221         0.011064     -0.004325      0.009354
      4.71078    -10.02200     -5.78621        -0.006075     -0.000000     -0.013798
      4.71078    -12.88543    -10.74581        -0.020257     -0.000167     -0.005627
      4.71078     -7.15857     -0.82660        -0.019432     -0.000192      0.000958
      4.71078    -15.74886     -5.78621        -0.016451     -0.000795      0.011583
      4.71078    -18.61229    -10.74581        -0.011895     -0.000000     -0.014842
      4.71078    -12.88543     -0.82660        -0.019432      0.000192      0.000958
      4.71078     -4.29514     -5.78621        -0.016451      0.000795      0.011583
      4.71078     -7.15857    -10.74581        -0.020257      0.000167     -0.005627
      4.71078     -1.43171     -0.82660        -0.007565     -0.000000     -0.008334
      7.01272    -12.88543     -7.43941        -0.005628      0.015147      0.010652
      7.01272    -15.74886    -12.39901         0.006010     -0.013511      0.012210
      7.01272    -10.02200     -2.47980         0.031566     -0.000000      0.023064
      7.01272    -18.61229     -7.43941         0.015918     -0.000000     -0.016402
      7.01272    -21.47572    -12.39901         0.006010      0.013511      0.012210
      7.01272    -15.74886     -2.47980         0.007798     -0.021208      0.005343
      7.01272     -7.15857     -7.43941        -0.005628     -0.015147      0.010652
      7.01272    -10.02200    -12.39901         0.000223     -0.000000      0.006010
      7.01272     -4.29514     -2.47980         0.007798      0.021208      0.005343
      9.35192    -15.74886     -9.09261        -0.037297     -0.003164     -0.012968
      9.35192    -18.61229    -14.05221         0.004113     -0.000000      0.027355
      9.35192    -12.88543     -4.13300        -0.002840     -0.010128      0.002935
      9.35192    -21.47572     -9.09261        -0.037297      0.003164     -0.012968
      9.35192    -24.33915    -14.05221         0.000982      0.002468     -0.021795
      9.35192    -18.61229     -4.13300         0.008693     -0.000000     -0.012882
      9.35192    -10.02200     -9.09261        -0.002345     -0.000000      0.016545
      9.35192    -12.88543    -14.05221         0.000982     -0.002468     -0.021795
      9.35192     -7.15857     -4.13300        -0.002840      0.010128      0.002935
     11.69112    -18.61229    -10.74581         0.024268     -0.000000     -0.003335
     11.69112    -12.88543     -0.82660        -0.021737      0.021416     -0.014926
     11.69112    -15.74886     -5.78621        -0.006822      0.018413     -0.002092
     11.69112     -7.15857    -10.74581         0.014082     -0.010078      0.002865
     11.69112     -1.43171     -0.82660        -0.006574     -0.000000     -0.020626
     11.69112     -4.29514     -5.78621        -0.006822     -0.018413     -0.002092
     11.69112    -12.88543    -10.74581         0.014082      0.010078      0.002865
     11.69112     -7.15857     -0.82660        -0.021737     -0.021416     -0.014926
     11.69112    -10.02200     -5.78621        -0.010491      0.000000     -0.028642
     13.99306    -21.47572    -12.39901         0.016292     -0.001918      0.009181
     13.99306    -15.74886     -2.47980         0.004925     -0.027899      0.013289
     13.99306    -18.61229     -7.43941        -0.004007     -0.000000      0.007625
     13.99306    -10.02200    -12.39901         0.010849     -0.000000      0.031138
     13.99306     -4.29514     -2.47980         0.004925      0.027899      0.013289
     13.99306     -7.15857     -7.43941        -0.020355      0.012812     -0.051291
     13.99306    -15.74886    -12.39901         0.016292      0.001918      0.009181
     13.99306    -10.02200     -2.47980        -0.035480     -0.000000      0.003986
     13.99306    -12.88543     -7.43941        -0.020355     -0.012812     -0.051291
     16.34180    -24.33915    -14.05221        -0.008598     -0.012852      0.000170
     16.34180    -18.61229     -4.13300        -0.019712     -0.000000      0.022216
     16.34180    -21.47572     -9.09261         0.010906     -0.002684      0.030221
     16.34180    -12.88543    -14.05221        -0.008598      0.012852      0.000170
     16.34180     -7.15857     -4.13300        -0.087259      0.139489      0.103934
     16.34180    -10.02200     -9.09261         0.156647     -0.000000      0.087154
     16.34180    -18.61229    -14.05221        -0.002787     -0.000000      0.017998
     16.34180    -12.88543     -4.13300        -0.087259     -0.139489      0.103934
     16.34180    -15.74886     -9.09261         0.010906      0.002684      0.030221
      2.36204     -8.59029     -6.61281         0.013692     -0.019229      0.003285
      2.36204    -11.45372    -11.57241         0.013873     -0.001180     -0.009797
      2.36204     -5.72686     -1.65320         0.011157      0.007566     -0.002143
      2.36204    -14.31714     -6.61281         0.017099     -0.010293      0.006714
      2.36204    -17.18057    -11.57241         0.015966      0.010972      0.001547
      2.36204    -11.45372     -1.65320         0.019854     -0.005724      0.016025
      2.36204    -20.04400     -6.61281         0.009071      0.004654     -0.005569
      2.36204    -22.90743    -11.57241         0.018149      0.003951     -0.002385
      2.36204    -17.18057     -1.65320         0.005175      0.004641      0.004230
      4.71078    -11.45372     -8.26601         0.013233      0.003906      0.012957
      4.71078    -14.31714    -13.22561        -0.016847      0.004813     -0.004207
      4.71078     -8.59029     -3.30640         0.010474      0.015108      0.001091
      4.71078    -17.18057     -8.26601        -0.019448      0.003351      0.004267
      4.71078    -20.04400    -13.22561         0.000855     -0.005217      0.010310
      4.71078    -14.31714     -3.30640        -0.018982     -0.007942     -0.003199
      4.71078     -5.72686     -8.26601        -0.011205      0.007505     -0.003328
      4.71078     -8.59029    -13.22561        -0.016558      0.003744     -0.008311
      4.71078     -2.86343     -3.30640         0.004708     -0.000059      0.003946
      7.01272    -14.31714     -9.91921         0.026083     -0.004567      0.008065
      7.01272     -8.59029      0.00000         0.019314      0.003870     -0.009976
      7.01272    -11.45372     -4.95960        -0.012386     -0.004884     -0.026268
      7.01272    -20.04400     -9.91921         0.042126      0.006037      0.001676
      7.01272    -14.31714      0.00000         0.027773      0.007444     -0.005974
      7.01272    -17.18057     -4.95960         0.017003      0.000586      0.006864
      7.01272     -8.59029     -9.91921         0.001815      0.011899      0.001770
      7.01272     -2.86343      0.00000         0.018284     -0.000274     -0.006941
      7.01272     -5.72686     -4.95960         0.009561     -0.002439     -0.004128
      9.35192    -17.18057    -11.57241        -0.006261     -0.001980     -0.001413
      9.35192    -11.45372     -1.65320         0.012426      0.019043     -0.013289
      9.35192    -14.31714     -6.61281         0.000732      0.009497      0.002776
      9.35192    -22.90743    -11.57241        -0.018931      0.004111     -0.001716
      9.35192    -17.18057     -1.65320         0.009320      0.007761     -0.001258
      9.35192    -20.04400     -6.61281        -0.019667      0.011918      0.012589
      9.35192    -11.45372    -11.57241         0.023752      0.004655      0.020408
      9.35192     -5.72686     -1.65320        -0.007629      0.019413      0.010659
      9.35192     -8.59029     -6.61281         0.029496     -0.030719      0.001552
     11.69112    -20.04400    -13.22561        -0.013677      0.013397     -0.010165
     11.69112    -14.31714     -3.30640        -0.005043      0.019202     -0.003869
     11.69112    -17.18057     -8.26601         0.017291      0.022382      0.015687
     11.69112     -8.59029    -13.22561        -0.020634      0.002001     -0.001571
     11.69112     -2.86343     -3.30640        -0.019464     -0.002843     -0.003705
     11.69112     -5.72686     -8.26601         0.015284     -0.003312      0.007400
     11.69112    -14.31714    -13.22561        -0.002359      0.016297     -0.003379
     11.69112     -8.59029     -3.30640        -0.038527      0.034699      0.029299
     11.69112    -11.45372     -8.26601        -0.009270      0.001139      0.035416
     13.99306    -14.31714      0.00000         0.011175     -0.008248      0.002119
     13.99306    -17.18057     -4.95960         0.023155      0.005483     -0.001667
     13.99306    -20.04400     -9.91921        -0.002666      0.012459     -0.026746
     13.99306     -2.86343      0.00000         0.011126      0.005665     -0.030427
     13.99306     -5.72686     -4.95960         0.020480     -0.031122     -0.012533
     13.99306     -8.59029     -9.91921        -0.029198     -0.001891     -0.000668
     13.99306     -8.59029      0.00000        -0.022196      0.007453      0.036725
     13.99306    -11.45372     -4.95960         0.006076      0.006272     -0.030398
     13.99306    -14.31714     -9.91921         0.011690      0.014182     -0.001284
     16.34180    -17.18057     -1.65320        -0.017684      0.003963     -0.013393
     16.34180    -20.04400     -6.61281        -0.007818     -0.017833     -0.002560
     16.34180    -22.90743    -11.57241        -0.003020     -0.020855      0.017228
     16.34180     -5.72686     -1.65320        -0.004149     -0.013297     -0.028769
     16.34180     -8.59029     -6.61281        -3.295716      7.324141      0.097492
     16.34180    -11.45372    -11.57241         0.040749     -0.001019     -0.008748
     16.34180    -11.45372     -1.65320         0.001832      0.022700      0.005239
     16.34180    -14.31714     -6.61281         0.057207      0.091712     -0.004331
     16.34180    -17.18057    -11.57241        -0.009976      0.017554      0.011762
      2.36204    -10.02200     -4.13300         0.024538     -0.000000     -0.031709
      2.36204    -12.88543     -9.09261         0.004167     -0.005309     -0.002875
      2.36204    -15.74886    -14.05221         0.006407     -0.003598     -0.004572
      2.36204    -15.74886     -4.13300         0.003624      0.010324     -0.014305
      2.36204    -18.61229     -9.09261         0.005722     -0.000000      0.018970
      2.36204    -21.47572    -14.05221         0.006407      0.003598     -0.004572
      2.36204     -4.29514     -4.13300         0.003624     -0.010324     -0.014305
      2.36204     -7.15857     -9.09261         0.004167      0.005309     -0.002875
      2.36204    -10.02200    -14.05221        -0.002969     -0.000000      0.006266
      4.71078    -12.88543     -5.78621         0.007417      0.005388     -0.005129
      4.71078    -15.74886    -10.74581        -0.017641      0.005829     -0.003958
      4.71078    -10.02200     -0.82660        -0.030087     -0.000000      0.002178
      4.71078    -18.61229     -5.78621        -0.022937     -0.000000      0.009433
      4.71078    -21.47572    -10.74581        -0.017641     -0.005829     -0.003958
      4.71078    -15.74886     -0.82660        -0.016295     -0.004996     -0.006154
      4.71078     -7.15857     -5.78621         0.007417     -0.005388     -0.005129
      4.71078    -10.02200    -10.74581        -0.000187     -0.000000     -0.005024
      4.71078     -4.29514     -0.82660        -0.016295      0.004996     -0.006154
      7.01272    -15.74886     -7.43941         0.028069     -0.005668     -0.013718
      7.01272    -18.61229    -12.39901         0.014251     -0.000000      0.027196
      7.01272    -12.88543     -2.47980         0.016844      0.018267      0.009155
      7.01272    -21.47571     -7.43941         0.028069      0.005668     -0.013718
      7.01272    -24.33914    -12.39901         0.019388      0.000704      0.000022
      7.01272    -18.61228     -2.47980        -0.000238     -0.000000      0.019871
      7.01272    -10.02200     -7.43941        -0.002558     -0.000000      0.026116
      7.01272    -12.88543    -12.39901         0.019388     -0.000704      0.000022
      7.01272     -7.15857     -2.47980         0.016844     -0.018267      0.009155
      9.35192    -18.61229     -9.09261        -0.031641     -0.000000     -0.014378
      9.35192    -21.47572    -14.05221         0.000105      0.002319      0.003588
      9.35192    -15.74886     -4.13300        -0.011459     -0.009211      0.010103
      9.35192     -7.15857     -9.09261        -0.006334      0.005216     -0.005884
      9.35192    -10.02200    -14.05221         0.014411     -0.000000     -0.028304
      9.35192     -4.29514     -4.13300        -0.011459      0.009211      0.010103
      9.35192    -12.88543     -9.09261        -0.006334     -0.005216     -0.005884
      9.35192    -15.74886    -14.05221         0.000105     -0.002319      0.003588
      9.35192    -10.02200     -4.13300        -0.024394     -0.000000     -0.013053
     11.69112    -21.47572    -10.74581        -0.006358      0.009419      0.004891
     11.69112    -15.74886     -0.82660        -0.025975     -0.012738     -0.014604
     11.69112    -18.61229     -5.78621        -0.024646     -0.000000      0.014309
     11.69112    -10.02200    -10.74581        -0.006393     -0.000000     -0.024027
     11.69112     -4.29514     -0.82660        -0.025975      0.012738     -0.014604
     11.69112     -7.15857     -5.78621        -0.006624     -0.019345     -0.003892
     11.69112    -15.74886    -10.74581        -0.006358     -0.009419      0.004891
     11.69112    -10.02200     -0.82660        -0.005350     -0.000000     -0.023949
     11.69112    -12.88543     -5.78621        -0.006624      0.019345     -0.003892
     13.99306    -24.33914    -12.39901        -0.005774      0.004077      0.002075
     13.99306    -18.61228     -2.47980        -0.005128     -0.000000      0.003274
     13.99306    -21.47571     -7.43941        -0.018512      0.033853     -0.012882
     13.99306    -12.88543    -12.39901        -0.005774     -0.004077      0.002075
     13.99306     -7.15857     -2.47980         0.013727      0.008853     -0.003441
     13.99306    -10.02200     -7.43941        -0.459363     -0.000000     -0.082931
     13.99306    -18.61229    -12.39901        -0.025081     -0.000000      0.023337
     13.99306    -12.88543     -2.47980         0.013727     -0.008853     -0.003441
     13.99306    -15.74886     -7.43941        -0.018512     -0.033853     -0.012882
     16.34180    -10.02200    -14.05221        -0.006771     -0.000000     -0.031940
     16.34180     -4.29514     -4.13300         0.004287      0.008297     -0.011223
     16.34180     -7.15857     -9.09261        -0.067174      0.203669     -0.131183
     16.34180    -15.74886    -14.05221        -0.008022     -0.016399     -0.001091
     16.34180    -10.02200     -4.13300         0.125681      0.000000     -0.139710
     16.34180    -12.88543     -9.09261        -0.067174     -0.203669     -0.131183
     16.34180    -21.47572    -14.05221        -0.008022      0.016399     -0.001091
     16.34180    -15.74886     -4.13300         0.004287     -0.008297     -0.011223
     16.34180    -18.61229     -9.09261        -0.014841     -0.000000     -0.008892
     17.04000    -10.02200     -7.24000         3.362568      0.000000    -12.716615
     17.04000    -10.02200     -5.98600         3.536998      0.000000     12.859881
 -----------------------------------------------------------------------------------
    total drift:                                0.246919     -0.000802      0.001265


--------------------------------------------------------------------------------------------------------



  FREE ENERGIE OF THE ION-ELECTRON SYSTEM (eV)
  ---------------------------------------------------
  free  energy   TOTEN  =      -931.95742418 eV

  energy  without entropy=     -931.86861762  energy(sigma->0) =     -931.91302090
 


--------------------------------------------------------------------------------------------------------


    POTLOK:  cpu time    0.9486: real time    0.9533


--------------------------------------------------------------------------------------------------------


     LOOP+:  cpu time  692.8453: real time  779.9573
    4ORBIT:  cpu time    0.0000: real time    0.0000

 total amount of memory used by VASP MPI-rank0   652131. kBytes
=======================================================================

   base      :      30000. kBytes
   nonlr-proj:      89910. kBytes
   fftplans  :      40601. kBytes
   grid      :      95147. kBytes
   one-center:       3950. kBytes
   wavefun   :     392523. kBytes
 
  
  
 General timing and accounting informations for this job:
 ========================================================
  
                  Total CPU time used (sec):      709.366
                            User time (sec):       97.928
                          System time (sec):      611.438
                         Elapsed time (sec):      799.464
  
                   Maximum memory used (kb):     1003628.
                   Average memory used (kb):           0.
  
                          Minor page faults:     26511010
                          Major page faults:           38
                 Voluntary context switches:        18045
