 254 254   0   0
  0.3019211E+02  0.1718057E-08  0.1718057E-08  0.3000000E-08  0.5000000E-15
  1.000000000000000E-004
  CAR 
 NiAl                                    
      5.61595488    -25.90077373  301      1.84162030      1.00000000
    -25.901  0.0000E+00  0.0000E+00
    -25.796  0.0000E+00  0.0000E+00
    -25.691  0.0000E+00  0.0000E+00
    -25.586  0.0000E+00  0.0000E+00
    -25.481  0.0000E+00  0.0000E+00
    -25.375  0.0000E+00  0.0000E+00
    -25.270  0.0000E+00  0.0000E+00
    -25.165  0.0000E+00  0.0000E+00
    -25.060  0.0000E+00  0.0000E+00
    -24.955  0.0000E+00  0.0000E+00
    -24.850  0.0000E+00  0.0000E+00
    -24.745  0.4439E-13  0.4663E-14
    -24.640  0.1093E-04  0.1148E-05
    -24.535  0.5554E+00  0.5835E-01
    -24.430  0.1581E+02  0.1719E+01
    -24.325  0.2673E+01  0.2000E+01
    -24.220  0.4879E-03  0.2000E+01
    -24.115  0.2093E-10  0.2000E+01
    -24.010  0.0000E+00  0.2000E+01
    -23.905  0.0000E+00  0.2000E+01
    -23.800  0.0000E+00  0.2000E+01
    -23.695  0.0000E+00  0.2000E+01
    -23.590  0.0000E+00  0.2000E+01
    -23.484  0.0000E+00  0.2000E+01
    -23.379  0.0000E+00  0.2000E+01
    -23.274  0.0000E+00  0.2000E+01
    -23.169  0.0000E+00  0.2000E+01
    -23.064  0.0000E+00  0.2000E+01
    -22.959  0.0000E+00  0.2000E+01
    -22.854  0.0000E+00  0.2000E+01
    -22.749  0.0000E+00  0.2000E+01
    -22.644  0.0000E+00  0.2000E+01
    -22.539  0.0000E+00  0.2000E+01
    -22.434  0.0000E+00  0.2000E+01
    -22.329  0.0000E+00  0.2000E+01
    -22.224  0.0000E+00  0.2000E+01
    -22.119  0.0000E+00  0.2000E+01
    -22.014  0.0000E+00  0.2000E+01
    -21.909  0.0000E+00  0.2000E+01
    -21.804  0.0000E+00  0.2000E+01
    -21.699  0.0000E+00  0.2000E+01
    -21.593  0.0000E+00  0.2000E+01
    -21.488  0.0000E+00  0.2000E+01
    -21.383  0.0000E+00  0.2000E+01
    -21.278  0.0000E+00  0.2000E+01
    -21.173  0.0000E+00  0.2000E+01
    -21.068  0.0000E+00  0.2000E+01
    -20.963  0.0000E+00  0.2000E+01
    -20.858  0.0000E+00  0.2000E+01
    -20.753  0.0000E+00  0.2000E+01
    -20.648  0.0000E+00  0.2000E+01
    -20.543  0.0000E+00  0.2000E+01
    -20.438  0.0000E+00  0.2000E+01
    -20.333  0.0000E+00  0.2000E+01
    -20.228  0.0000E+00  0.2000E+01
    -20.123  0.0000E+00  0.2000E+01
    -20.018  0.0000E+00  0.2000E+01
    -19.913  0.0000E+00  0.2000E+01
    -19.808  0.0000E+00  0.2000E+01
    -19.702  0.0000E+00  0.2000E+01
    -19.597  0.0000E+00  0.2000E+01
    -19.492  0.0000E+00  0.2000E+01
    -19.387  0.0000E+00  0.2000E+01
    -19.282  0.0000E+00  0.2000E+01
    -19.177  0.0000E+00  0.2000E+01
    -19.072  0.0000E+00  0.2000E+01
    -18.967  0.0000E+00  0.2000E+01
    -18.862  0.0000E+00  0.2000E+01
    -18.757  0.0000E+00  0.2000E+01
    -18.652  0.0000E+00  0.2000E+01
    -18.547  0.0000E+00  0.2000E+01
    -18.442  0.0000E+00  0.2000E+01
    -18.337  0.0000E+00  0.2000E+01
    -18.232  0.0000E+00  0.2000E+01
    -18.127  0.0000E+00  0.2000E+01
    -18.022  0.0000E+00  0.2000E+01
    -17.917  0.0000E+00  0.2000E+01
    -17.811  0.0000E+00  0.2000E+01
    -17.706  0.0000E+00  0.2000E+01
    -17.601  0.0000E+00  0.2000E+01
    -17.496  0.0000E+00  0.2000E+01
    -17.391  0.0000E+00  0.2000E+01
    -17.286  0.0000E+00  0.2000E+01
    -17.181  0.0000E+00  0.2000E+01
    -17.076  0.0000E+00  0.2000E+01
    -16.971  0.0000E+00  0.2000E+01
    -16.866  0.0000E+00  0.2000E+01
    -16.761  0.0000E+00  0.2000E+01
    -16.656  0.0000E+00  0.2000E+01
    -16.551  0.0000E+00  0.2000E+01
    -16.446  0.0000E+00  0.2000E+01
    -16.341  0.0000E+00  0.2000E+01
    -16.236  0.0000E+00  0.2000E+01
    -16.131  0.0000E+00  0.2000E+01
    -16.026  0.0000E+00  0.2000E+01
    -15.920  0.0000E+00  0.2000E+01
    -15.815  0.0000E+00  0.2000E+01
    -15.710  0.0000E+00  0.2000E+01
    -15.605  0.0000E+00  0.2000E+01
    -15.500  0.0000E+00  0.2000E+01
    -15.395  0.0000E+00  0.2000E+01
    -15.290  0.0000E+00  0.2000E+01
    -15.185  0.0000E+00  0.2000E+01
    -15.080  0.0000E+00  0.2000E+01
    -14.975  0.0000E+00  0.2000E+01
    -14.870  0.0000E+00  0.2000E+01
    -14.765  0.0000E+00  0.2000E+01
    -14.660  0.0000E+00  0.2000E+01
    -14.555  0.0000E+00  0.2000E+01
    -14.450  0.0000E+00  0.2000E+01
    -14.345  0.0000E+00  0.2000E+01
    -14.240  0.0000E+00  0.2000E+01
    -14.135  0.0000E+00  0.2000E+01
    -14.029  0.0000E+00  0.2000E+01
    -13.924  0.0000E+00  0.2000E+01
    -13.819  0.0000E+00  0.2000E+01
    -13.714  0.0000E+00  0.2000E+01
    -13.609  0.0000E+00  0.2000E+01
    -13.504  0.0000E+00  0.2000E+01
    -13.399  0.0000E+00  0.2000E+01
    -13.294  0.0000E+00  0.2000E+01
    -13.189  0.0000E+00  0.2000E+01
    -13.084  0.0000E+00  0.2000E+01
    -12.979  0.0000E+00  0.2000E+01
    -12.874  0.0000E+00  0.2000E+01
    -12.769  0.0000E+00  0.2000E+01
    -12.664  0.0000E+00  0.2000E+01
    -12.559  0.0000E+00  0.2000E+01
    -12.454  0.0000E+00  0.2000E+01
    -12.349  0.0000E+00  0.2000E+01
    -12.244  0.0000E+00  0.2000E+01
    -12.138  0.0000E+00  0.2000E+01
    -12.033  0.0000E+00  0.2000E+01
    -11.928  0.0000E+00  0.2000E+01
    -11.823  0.0000E+00  0.2000E+01
    -11.718  0.0000E+00  0.2000E+01
    -11.613  0.0000E+00  0.2000E+01
    -11.508  0.0000E+00  0.2000E+01
    -11.403  0.0000E+00  0.2000E+01
    -11.298  0.0000E+00  0.2000E+01
    -11.193  0.0000E+00  0.2000E+01
    -11.088  0.0000E+00  0.2000E+01
    -10.983  0.0000E+00  0.2000E+01
    -10.878  0.0000E+00  0.2000E+01
    -10.773  0.0000E+00  0.2000E+01
    -10.668  0.0000E+00  0.2000E+01
    -10.563  0.0000E+00  0.2000E+01
    -10.458  0.0000E+00  0.2000E+01
    -10.353  0.0000E+00  0.2000E+01
    -10.247  0.0000E+00  0.2000E+01
    -10.142  0.8215E-07  0.2000E+01
    -10.037  0.5107E-01  0.2005E+01
     -9.932  0.1088E+02  0.3148E+01
     -9.827  0.8090E+01  0.3998E+01
     -9.722  0.1509E-01  0.4000E+01
     -9.617  0.8363E-08  0.4000E+01
     -9.512  0.0000E+00  0.4000E+01
     -9.407  0.1613E-11  0.4000E+01
     -9.302  0.6088E-04  0.4000E+01
     -9.197  0.6474E+00  0.4068E+01
     -9.092  0.1466E+02  0.5608E+01
     -8.987  0.9099E+01  0.6564E+01
     -8.882  0.2233E+02  0.8910E+01
     -8.777  0.1589E+02  0.1058E+02
     -8.672  0.1340E+02  0.1199E+02
     -8.567  0.3293E+02  0.1545E+02
     -8.462  0.2881E+02  0.1847E+02
     -8.356  0.2328E+02  0.2092E+02
     -8.251  0.8858E+01  0.2185E+02
     -8.146  0.2098E+02  0.2405E+02
     -8.041  0.2421E+02  0.2660E+02
     -7.936  0.4046E+02  0.3085E+02
     -7.831  0.5197E+02  0.3631E+02
     -7.726  0.1849E+01  0.3650E+02
     -7.621  0.1910E+02  0.3851E+02
     -7.516  0.8594E+02  0.4754E+02
     -7.411  0.2431E+02  0.5009E+02
     -7.306  0.1436E+02  0.5160E+02
     -7.201  0.2867E+02  0.5461E+02
     -7.096  0.3201E+02  0.5797E+02
     -6.991  0.3548E+02  0.6170E+02
     -6.886  0.9217E+02  0.7138E+02
     -6.781  0.2806E+02  0.7433E+02
     -6.676  0.4462E+02  0.7902E+02
     -6.571  0.7723E+02  0.8713E+02
     -6.465  0.4592E+02  0.9196E+02
     -6.360  0.1928E+02  0.9398E+02
     -6.255  0.2410E+01  0.9424E+02
     -6.150  0.2249E+02  0.9660E+02
     -6.045  0.1113E+03  0.1083E+03
     -5.940  0.8296E+02  0.1170E+03
     -5.835  0.5970E+02  0.1233E+03
     -5.730  0.3470E+02  0.1269E+03
     -5.625  0.6716E+02  0.1340E+03
     -5.520  0.8782E+02  0.1432E+03
     -5.415  0.3324E+02  0.1467E+03
     -5.310  0.2759E+02  0.1496E+03
     -5.205  0.6080E+02  0.1560E+03
     -5.100  0.5786E+02  0.1621E+03
     -4.995  0.7462E+02  0.1699E+03
     -4.890  0.7042E+02  0.1773E+03
     -4.785  0.1589E+02  0.1790E+03
     -4.680  0.5996E+02  0.1853E+03
     -4.574  0.1198E+03  0.1978E+03
     -4.469  0.5768E+02  0.2039E+03
     -4.364  0.3282E+02  0.2074E+03
     -4.259  0.6462E+02  0.2141E+03
     -4.154  0.8189E+02  0.2227E+03
     -4.049  0.1098E+03  0.2343E+03
     -3.944  0.8598E+02  0.2433E+03
     -3.839  0.3284E+02  0.2468E+03
     -3.734  0.7427E+02  0.2546E+03
     -3.629  0.9278E+02  0.2643E+03
     -3.524  0.5591E+02  0.2702E+03
     -3.419  0.5522E+02  0.2760E+03
     -3.314  0.1402E+02  0.2775E+03
     -3.209  0.4719E+02  0.2824E+03
     -3.104  0.8568E+02  0.2914E+03
     -2.999  0.1186E+03  0.3039E+03
     -2.894  0.7404E+02  0.3117E+03
     -2.789  0.1357E+03  0.3259E+03
     -2.683  0.1781E+03  0.3446E+03
     -2.578  0.3877E+02  0.3487E+03
     -2.473  0.9440E+01  0.3497E+03
     -2.368  0.4653E+02  0.3546E+03
     -2.263  0.1019E+03  0.3653E+03
     -2.158  0.9354E+02  0.3751E+03
     -2.053  0.1063E+03  0.3863E+03
     -1.948  0.3701E+02  0.3902E+03
     -1.843  0.8350E+02  0.3989E+03
     -1.738  0.1434E+03  0.4140E+03
     -1.633  0.7469E+02  0.4219E+03
     -1.528  0.5316E+02  0.4274E+03
     -1.423  0.7428E+02  0.4352E+03
     -1.318  0.1127E+03  0.4471E+03
     -1.213  0.1319E+03  0.4609E+03
     -1.108  0.1197E+03  0.4735E+03
     -1.003  0.7152E+02  0.4810E+03
     -0.898  0.7402E+02  0.4888E+03
     -0.792  0.1313E+03  0.5026E+03
     -0.687  0.8236E+02  0.5112E+03
     -0.582  0.4728E+02  0.5162E+03
     -0.477  0.7047E+02  0.5236E+03
     -0.372  0.1877E+03  0.5433E+03
     -0.267  0.1007E+03  0.5539E+03
     -0.162  0.1320E+03  0.5678E+03
     -0.057  0.5039E+02  0.5731E+03
      0.048  0.3840E+02  0.5771E+03
      0.153  0.1111E+03  0.5888E+03
      0.258  0.8544E+02  0.5978E+03
      0.363  0.8789E+02  0.6070E+03
      0.468  0.8735E+02  0.6162E+03
      0.573  0.1303E+03  0.6299E+03
      0.678  0.6352E+02  0.6365E+03
      0.783  0.5069E+02  0.6419E+03
      0.888  0.6469E+02  0.6487E+03
      0.994  0.1652E+03  0.6660E+03
      1.099  0.1972E+03  0.6867E+03
      1.204  0.1056E+03  0.6978E+03
      1.309  0.7458E+02  0.7057E+03
      1.414  0.7984E+02  0.7140E+03
      1.519  0.9197E+02  0.7237E+03
      1.624  0.1461E+03  0.7391E+03
      1.729  0.1703E+03  0.7569E+03
      1.834  0.8207E+02  0.7656E+03
      1.939  0.6910E+02  0.7728E+03
      2.044  0.1524E+03  0.7888E+03
      2.149  0.7972E+02  0.7972E+03
      2.254  0.9393E+02  0.8071E+03
      2.359  0.6219E+02  0.8136E+03
      2.464  0.1045E+03  0.8246E+03
      2.569  0.8361E+02  0.8334E+03
      2.674  0.1402E+03  0.8481E+03
      2.779  0.8654E+02  0.8572E+03
      2.885  0.8547E+02  0.8662E+03
      2.990  0.2641E+03  0.8939E+03
      3.095  0.1697E+03  0.9117E+03
      3.200  0.6823E+02  0.9189E+03
      3.305  0.9567E+02  0.9290E+03
      3.410  0.1311E+03  0.9427E+03
      3.515  0.1263E+03  0.9560E+03
      3.620  0.9702E+02  0.9662E+03
      3.725  0.1065E+03  0.9774E+03
      3.830  0.8257E+02  0.9861E+03
      3.935  0.1030E+03  0.9969E+03
      4.040  0.1704E+03  0.1015E+04
      4.145  0.1230E+03  0.1028E+04
      4.250  0.4057E+02  0.1032E+04
      4.355  0.4489E+00  0.1032E+04
      4.460  0.4914E-05  0.1032E+04
      4.565  0.1532E-13  0.1032E+04
      4.670  0.0000E+00  0.1032E+04
      4.776  0.0000E+00  0.1032E+04
      4.881  0.0000E+00  0.1032E+04
      4.986  0.0000E+00  0.1032E+04
      5.091  0.0000E+00  0.1032E+04
      5.196  0.0000E+00  0.1032E+04
      5.301  0.0000E+00  0.1032E+04
      5.406  0.0000E+00  0.1032E+04
      5.511  0.0000E+00  0.1032E+04
      5.616  0.0000E+00  0.1032E+04
