       N       E                     dE             d eps       ncg     rms          rms(c)
DAV:   1     0.214516478385E+04    0.21452E+04   -0.18457E+05  3168   0.734E+02
DAV:   2    -0.735565211617E+03   -0.28807E+04   -0.27193E+04  4200   0.193E+02
DAV:   3    -0.948875139446E+03   -0.21331E+03   -0.20408E+03  4476   0.410E+01
DAV:   4    -0.960549058328E+03   -0.11674E+02   -0.11013E+02  4884   0.895E+00
DAV:   5    -0.960997260443E+03   -0.44820E+00   -0.44241E+00  4692   0.184E+00    0.212E+01
DAV:   6    -0.970632704872E+03   -0.96354E+01   -0.18943E+02  4380   0.163E+01    0.193E+01
DAV:   7    -0.937410555929E+03    0.33222E+02   -0.12821E+02  4032   0.158E+01    0.118E+01
DAV:   8    -0.946107158189E+03   -0.86966E+01   -0.41301E+01  4416   0.109E+01    0.105E+01
DAV:   9    -0.936053876686E+03    0.10053E+02   -0.11866E+01  4056   0.960E+00    0.828E+00
DAV:  10    -0.931807733151E+03    0.42461E+01   -0.96027E+00  4008   0.441E+00    0.158E+00
DAV:  11    -0.931721804937E+03    0.85928E-01   -0.27255E+00  3864   0.195E+00    0.110E+00
DAV:  12    -0.931677671460E+03    0.44133E-01   -0.36928E-01  3888   0.841E-01    0.711E-01
DAV:  13    -0.931639830227E+03    0.37841E-01   -0.12484E-01  3864   0.422E-01    0.462E-01
DAV:  14    -0.931616911032E+03    0.22919E-01   -0.35687E-02  3816   0.252E-01    0.280E-01
DAV:  15    -0.931610842066E+03    0.60690E-02   -0.27315E-02  3756   0.169E-01    0.169E-01
DAV:  16    -0.931615138605E+03   -0.42965E-02   -0.11802E-02  3576   0.992E-02    0.112E-01
DAV:  17    -0.931623004057E+03   -0.78655E-02   -0.49955E-03  3552   0.635E-02    0.691E-02
DAV:  18    -0.931627450318E+03   -0.44463E-02   -0.12534E-03  3696   0.474E-02    0.478E-02
DAV:  19    -0.931630464187E+03   -0.30139E-02   -0.65823E-04  3420   0.328E-02    0.283E-02
DAV:  20    -0.931632193752E+03   -0.17296E-02   -0.36758E-04  3432   0.191E-02    0.202E-02
DAV:  21    -0.931633716772E+03   -0.15230E-02   -0.15469E-04  3492   0.130E-02    0.128E-02
DAV:  22    -0.931634007617E+03   -0.29085E-03   -0.27338E-04  3336   0.112E-02    0.117E-02
DAV:  23    -0.931634534137E+03   -0.52652E-03   -0.16553E-05  2724   0.523E-03    0.782E-03
DAV:  24    -0.931635818423E+03   -0.12843E-02   -0.65635E-05  3048   0.523E-03    0.579E-03
DAV:  25    -0.931636607830E+03   -0.78941E-03   -0.48309E-05  3132   0.412E-03    0.417E-03
DAV:  26    -0.931637236297E+03   -0.62847E-03   -0.51794E-05  2880   0.377E-03    0.248E-03
DAV:  27    -0.931637355713E+03   -0.11942E-03   -0.51326E-06  2652   0.169E-03    0.135E-03
DAV:  28    -0.931637434024E+03   -0.78311E-04   -0.33784E-06  2364   0.124E-03    0.775E-04
DAV:  29    -0.931637471837E+03   -0.37813E-04   -0.16895E-06  2364   0.880E-04    0.552E-04
DAV:  30    -0.931637480822E+03   -0.89848E-05   -0.36179E-07  1968   0.565E-04    0.473E-04
DAV:  31    -0.931637483618E+03   -0.27967E-05   -0.13637E-07  1848   0.402E-04
   1 F= -.93163748E+03 E0= -.93160235E+03  d E =-.702599E-01
