 vasp.5.4.4.18Apr17-6-g9f103f2a35 (build May 02 2017 15:33:50) complex          
  
 executed on Intel-16.0.3.210-OMP date 2018.08.08  20:37:13
 running on    6 total cores
 distrk:  each k-point on    6 cores,    1 groups
 distr:  one band on NCORES_PER_BAND=   1 cores,    6 groups


--------------------------------------------------------------------------------------------------------


 INCAR:
 POTCAR:    PAW Al_GW 19Mar2012                   
 POTCAR:    PAW_PBE N 08Apr2002                   

 ----------------------------------------------------------------------------- 
|                                                                             |
|           W    W    AA    RRRRR   N    N  II  N    N   GGGG   !!!           |
|           W    W   A  A   R    R  NN   N  II  NN   N  G    G  !!!           |
|           W    W  A    A  R    R  N N  N  II  N N  N  G       !!!           |
|           W WW W  AAAAAA  RRRRR   N  N N  II  N  N N  G  GGG   !            |
|           WW  WW  A    A  R   R   N   NN  II  N   NN  G    G                |
|           W    W  A    A  R    R  N    N  II  N    N   GGGG   !!!           |
|                                                                             |
|      For optimal performance we recommend to set                            |
|        NCORE= 4 - approx SQRT( number of cores)                             |
|      NCORE specifies how many cores store one orbital (NPAR=cpu/NCORE).     |
|      This setting can  greatly improve the performance of VASP for DFT.     |
|      The default,   NCORE=1            might be grossly inefficient         |
|      on modern multi-core architectures or massively parallel machines.     |
|      Do your own testing !!!!                                               |
|      Unfortunately you need to use the default for GW and RPA calculations. |
|      (for HF NCORE is supported but not extensively tested yet)             |
|                                                                             |
 ----------------------------------------------------------------------------- 

 POTCAR:    PAW Al_GW 19Mar2012                   
   VRHFIN =Al: s2p1                                                             
   LEXCH  = PE                                                                  
   EATOM  =    53.5387 eV,    3.9350 Ry                                         
                                                                                
   TITEL  = PAW Al_GW 19Mar2012                                                 
   LULTRA =        F    use ultrasoft PP ?                                      
   IUNSCR =        1    unscreen: 0-lin 1-nonlin 2-no                           
   RPACOR =    1.500    partial core radius                                     
   POMASS =   26.982; ZVAL   =    3.000    mass and valenz                      
   RCORE  =    2.000    outmost cutoff radius                                   
   RWIGS  =    2.000; RWIGS  =    1.058    wigner-seitz radius (au A)           
   ENMAX  =  240.300; ENMIN  =  180.225 eV                                      
   ICORE  =        3    local potential                                         
   LCOR   =        T    correct aug charges                                     
   LPAW   =        T    paw PP                                                  
   EAUG   =  482.059                                                            
   DEXC   =    0.000                                                            
   RMAX   =    2.051    core radius for proj-oper                               
   RAUG   =    1.300    factor for augmentation sphere                          
   RDEP   =    2.096    radius for radial grids                                 
   RDEPT  =    1.856    core radius for aug-charge                              
                                                                                
   Atomic configuration                                                         
    7 entries                                                                   
     n  l   j            E        occ.                                          
     1  0  0.50     -1511.1048   2.0000                                         
     2  0  0.50      -108.1629   2.0000                                         
     2  1  1.50       -69.6402   6.0000                                         
     3  0  0.50        -7.7528   2.0000                                         
     3  1  1.50        -2.7121   1.0000                                         
     3  2  2.50        -2.7212   0.0000                                         
     4  3  2.50        -2.7212   0.0000                                         
   Description                                                                  
     l       E           TYP  RCUT    TYP  RCUT                                 
     0     -7.7528455     23  1.900                                             
     0     68.0291300     23  1.900                                             
     1     -2.7120682     23  1.900                                             
     1     68.0291300     23  1.900                                             
     2     -1.3605826     23  1.900                                             
     2     81.6349560     23  1.900                                             
     3     74.8320430     23  2.000                                             
  local pseudopotential read in
  partial core-charges read in
  partial kinetic energy density read in
  kinetic energy density of atom read in
  atomic valenz-charges read in
  non local Contribution for L=           0  read in
    real space projection operators read in
  non local Contribution for L=           0  read in
    real space projection operators read in
  non local Contribution for L=           1  read in
    real space projection operators read in
  non local Contribution for L=           1  read in
    real space projection operators read in
  non local Contribution for L=           2  read in
    real space projection operators read in
  non local Contribution for L=           2  read in
    real space projection operators read in
    PAW grid and wavefunctions read in
 
   number of l-projection  operators is LMAX  =           6
   number of lm-projection operators is LMMAX =          18
 
 POTCAR:    PAW_PBE N 08Apr2002                   
   VRHFIN =N: s2p3                                                              
   LEXCH  = PE                                                                  
   EATOM  =   264.5486 eV,   19.4438 Ry                                         
                                                                                
   TITEL  = PAW_PBE N 08Apr2002                                                 
   LULTRA =        F    use ultrasoft PP ?                                      
   IUNSCR =        1    unscreen: 0-lin 1-nonlin 2-no                           
   RPACOR =    1.200    partial core radius                                     
   POMASS =   14.001; ZVAL   =    5.000    mass and valenz                      
   RCORE  =    1.500    outmost cutoff radius                                   
   RWIGS  =    1.400; RWIGS  =    0.741    wigner-seitz radius (au A)           
   ENMAX  =  400.000; ENMIN  =  300.000 eV                                      
   ICORE  =        2    local potential                                         
   LCOR   =        T    correct aug charges                                     
   LPAW   =        T    paw PP                                                  
   EAUG   =  627.112                                                            
   DEXC   =    0.000                                                            
   RMAX   =    1.529    core radius for proj-oper                               
   RAUG   =    1.300    factor for augmentation sphere                          
   RDEP   =    1.514    radius for radial grids                                 
   RDEPT  =    1.338    core radius for aug-charge                              
                                                                                
   Atomic configuration                                                         
    4 entries                                                                   
     n  l   j            E        occ.                                          
     1  0  0.50      -384.7179   2.0000                                         
     2  0  0.50       -18.5828   2.0000                                         
     2  1  0.50        -7.0898   3.0000                                         
     3  2  1.50        -6.8029   0.0000                                         
   Description                                                                  
     l       E           TYP  RCUT    TYP  RCUT                                 
     0    -18.5828119     23  1.200                                             
     0    -13.5018863     23  1.200                                             
     1     -7.0897853     23  1.500                                             
     1      9.5240782     23  1.500                                             
     2     -6.8029130      7  1.500                                             
  local pseudopotential read in
  partial core-charges read in
  partial kinetic energy density read in
  atomic valenz-charges read in
  non local Contribution for L=           0  read in
    real space projection operators read in
  non local Contribution for L=           0  read in
    real space projection operators read in
  non local Contribution for L=           1  read in
    real space projection operators read in
  non local Contribution for L=           1  read in
    real space projection operators read in
    PAW grid and wavefunctions read in
 
   number of l-projection  operators is LMAX  =           4
   number of lm-projection operators is LMMAX =           8
 
 Optimization of the real space projectors (new method)

 maximal supplied QI-value         = 18.90
 optimisation between [QCUT,QGAM] = [  8.69, 17.57] = [ 21.16, 86.49] Ry 
 Optimized for a Real-space Cutoff    1.59 Angstroem

   l    n(q)    QCUT    max X(q) W(low)/X(q) W(high)/X(q)  e(spline) 
   0      8     8.693    11.519    0.12E-03    0.31E-04    0.21E-06
   0      8     8.693     5.834    0.89E-04    0.32E-04    0.16E-06
   1      8     8.693    10.132    0.25E-03    0.39E-03    0.25E-06
   1      8     8.693     3.004    0.16E-03    0.27E-03    0.22E-06
   2      7     8.693     3.169    0.39E-03    0.93E-03    0.44E-06
   2      7     8.693     1.605    0.70E-04    0.91E-04    0.19E-06
 Optimization of the real space projectors (new method)

 maximal supplied QI-value         = 25.13
 optimisation between [QCUT,QGAM] = [  8.80, 17.59] = [ 21.67, 86.68] Ry 
 Optimized for a Real-space Cutoff    2.14 Angstroem

   l    n(q)    QCUT    max X(q) W(low)/X(q) W(high)/X(q)  e(spline) 
   0     11     8.797    79.467    0.70E-04    0.19E-04    0.19E-05
   0     11     8.797    66.151    0.68E-04    0.18E-04    0.19E-05
   1     11     8.797     6.738    0.26E-03    0.11E-02    0.73E-05
   1     11     8.797     5.013    0.25E-03    0.11E-02    0.72E-05
  PAW Al_GW 19Mar2012                   :
 energy of atom  1       EATOM=  -53.5387
 kinetic energy error for atom=    0.0011 (will be added to EATOM!!)
  PAW_PBE N 08Apr2002                   :
 energy of atom  2       EATOM= -264.5486
 kinetic energy error for atom=    0.6882 (will be added to EATOM!!)
 
 
 POSCAR: New structure                           
  positions in cartesian coordinates
  No initial velocities read in
 exchange correlation table for  LEXCH =        8
   RHO(1)=    0.500       N(1)  =     2000
   RHO(2)=  100.500       N(2)  =     4000
 


--------------------------------------------------------------------------------------------------------


 ion  position               nearest neighbor table
   1  0.444  0.444  0.079-
   2  0.444  0.778  0.079-
   3  0.444  0.111  0.079-
   4  0.778  0.444  0.079-
   5  0.778  0.778  0.079-
   6  0.778  0.111  0.079-
   7  0.111  0.444  0.079-
   8  0.111  0.778  0.079-
   9  0.111  0.111  0.079-
  10  0.556  0.556  0.157-
  11  0.556  0.889  0.157-
  12  0.556  0.222  0.157-
  13  0.889  0.556  0.157-
  14  0.889  0.889  0.157-
  15  0.889  0.222  0.157-
  16  0.222  0.556  0.157-
  17  0.222  0.889  0.157-
  18  0.222  0.222  0.157-
  19  0.667  0.667  0.234-
  20  0.667  0.000  0.234-
  21  0.667  0.333  0.234-
  22  0.000  0.667  0.234-
  23  0.000  0.000  0.234-
  24  0.000  0.333  0.234-
  25  0.333  0.667  0.234-
  26  0.333  0.000  0.234-
  27  0.333  0.333  0.234-
  28  0.778  0.778  0.312-
  29  0.778  0.111  0.312-
  30  0.778  0.444  0.312-
  31  0.111  0.778  0.312-
  32  0.111  0.111  0.312-
  33  0.111  0.444  0.312-
  34  0.444  0.778  0.312-
  35  0.444  0.111  0.312-
  36  0.444  0.444  0.312-
  37  0.889  0.889  0.390-
  38  0.889  0.222  0.390-
  39  0.889  0.556  0.390-
  40  0.222  0.889  0.390-
  41  0.222  0.222  0.390-
  42  0.222  0.556  0.390-
  43  0.556  0.889  0.390-
  44  0.556  0.222  0.390-
  45  0.556  0.556  0.390-
  46  0.000  0.000  0.466-
  47  0.000  0.333  0.466-
  48  0.000  0.667  0.466-
  49  0.333  0.000  0.466-
  50  0.333  0.333  0.466-
  51  0.333  0.667  0.466-
  52  0.667  0.000  0.466-
  53  0.667  0.333  0.466-
  54  0.667  0.667  0.466-
  55  0.111  0.111  0.545-
  56  0.111  0.444  0.545-
  57  0.111  0.778  0.545-
  58  0.444  0.111  0.545-
  59  0.444  0.444  0.545- 253 1.95 254 1.95
  60  0.444  0.778  0.545-
  61  0.778  0.111  0.545-
  62  0.778  0.444  0.545-
  63  0.778  0.778  0.545-
  64  0.278  0.278  0.079-
  65  0.278  0.611  0.079-
  66  0.278  0.944  0.079-
  67  0.611  0.278  0.079-
  68  0.611  0.611  0.079-
  69  0.611  0.944  0.079-
  70  0.944  0.278  0.079-
  71  0.944  0.611  0.079-
  72  0.944  0.944  0.079-
  73  0.389  0.389  0.157-
  74  0.389  0.722  0.157-
  75  0.389  0.056  0.157-
  76  0.722  0.389  0.157-
  77  0.722  0.722  0.157-
  78  0.722  0.056  0.157-
  79  0.056  0.389  0.157-
  80  0.056  0.722  0.157-
  81  0.056  0.056  0.157-
  82  0.500  0.500  0.234-
  83  0.500  0.833  0.234-
  84  0.500  0.167  0.234-
  85  0.833  0.500  0.234-
  86  0.833  0.833  0.234-
  87  0.833  0.167  0.234-
  88  0.167  0.500  0.234-
  89  0.167  0.833  0.234-
  90  0.167  0.167  0.234-
  91  0.611  0.611  0.312-
  92  0.611  0.944  0.312-
  93  0.611  0.278  0.312-
  94  0.944  0.611  0.312-
  95  0.944  0.944  0.312-
  96  0.944  0.278  0.312-
  97  0.278  0.611  0.312-
  98  0.278  0.944  0.312-
  99  0.278  0.278  0.312-
 100  0.722  0.722  0.390-
 101  0.722  0.056  0.390-
 102  0.722  0.389  0.390-
 103  0.056  0.722  0.390-
 104  0.056  0.056  0.390-
 105  0.056  0.389  0.390-
 106  0.389  0.722  0.390-
 107  0.389  0.056  0.390-
 108  0.389  0.389  0.390-
 109  0.833  0.833  0.466-
 110  0.833  0.167  0.466-
 111  0.833  0.500  0.466-
 112  0.167  0.833  0.466-
 113  0.167  0.167  0.466-
 114  0.167  0.500  0.466-
 115  0.500  0.833  0.466-
 116  0.500  0.167  0.466-
 117  0.500  0.500  0.466-
 118  0.944  0.944  0.545-
 119  0.944  0.278  0.545-
 120  0.944  0.611  0.545-
 121  0.278  0.944  0.545-
 122  0.278  0.278  0.545-
 123  0.278  0.611  0.545-
 124  0.611  0.944  0.545-
 125  0.611  0.278  0.545-
 126  0.611  0.611  0.545-
 127  0.278  0.444  0.079-
 128  0.278  0.778  0.079-
 129  0.278  0.111  0.079-
 130  0.611  0.444  0.079-
 131  0.611  0.778  0.079-
 132  0.611  0.111  0.079-
 133  0.944  0.444  0.079-
 134  0.944  0.778  0.079-
 135  0.944  0.111  0.079-
 136  0.389  0.556  0.157-
 137  0.389  0.889  0.157-
 138  0.389  0.222  0.157-
 139  0.722  0.556  0.157-
 140  0.722  0.889  0.157-
 141  0.722  0.222  0.157-
 142  0.056  0.556  0.157-
 143  0.056  0.889  0.157-
 144  0.056  0.222  0.157-
 145  0.500  0.667  0.234-
 146  0.500  0.000  0.234-
 147  0.500  0.333  0.234-
 148  0.833  0.667  0.234-
 149  0.833  0.000  0.234-
 150  0.833  0.333  0.234-
 151  0.167  0.667  0.234-
 152  0.167  0.000  0.234-
 153  0.167  0.333  0.234-
 154  0.611  0.778  0.312-
 155  0.611  0.111  0.312-
 156  0.611  0.444  0.312-
 157  0.944  0.778  0.312-
 158  0.944  0.111  0.312-
 159  0.944  0.444  0.312-
 160  0.278  0.778  0.312-
 161  0.278  0.111  0.312-
 162  0.278  0.444  0.312-
 163  0.722  0.889  0.390-
 164  0.722  0.222  0.390-
 165  0.722  0.556  0.390-
 166  0.056  0.889  0.390-
 167  0.056  0.222  0.390-
 168  0.056  0.556  0.390-
 169  0.389  0.889  0.390-
 170  0.389  0.222  0.390-
 171  0.389  0.556  0.390-
 172  0.833  0.000  0.466-
 173  0.833  0.333  0.466-
 174  0.833  0.667  0.466-
 175  0.167  0.000  0.466-
 176  0.167  0.333  0.466-
 177  0.167  0.667  0.466-
 178  0.500  0.000  0.466-
 179  0.500  0.333  0.466-
 180  0.500  0.667  0.466-
 181  0.944  0.111  0.545-
 182  0.944  0.444  0.545-
 183  0.944  0.778  0.545-
 184  0.278  0.111  0.545-
 185  0.278  0.444  0.545- 253 1.95 254 1.95
 186  0.278  0.778  0.545-
 187  0.611  0.111  0.545-
 188  0.611  0.444  0.545-
 189  0.611  0.778  0.545-
 190  0.444  0.278  0.079-
 191  0.444  0.611  0.079-
 192  0.444  0.944  0.079-
 193  0.778  0.278  0.079-
 194  0.778  0.611  0.079-
 195  0.778  0.944  0.079-
 196  0.111  0.278  0.079-
 197  0.111  0.611  0.079-
 198  0.111  0.944  0.079-
 199  0.556  0.389  0.157-
 200  0.556  0.722  0.157-
 201  0.556  0.056  0.157-
 202  0.889  0.389  0.157-
 203  0.889  0.722  0.157-
 204  0.889  0.056  0.157-
 205  0.222  0.389  0.157-
 206  0.222  0.722  0.157-
 207  0.222  0.056  0.157-
 208  0.667  0.500  0.234-
 209  0.667  0.833  0.234-
 210  0.667  0.167  0.234-
 211  1.000  0.500  0.234-
 212  1.000  0.833  0.234-
 213  1.000  0.167  0.234-
 214  0.333  0.500  0.234-
 215  0.333  0.833  0.234-
 216  0.333  0.167  0.234-
 217  0.778  0.611  0.312-
 218  0.778  0.944  0.312-
 219  0.778  0.278  0.312-
 220  0.111  0.611  0.312-
 221  0.111  0.944  0.312-
 222  0.111  0.278  0.312-
 223  0.444  0.611  0.312-
 224  0.444  0.944  0.312-
 225  0.444  0.278  0.312-
 226  0.889  0.722  0.390-
 227  0.889  0.056  0.390-
 228  0.889  0.389  0.390-
 229  0.222  0.722  0.390-
 230  0.222  0.056  0.390-
 231  0.222  0.389  0.390-
 232  0.556  0.722  0.390-
 233  0.556  0.056  0.390-
 234  0.556  0.389  0.390-
 235  1.000  0.833  0.466-
 236  1.000  0.167  0.466-
 237  1.000  0.500  0.466-
 238  0.333  0.833  0.466-
 239  0.333  0.167  0.466-
 240  0.333  0.500  0.466-
 241  0.667  0.833  0.466-
 242  0.667  0.167  0.466-
 243  0.667  0.500  0.466-
 244  0.111  0.944  0.545-
 245  0.111  0.278  0.545-
 246  0.111  0.611  0.545-
 247  0.444  0.944  0.545-
 248  0.444  0.278  0.545-
 249  0.444  0.611  0.545-
 250  0.778  0.944  0.545-
 251  0.778  0.278  0.545-
 252  0.778  0.611  0.545-
 253  0.343  0.481  0.585- 254 1.10 185 1.95  59 1.95
 254  0.380  0.407  0.585- 253 1.10 185 1.95  59 1.95
 
  LATTYP: Found a hexagonal cell.
 ALAT       =    17.1805734625
 C/A-ratio  =     1.7461582447
  
  Lattice vectors:
  
 A1 = (   0.0000000000,  -8.5902867312,  14.8788130701)
 A2 = (   0.0000000000,  17.1805734625,   0.0000000000)
 A3 = ( -30.0000000000,   0.0000000000,   0.0000000000)


Analysis of symmetry for initial positions (statically):
=====================================================================
 Subroutine PRICEL returns:
 Original cell was already a primitive cell.
 

 Routine SETGRP: Setting up the symmetry group for a 
 hexagonal supercell.


 Subroutine GETGRP returns: Found  2 space group operations
 (whereof  1 operations were pure point group operations)
 out of a pool of 24 trial point group operations.


The static configuration has the point symmetry C_1 .
 The point group associated with its full space group is C_1h.


Analysis of symmetry for dynamics (positions and initial velocities):
=====================================================================
 Subroutine PRICEL returns:
 Original cell was already a primitive cell.
 

 Routine SETGRP: Setting up the symmetry group for a 
 hexagonal supercell.


 Subroutine GETGRP returns: Found  2 space group operations
 (whereof  1 operations were pure point group operations)
 out of a pool of 24 trial point group operations.


The dynamic configuration has the point symmetry C_1 .
 The point group associated with its full space group is C_1h.


 Subroutine INISYM returns: Found  2 space group operations
 (whereof  1 operations are pure point group operations),
 and found     1 'primitive' translations

 
 
 KPOINTS: Automatic generation                    

Automatic generation of k-mesh.
Space group operators:
 irot       det(A)        alpha          n_x          n_y          n_z        tau_x        tau_y        tau_z
    1     1.000000     0.000000     1.000000     0.000000     0.000000     0.000000     0.000000     0.000000
    2    -1.000000   180.000000     0.000000     1.000000     0.000000    -0.833333     0.000000     0.000000
 
 Subroutine IBZKPT returns following result:
 ===========================================
 
 Found      3 irreducible k-points:
 
 Following reciprocal coordinates:
            Coordinates               Weight
  0.000000  0.000000  0.000000      1.000000
  0.500000  0.000000  0.000000      2.000000
  0.000000  0.500000  0.000000      1.000000
 
 Following cartesian coordinates:
            Coordinates               Weight
  0.000000  0.000000  0.000000      1.000000
  0.000000 -0.029103  0.016802      2.000000
  0.000000  0.000000 -0.033605      1.000000
 


--------------------------------------------------------------------------------------------------------




 Dimension of arrays:
   k-points           NKPTS =      3   k-points in BZ     NKDIM =      3   number of bands    NBANDS=    516
   number of dos      NEDOS =    301   number of ions     NIONS =    254
   non local maximal  LDIM  =      6   non local SUM 2l+1 LMDIM =     18
   total plane-waves  NPLWV = 819200
   max r-space proj   IRMAX =   4449   max aug-charges    IRDMAX=   4357
   dimension x,y,z NGX =    80 NGY =   80 NGZ =  128
   dimension x,y,z NGXF=   160 NGYF=  160 NGZF=  256
   support grid    NGXF=   160 NGYF=  160 NGZF=  256
   ions per type =             252   2
   NGX,Y,Z   is equivalent  to a cutoff of   7.74,  7.74,  7.09 a.u.
   NGXF,Y,Z  is equivalent  to a cutoff of  15.48, 15.48, 14.19 a.u.

 SYSTEM =  NiAl                                    
 POSCAR =  New structure                           

 Startparameter for this run:
   NWRITE =      2    write-flag & timer
   PREC   = normal    normal or accurate (medium, high low for compatibility)
   ISTART =      0    job   : 0-new  1-cont  2-samecut
   ICHARG =      2    charge: 1-file 2-atom 10-const
   ISPIN  =      1    spin polarized calculation?
   LNONCOLLINEAR =      F non collinear calculations
   LSORBIT =      F    spin-orbit coupling
   INIWAV =      1    electr: 0-lowe 1-rand  2-diag
   LASPH  =      F    aspherical Exc in radial PAW
   METAGGA=      F    non-selfconsistent MetaGGA calc.

 Electronic Relaxation 1
   ENCUT  =  300.0 eV  22.05 Ry    4.70 a.u.  24.26 24.26 42.37*2*pi/ulx,y,z
   ENINI  =  300.0     initial cutoff
   ENAUG  =  627.1 eV  augmentation charge cutoff
   NELM   =     60;   NELMIN=  6; NELMDL= -5     # of ELM steps 
   EDIFF  = 0.5E-05   stopping-criterion for ELM
   LREAL  =      T    real-space projection
   NLSPLINE    = F    spline interpolate recip. space projectors
   LCOMPAT=      F    compatible to vasp.4.4
   GGA_COMPAT  = T    GGA compatible to vasp.4.4-vasp.4.6
   LMAXPAW     = -100 max onsite density
   LMAXMIX     =    2 max onsite mixed and CHGCAR
   VOSKOWN=      0    Vosko Wilk Nusair interpolation
   ROPT   =   -0.00050  -0.00050
 Ionic relaxation
   EDIFFG = 0.5E-04   stopping-criterion for IOM
   NSW    =      0    number of steps for IOM
   NBLOCK =      1;   KBLOCK =      1    inner block; outer block 
   IBRION =     -1    ionic relax: 0-MD 1-quasi-New 2-CG
   NFREE  =      0    steps in history (QN), initial steepest desc. (CG)
   ISIF   =      0    stress and relaxation
   IWAVPR =     10    prediction:  0-non 1-charg 2-wave 3-comb
   ISYM   =      2    0-nonsym 1-usesym 2-fastsym
   LCORR  =      T    Harris-Foulkes like correction to forces

   POTIM  = 0.5000    time-step for ionic-motion
   TEIN   =    0.0    initial temperature
   TEBEG  =    0.0;   TEEND  =   0.0 temperature during run
   SMASS  =  -3.00    Nose mass-parameter (am)
   estimated Nose-frequenzy (Omega)   =  0.10E-29 period in steps =****** mass=  -0.675E-26a.u.
   SCALEE = 1.0000    scale energy and forces
   NPACO  =    256;   APACO  = 16.0  distance and # of slots for P.C.
   PSTRESS=    0.0 pullay stress

  Mass of Ions in am
   POMASS =  26.98 14.00
  Ionic Valenz
   ZVAL   =   3.00  5.00
  Atomic Wigner-Seitz radii
   RWIGS  =  -1.00 -1.00
  virtual crystal weights 
   VCA    =   1.00  1.00
   NELECT =     766.0000    total number of electrons
   NUPDOWN=      -1.0000    fix difference up-down

 DOS related values:
   EMIN   =  10.00;   EMAX   =-10.00  energy-range for DOS
   EFERMI =   0.00
   ISMEAR =     0;   SIGMA  =   0.05  broadening in eV -4-tet -1-fermi 0-gaus

 Electronic relaxation 2 (details)
   IALGO  =     38    algorithm
   LDIAG  =      T    sub-space diagonalisation (order eigenvalues)
   LSUBROT=      F    optimize rotation matrix (better conditioning)
   TURBO    =      0    0=normal 1=particle mesh
   IRESTART =      0    0=no restart 2=restart with 2 vectors
   NREBOOT  =      0    no. of reboots
   NMIN     =      0    reboot dimension
   EREF     =   0.00    reference energy to select bands
   IMIX   =      4    mixing-type and parameters
     AMIX     =   0.40;   BMIX     =  1.00
     AMIX_MAG =   1.60;   BMIX_MAG =  1.00
     AMIN     =   0.10
     WC   =   100.;   INIMIX=   1;  MIXPRE=   1;  MAXMIX= -45

 Intra band minimization:
   WEIMIN = 0.0000     energy-eigenvalue tresh-hold
   EBREAK =  0.24E-08  absolut break condition
   DEPER  =   0.30     relativ break condition  

   TIME   =   0.40     timestep for ELM

  volume/ion in A,a.u.               =      30.19       203.75
  Fermi-wavevector in a.u.,A,eV,Ry     =   0.759583  1.435404  7.850108  0.576967
  Thomas-Fermi vector in A             =   1.858410
 
 Write flags
   LWAVE        =      F    write WAVECAR
   LDOWNSAMPLE  =      F    k-point downsampling of WAVECAR
   LCHARG       =      F    write CHGCAR
   LVTOT        =      F    write LOCPOT, total local potential
   LVHAR        =      F    write LOCPOT, Hartree potential only
   LELF         =      F    write electronic localiz. function (ELF)
   LORBIT       =      0    0 simple, 1 ext, 2 COOP (PROOUT), +10 PAW based schemes


 Dipole corrections
   LMONO  =      F    monopole corrections only (constant potential shift)
   LDIPOL =      F    correct potential (dipole corrections)
   IDIPOL =      0    1-x, 2-y, 3-z, 4-all directions 
   EPSILON=  1.0000000 bulk dielectric constant

 Exchange correlation treatment:
   GGA     =    --    GGA type
   LEXCH   =     8    internal setting for exchange type
   VOSKOWN=      0    Vosko Wilk Nusair interpolation
   LHFCALC =     F    Hartree Fock is set to
   LHFONE  =     F    Hartree Fock one center treatment
   AEXX    =    0.0000 exact exchange contribution

 Linear response parameters
   LEPSILON=     F    determine dielectric tensor
   LRPA    =     F    only Hartree local field effects (RPA)
   LNABLA  =     F    use nabla operator in PAW spheres
   LVEL    =     F    velocity operator in full k-point grid
   LINTERFAST=   F  fast interpolation
   KINTER  =     0    interpolate to denser k-point grid
   CSHIFT  =0.1000    complex shift for real part using Kramers Kronig
   OMEGAMAX=  -1.0    maximum frequency
   DEG_THRESHOLD= 0.2000000E-02 threshold for treating states as degnerate
   RTIME   =   -0.100 relaxation time in fs
  (WPLASMAI=    0.000 imaginary part of plasma frequency in eV, 0.658/RTIME)
   DFIELD  = 0.0000000 0.0000000 0.0000000 field for delta impulse in time
 
 Orbital magnetization related:
   ORBITALMAG=     F  switch on orbital magnetization
   LCHIMAG   =     F  perturbation theory with respect to B field
   DQ        =  0.001000  dq finite difference perturbation B field
   LLRAUG    =     F  two centre corrections for induced B field



--------------------------------------------------------------------------------------------------------


 Static calculation
 charge density and potential will be updated during run
 non-spin polarized calculation
 Variant of blocked Davidson
 Davidson routine will perform the subspace rotation
 perform sub-space diagonalisation
    after iterative eigenvector-optimisation
 modified Broyden-mixing scheme, WC =      100.0
 initial mixing is a Kerker type mixing with AMIX =  0.4000 and BMIX =      1.0000
 Hartree-type preconditioning will be used
 using additional bands          133
 real space projection scheme for non local part
 use partial core corrections
 calculate Harris-corrections to forces 
   (improved forces if not selfconsistent)
 use gradient corrections 
 use of overlap-Matrix (Vanderbilt PP)
 Gauss-broadening in eV      SIGMA  =   0.05


--------------------------------------------------------------------------------------------------------


  energy-cutoff  :      300.00
  volume of cell :     7668.80
      direct lattice vectors                 reciprocal lattice vectors
     0.000000000-17.180573462  0.000000000     0.000000000 -0.058205275  0.033604831
     0.000000000 -8.590286731-14.878813070     0.000000000  0.000000000 -0.067209662
    30.000000000  0.000000000  0.000000000     0.033333333  0.000000000  0.000000000

  length of vectors
    17.180573462 17.180573462 30.000000000     0.067209662  0.067209662  0.033333333


 
 k-points in units of 2pi/SCALE and weight: Automatic generation                    
   0.00000000  0.00000000  0.00000000       0.250
   0.00000000 -0.02910264  0.01680242       0.500
   0.00000000  0.00000000 -0.03360483       0.250
 
 k-points in reciprocal lattice and weights: Automatic generation                    
   0.00000000  0.00000000  0.00000000       0.250
   0.50000000  0.00000000  0.00000000       0.500
   0.00000000  0.50000000  0.00000000       0.250
 
 position of ions in fractional coordinates (direct lattice) 
   0.44444456  0.44444473  0.07873467
   0.44444419  0.77777777  0.07873467
   0.44444468  0.11111101  0.07873467
   0.77777744  0.44444473  0.07873467
   0.77777765  0.77777777  0.07873467
   0.77777756  0.11111101  0.07873467
   0.11111110  0.44444473  0.07873467
   0.11111131  0.77777777  0.07873467
   0.11111122  0.11111101  0.07873467
   0.55555520  0.55555574  0.15702600
   0.55555541  0.88888878  0.15702600
   0.55555591  0.22222203  0.15702600
   0.88888866  0.55555574  0.15702600
   0.88888887  0.88888878  0.15702600
   0.88888878  0.22222203  0.15702600
   0.22222232  0.55555574  0.15702600
   0.22222253  0.88888878  0.15702600
   0.22222245  0.22222203  0.15702600
   0.66666642  0.66666675  0.23375733
   0.66666692  0.00000000  0.23375733
   0.66666655  0.33333304  0.23375733
   0.00000008  0.66666675  0.23375733
   0.00000000  0.00000000  0.23375733
   0.00000021  0.33333304  0.23375733
   0.33333354  0.66666675  0.23375733
   0.33333346  0.00000000  0.23375733
   0.33333367  0.33333304  0.23375733
   0.77777765  0.77777777  0.31173067
   0.77777756  0.11111101  0.31173067
   0.77777744  0.44444473  0.31173067
   0.11111131  0.77777777  0.31173067
   0.11111122  0.11111101  0.31173067
   0.11111110  0.44444473  0.31173067
   0.44444419  0.77777777  0.31173067
   0.44444468  0.11111101  0.31173067
   0.44444456  0.44444473  0.31173067
   0.88888887  0.88888878  0.38970400
   0.88888878  0.22222203  0.38970400
   0.88888866  0.55555574  0.38970400
   0.22222253  0.88888878  0.38970400
   0.22222245  0.22222203  0.38970400
   0.22222232  0.55555574  0.38970400
   0.55555541  0.88888878  0.38970400
   0.55555591  0.22222203  0.38970400
   0.55555520  0.55555574  0.38970400
   0.00000000  0.00000000  0.46643533
   0.00000021  0.33333304  0.46643533
   0.00000008  0.66666675  0.46643533
   0.33333346  0.00000000  0.46643533
   0.33333367  0.33333304  0.46643533
   0.33333354  0.66666675  0.46643533
   0.66666692  0.00000000  0.46643533
   0.66666655  0.33333304  0.46643533
   0.66666642  0.66666675  0.46643533
   0.11111122  0.11111101  0.54472667
   0.11111110  0.44444473  0.54472667
   0.11111131  0.77777777  0.54472667
   0.44444468  0.11111101  0.54472667
   0.44444456  0.44444473  0.54472667
   0.44444419  0.77777777  0.54472667
   0.77777756  0.11111101  0.54472667
   0.77777744  0.44444473  0.54472667
   0.77777765  0.77777777  0.54472667
   0.27777777  0.27777753  0.07873467
   0.27777764  0.61111125  0.07873467
   0.27777785  0.94444429  0.07873467
   0.61111123  0.27777753  0.07873467
   0.61111110  0.61111125  0.07873467
   0.61111131  0.94444429  0.07873467
   0.94444469  0.27777753  0.07873467
   0.94444456  0.61111125  0.07873467
   0.94444477  0.94444429  0.07873467
   0.38888865  0.38888922  0.15702600
   0.38888886  0.72222226  0.15702600
   0.38888878  0.05555551  0.15702600
   0.72222211  0.38888922  0.15702600
   0.72222232  0.72222226  0.15702600
   0.72222224  0.05555551  0.15702600
   0.05555519  0.38888922  0.15702600
   0.05555540  0.72222226  0.15702600
   0.05555532  0.05555551  0.15702600
   0.49999988  0.50000023  0.23375733
   0.50000009  0.83333327  0.23375733
   0.50000000  0.16666652  0.23375733
   0.83333334  0.50000023  0.23375733
   0.83333355  0.83333327  0.23375733
   0.83333346  0.16666652  0.23375733
   0.16666642  0.50000023  0.23375733
   0.16666663  0.83333327  0.23375733
   0.16666654  0.16666652  0.23375733
   0.61111110  0.61111125  0.31173067
   0.61111131  0.94444429  0.31173067
   0.61111123  0.27777753  0.31173067
   0.94444456  0.61111125  0.31173067
   0.94444477  0.94444429  0.31173067
   0.94444469  0.27777753  0.31173067
   0.27777764  0.61111125  0.31173067
   0.27777785  0.94444429  0.31173067
   0.27777777  0.27777753  0.31173067
   0.72222232  0.72222226  0.38970400
   0.72222224  0.05555551  0.38970400
   0.72222211  0.38888922  0.38970400
   0.05555540  0.72222226  0.38970400
   0.05555532  0.05555551  0.38970400
   0.05555519  0.38888922  0.38970400
   0.38888886  0.72222226  0.38970400
   0.38888878  0.05555551  0.38970400
   0.38888865  0.38888922  0.38970400
   0.83333355  0.83333327  0.46643533
   0.83333346  0.16666652  0.46643533
   0.83333334  0.50000023  0.46643533
   0.16666663  0.83333327  0.46643533
   0.16666654  0.16666652  0.46643533
   0.16666642  0.50000023  0.46643533
   0.50000009  0.83333327  0.46643533
   0.50000000  0.16666652  0.46643533
   0.49999988  0.50000023  0.46643533
   0.94444477  0.94444429  0.54472667
   0.94444469  0.27777753  0.54472667
   0.94444456  0.61111125  0.54472667
   0.27777785  0.94444429  0.54472667
   0.27777777  0.27777753  0.54472667
   0.27777764  0.61111125  0.54472667
   0.61111131  0.94444429  0.54472667
   0.61111123  0.27777753  0.54472667
   0.61111110  0.61111125  0.54472667
   0.27777783  0.44444473  0.07873467
   0.27777804  0.77777777  0.07873467
   0.27777795  0.11111101  0.07873467
   0.61111071  0.44444473  0.07873467
   0.61111092  0.77777777  0.07873467
   0.61111141  0.11111101  0.07873467
   0.94444417  0.44444473  0.07873467
   0.94444438  0.77777777  0.07873467
   0.94444429  0.11111101  0.07873467
   0.38888905  0.55555574  0.15702600
   0.38888868  0.88888878  0.15702600
   0.38888918  0.22222203  0.15702600
   0.72222193  0.55555574  0.15702600
   0.72222214  0.88888878  0.15702600
   0.72222205  0.22222203  0.15702600
   0.05555559  0.55555574  0.15702600
   0.05555580  0.88888878  0.15702600
   0.05555572  0.22222203  0.15702600
   0.49999969  0.66666675  0.23375733
   0.50000019  0.00000000  0.23375733
   0.50000040  0.33333304  0.23375733
   0.83333315  0.66666675  0.23375733
   0.83333307  0.00000000  0.23375733
   0.83333328  0.33333304  0.23375733
   0.16666681  0.66666675  0.23375733
   0.16666673  0.00000000  0.23375733
   0.16666694  0.33333304  0.23375733
   0.61111092  0.77777777  0.31173067
   0.61111141  0.11111101  0.31173067
   0.61111071  0.44444473  0.31173067
   0.94444438  0.77777777  0.31173067
   0.94444429  0.11111101  0.31173067
   0.94444417  0.44444473  0.31173067
   0.27777804  0.77777777  0.31173067
   0.27777795  0.11111101  0.31173067
   0.27777783  0.44444473  0.31173067
   0.72222214  0.88888878  0.38970400
   0.72222205  0.22222203  0.38970400
   0.72222193  0.55555574  0.38970400
   0.05555580  0.88888878  0.38970400
   0.05555572  0.22222203  0.38970400
   0.05555559  0.55555574  0.38970400
   0.38888868  0.88888878  0.38970400
   0.38888918  0.22222203  0.38970400
   0.38888905  0.55555574  0.38970400
   0.83333307  0.00000000  0.46643533
   0.83333328  0.33333304  0.46643533
   0.83333315  0.66666675  0.46643533
   0.16666673  0.00000000  0.46643533
   0.16666694  0.33333304  0.46643533
   0.16666681  0.66666675  0.46643533
   0.50000019  0.00000000  0.46643533
   0.50000040  0.33333304  0.46643533
   0.49999969  0.66666675  0.46643533
   0.94444429  0.11111101  0.54472667
   0.94444417  0.44444473  0.54472667
   0.94444438  0.77777777  0.54472667
   0.27777795  0.11111101  0.54472667
   0.27777783  0.44444473  0.54472667
   0.27777804  0.77777777  0.54472667
   0.61111141  0.11111101  0.54472667
   0.61111071  0.44444473  0.54472667
   0.61111092  0.77777777  0.54472667
   0.44444450  0.27777753  0.07873467
   0.44444437  0.61111125  0.07873467
   0.44444458  0.94444429  0.07873467
   0.77777796  0.27777753  0.07873467
   0.77777783  0.61111125  0.07873467
   0.77777804  0.94444429  0.07873467
   0.11111104  0.27777753  0.07873467
   0.11111091  0.61111125  0.07873467
   0.11111112  0.94444429  0.07873467
   0.55555538  0.38888922  0.15702600
   0.55555559  0.72222226  0.15702600
   0.55555551  0.05555551  0.15702600
   0.88888884  0.38888922  0.15702600
   0.88888905  0.72222226  0.15702600
   0.88888897  0.05555551  0.15702600
   0.22222192  0.38888922  0.15702600
   0.22222213  0.72222226  0.15702600
   0.22222205  0.05555551  0.15702600
   0.66666661  0.50000023  0.23375733
   0.66666682  0.83333327  0.23375733
   0.66666673  0.16666652  0.23375733
   0.99999969  0.50000023  0.23375733
   0.99999990  0.83333327  0.23375733
   0.99999981  0.16666652  0.23375733
   0.33333315  0.50000023  0.23375733
   0.33333336  0.83333327  0.23375733
   0.33333327  0.16666652  0.23375733
   0.77777783  0.61111125  0.31173067
   0.77777804  0.94444429  0.31173067
   0.77777796  0.27777753  0.31173067
   0.11111091  0.61111125  0.31173067
   0.11111112  0.94444429  0.31173067
   0.11111104  0.27777753  0.31173067
   0.44444437  0.61111125  0.31173067
   0.44444458  0.94444429  0.31173067
   0.44444450  0.27777753  0.31173067
   0.88888905  0.72222226  0.38970400
   0.88888897  0.05555551  0.38970400
   0.88888884  0.38888922  0.38970400
   0.22222213  0.72222226  0.38970400
   0.22222205  0.05555551  0.38970400
   0.22222192  0.38888922  0.38970400
   0.55555559  0.72222226  0.38970400
   0.55555551  0.05555551  0.38970400
   0.55555538  0.38888922  0.38970400
   0.99999990  0.83333327  0.46643533
   0.99999981  0.16666652  0.46643533
   0.99999969  0.50000023  0.46643533
   0.33333336  0.83333327  0.46643533
   0.33333327  0.16666652  0.46643533
   0.33333315  0.50000023  0.46643533
   0.66666682  0.83333327  0.46643533
   0.66666673  0.16666652  0.46643533
   0.66666661  0.50000023  0.46643533
   0.11111112  0.94444429  0.54472667
   0.11111104  0.27777753  0.54472667
   0.11111091  0.61111125  0.54472667
   0.44444458  0.94444429  0.54472667
   0.44444450  0.27777753  0.54472667
   0.44444437  0.61111125  0.54472667
   0.77777804  0.94444429  0.54472667
   0.77777796  0.27777753  0.54472667
   0.77777783  0.61111125  0.54472667
   0.34272267  0.48122118  0.58466667
   0.37958737  0.40749218  0.58466667
 
 position of ions in cartesian coordinates  (Angst):
   2.36204000-11.45372000 -6.61281000
   2.36204000-14.31714000-11.57241000
   2.36204000 -8.59029000 -1.65320000
   2.36204000-17.18057000 -6.61281000
   2.36204000-20.04400000-11.57241000
   2.36204000-14.31714000 -1.65320000
   2.36204000 -5.72686000 -6.61281000
   2.36204000 -8.59029000-11.57241000
   2.36204000 -2.86343000 -1.65320000
   4.71078000-14.31714000 -8.26601000
   4.71078000-17.18057000-13.22561000
   4.71078000-11.45372000 -3.30640000
   4.71078000-20.04400000 -8.26601000
   4.71078000-22.90743000-13.22561000
   4.71078000-17.18057000 -3.30640000
   4.71078000 -8.59029000 -8.26601000
   4.71078000-11.45372000-13.22561000
   4.71078000 -5.72686000 -3.30640000
   7.01272000-17.18057000 -9.91921000
   7.01272000-11.45372000  0.00000000
   7.01272000-14.31714000 -4.95960000
   7.01272000 -5.72686000 -9.91921000
   7.01272000  0.00000000  0.00000000
   7.01272000 -2.86343000 -4.95960000
   7.01272000-11.45372000 -9.91921000
   7.01272000 -5.72686000  0.00000000
   7.01272000 -8.59029000 -4.95960000
   9.35192000-20.04400000-11.57241000
   9.35192000-14.31714000 -1.65320000
   9.35192000-17.18057000 -6.61281000
   9.35192000 -8.59029000-11.57241000
   9.35192000 -2.86343000 -1.65320000
   9.35192000 -5.72686000 -6.61281000
   9.35192000-14.31714000-11.57241000
   9.35192000 -8.59029000 -1.65320000
   9.35192000-11.45372000 -6.61281000
  11.69112000-22.90743000-13.22561000
  11.69112000-17.18057000 -3.30640000
  11.69112000-20.04400000 -8.26601000
  11.69112000-11.45372000-13.22561000
  11.69112000 -5.72686000 -3.30640000
  11.69112000 -8.59029000 -8.26601000
  11.69112000-17.18057000-13.22561000
  11.69112000-11.45372000 -3.30640000
  11.69112000-14.31714000 -8.26601000
  13.99306000  0.00000000  0.00000000
  13.99306000 -2.86343000 -4.95960000
  13.99306000 -5.72686000 -9.91921000
  13.99306000 -5.72686000  0.00000000
  13.99306000 -8.59029000 -4.95960000
  13.99306000-11.45372000 -9.91921000
  13.99306000-11.45372000  0.00000000
  13.99306000-14.31714000 -4.95960000
  13.99306000-17.18057000 -9.91921000
  16.34180000 -2.86343000 -1.65320000
  16.34180000 -5.72686000 -6.61281000
  16.34180000 -8.59029000-11.57241000
  16.34180000 -8.59029000 -1.65320000
  16.34180000-11.45372000 -6.61281000
  16.34180000-14.31714000-11.57241000
  16.34180000-14.31714000 -1.65320000
  16.34180000-17.18057000 -6.61281000
  16.34180000-20.04400000-11.57241000
   2.36204000 -7.15857000 -4.13300000
   2.36204000-10.02200000 -9.09261000
   2.36204000-12.88543000-14.05221000
   2.36204000-12.88543000 -4.13300000
   2.36204000-15.74886000 -9.09261000
   2.36204000-18.61229000-14.05221000
   2.36204000-18.61229000 -4.13300000
   2.36204000-21.47572000 -9.09261000
   2.36204000-24.33915000-14.05221000
   4.71078000-10.02200000 -5.78621000
   4.71078000-12.88543000-10.74581000
   4.71078000 -7.15857000 -0.82660000
   4.71078000-15.74886000 -5.78621000
   4.71078000-18.61229000-10.74581000
   4.71078000-12.88543000 -0.82660000
   4.71078000 -4.29514000 -5.78621000
   4.71078000 -7.15857000-10.74581000
   4.71078000 -1.43171000 -0.82660000
   7.01272000-12.88543000 -7.43941000
   7.01272000-15.74886000-12.39901000
   7.01272000-10.02200000 -2.47980000
   7.01272000-18.61229000 -7.43941000
   7.01272000-21.47572000-12.39901000
   7.01272000-15.74886000 -2.47980000
   7.01272000 -7.15857000 -7.43941000
   7.01272000-10.02200000-12.39901000
   7.01272000 -4.29514000 -2.47980000
   9.35192000-15.74886000 -9.09261000
   9.35192000-18.61229000-14.05221000
   9.35192000-12.88543000 -4.13300000
   9.35192000-21.47572000 -9.09261000
   9.35192000-24.33915000-14.05221000
   9.35192000-18.61229000 -4.13300000
   9.35192000-10.02200000 -9.09261000
   9.35192000-12.88543000-14.05221000
   9.35192000 -7.15857000 -4.13300000
  11.69112000-18.61229000-10.74581000
  11.69112000-12.88543000 -0.82660000
  11.69112000-15.74886000 -5.78621000
  11.69112000 -7.15857000-10.74581000
  11.69112000 -1.43171000 -0.82660000
  11.69112000 -4.29514000 -5.78621000
  11.69112000-12.88543000-10.74581000
  11.69112000 -7.15857000 -0.82660000
  11.69112000-10.02200000 -5.78621000
  13.99306000-21.47572000-12.39901000
  13.99306000-15.74886000 -2.47980000
  13.99306000-18.61229000 -7.43941000
  13.99306000-10.02200000-12.39901000
  13.99306000 -4.29514000 -2.47980000
  13.99306000 -7.15857000 -7.43941000
  13.99306000-15.74886000-12.39901000
  13.99306000-10.02200000 -2.47980000
  13.99306000-12.88543000 -7.43941000
  16.34180000-24.33915000-14.05221000
  16.34180000-18.61229000 -4.13300000
  16.34180000-21.47572000 -9.09261000
  16.34180000-12.88543000-14.05221000
  16.34180000 -7.15857000 -4.13300000
  16.34180000-10.02200000 -9.09261000
  16.34180000-18.61229000-14.05221000
  16.34180000-12.88543000 -4.13300000
  16.34180000-15.74886000 -9.09261000
   2.36204000 -8.59029000 -6.61281000
   2.36204000-11.45372000-11.57241000
   2.36204000 -5.72686000 -1.65320000
   2.36204000-14.31714000 -6.61281000
   2.36204000-17.18057000-11.57241000
   2.36204000-11.45372000 -1.65320000
   2.36204000-20.04400000 -6.61281000
   2.36204000-22.90743000-11.57241000
   2.36204000-17.18057000 -1.65320000
   4.71078000-11.45372000 -8.26601000
   4.71078000-14.31714000-13.22561000
   4.71078000 -8.59029000 -3.30640000
   4.71078000-17.18057000 -8.26601000
   4.71078000-20.04400000-13.22561000
   4.71078000-14.31714000 -3.30640000
   4.71078000 -5.72686000 -8.26601000
   4.71078000 -8.59029000-13.22561000
   4.71078000 -2.86343000 -3.30640000
   7.01272000-14.31714000 -9.91921000
   7.01272000 -8.59029000  0.00000000
   7.01272000-11.45372000 -4.95960000
   7.01272000-20.04400000 -9.91921000
   7.01272000-14.31714000  0.00000000
   7.01272000-17.18057000 -4.95960000
   7.01272000 -8.59029000 -9.91921000
   7.01272000 -2.86343000  0.00000000
   7.01272000 -5.72686000 -4.95960000
   9.35192000-17.18057000-11.57241000
   9.35192000-11.45372000 -1.65320000
   9.35192000-14.31714000 -6.61281000
   9.35192000-22.90743000-11.57241000
   9.35192000-17.18057000 -1.65320000
   9.35192000-20.04400000 -6.61281000
   9.35192000-11.45372000-11.57241000
   9.35192000 -5.72686000 -1.65320000
   9.35192000 -8.59029000 -6.61281000
  11.69112000-20.04400000-13.22561000
  11.69112000-14.31714000 -3.30640000
  11.69112000-17.18057000 -8.26601000
  11.69112000 -8.59029000-13.22561000
  11.69112000 -2.86343000 -3.30640000
  11.69112000 -5.72686000 -8.26601000
  11.69112000-14.31714000-13.22561000
  11.69112000 -8.59029000 -3.30640000
  11.69112000-11.45372000 -8.26601000
  13.99306000-14.31714000  0.00000000
  13.99306000-17.18057000 -4.95960000
  13.99306000-20.04400000 -9.91921000
  13.99306000 -2.86343000  0.00000000
  13.99306000 -5.72686000 -4.95960000
  13.99306000 -8.59029000 -9.91921000
  13.99306000 -8.59029000  0.00000000
  13.99306000-11.45372000 -4.95960000
  13.99306000-14.31714000 -9.91921000
  16.34180000-17.18057000 -1.65320000
  16.34180000-20.04400000 -6.61281000
  16.34180000-22.90743000-11.57241000
  16.34180000 -5.72686000 -1.65320000
  16.34180000 -8.59029000 -6.61281000
  16.34180000-11.45372000-11.57241000
  16.34180000-11.45372000 -1.65320000
  16.34180000-14.31714000 -6.61281000
  16.34180000-17.18057000-11.57241000
   2.36204000-10.02200000 -4.13300000
   2.36204000-12.88543000 -9.09261000
   2.36204000-15.74886000-14.05221000
   2.36204000-15.74886000 -4.13300000
   2.36204000-18.61229000 -9.09261000
   2.36204000-21.47572000-14.05221000
   2.36204000 -4.29514000 -4.13300000
   2.36204000 -7.15857000 -9.09261000
   2.36204000-10.02200000-14.05221000
   4.71078000-12.88543000 -5.78621000
   4.71078000-15.74886000-10.74581000
   4.71078000-10.02200000 -0.82660000
   4.71078000-18.61229000 -5.78621000
   4.71078000-21.47572000-10.74581000
   4.71078000-15.74886000 -0.82660000
   4.71078000 -7.15857000 -5.78621000
   4.71078000-10.02200000-10.74581000
   4.71078000 -4.29514000 -0.82660000
   7.01272000-15.74886000 -7.43941000
   7.01272000-18.61229000-12.39901000
   7.01272000-12.88543000 -2.47980000
   7.01272000-21.47571346 -7.43941000
   7.01272000-24.33914346-12.39901000
   7.01272000-18.61228346 -2.47980000
   7.01272000-10.02200000 -7.43941000
   7.01272000-12.88543000-12.39901000
   7.01272000 -7.15857000 -2.47980000
   9.35192000-18.61229000 -9.09261000
   9.35192000-21.47572000-14.05221000
   9.35192000-15.74886000 -4.13300000
   9.35192000 -7.15857000 -9.09261000
   9.35192000-10.02200000-14.05221000
   9.35192000 -4.29514000 -4.13300000
   9.35192000-12.88543000 -9.09261000
   9.35192000-15.74886000-14.05221000
   9.35192000-10.02200000 -4.13300000
  11.69112000-21.47572000-10.74581000
  11.69112000-15.74886000 -0.82660000
  11.69112000-18.61229000 -5.78621000
  11.69112000-10.02200000-10.74581000
  11.69112000 -4.29514000 -0.82660000
  11.69112000 -7.15857000 -5.78621000
  11.69112000-15.74886000-10.74581000
  11.69112000-10.02200000 -0.82660000
  11.69112000-12.88543000 -5.78621000
  13.99306000-24.33914346-12.39901000
  13.99306000-18.61228346 -2.47980000
  13.99306000-21.47571346 -7.43941000
  13.99306000-12.88543000-12.39901000
  13.99306000 -7.15857000 -2.47980000
  13.99306000-10.02200000 -7.43941000
  13.99306000-18.61229000-12.39901000
  13.99306000-12.88543000 -2.47980000
  13.99306000-15.74886000 -7.43941000
  16.34180000-10.02200000-14.05221000
  16.34180000 -4.29514000 -4.13300000
  16.34180000 -7.15857000 -9.09261000
  16.34180000-15.74886000-14.05221000
  16.34180000-10.02200000 -4.13300000
  16.34180000-12.88543000 -9.09261000
  16.34180000-21.47572000-14.05221000
  16.34180000-15.74886000 -4.13300000
  16.34180000-18.61229000 -9.09261000
  17.54000000-10.02200000 -7.16000000
  17.54000000-10.02200333 -6.06300000
 


--------------------------------------------------------------------------------------------------------


 k-point  1 :   0.0000 0.0000 0.0000  plane waves:   90499
 k-point  2 :   0.5000 0.0000 0.0000  plane waves:   90530
 k-point  3 :   0.0000 0.5000 0.0000  plane waves:   90530

 maximum and minimum number of plane-waves per node :     90530    90499

 maximum number of plane-waves:     90530
 maximum index in each direction: 
   IXMAX=   24   IYMAX=   24   IZMAX=   42
   IXMIN=  -24   IYMIN=  -24   IZMIN=  -42


 serial   3D FFT for wavefunctions
 parallel 3D FFT for charge:
    minimum data exchange during FFTs selected (reduces bandwidth)


 total amount of memory used by VASP MPI-rank0   652091. kBytes
=======================================================================

   base      :      30000. kBytes
   nonlr-proj:      89870. kBytes
   fftplans  :      40601. kBytes
   grid      :      95147. kBytes
   one-center:       3950. kBytes
   wavefun   :     392523. kBytes
 
     INWAV:  cpu time    0.0001: real time    0.0002
 Broyden mixing: mesh for mixing (old mesh)
   NGX = 49   NGY = 49   NGZ = 85
  (NGX  =160   NGY  =160   NGZ  =256)
  gives a total of 204085 points

 initial charge density was supplied:
 charge density of overlapping atoms calculated
 number of electron     766.0000000 magnetization 
 keeping initial charge density in first step


--------------------------------------------------------------------------------------------------------


 Maximum index for non-local projection operator         4264
 Maximum index for augmentation-charges          758 (set IRDMAX)


--------------------------------------------------------------------------------------------------------


 First call to EWALD:  gamma=   0.090
 Maximum number of real-space cells 3x 3x 2
 Maximum number of reciprocal cells 2x 2x 4

    FEWALD:  cpu time    0.0361: real time    0.0361


----------------------------------------- Iteration    1(   1)  ---------------------------------------


    POTLOK:  cpu time    0.8925: real time    0.8997
    SETDIJ:  cpu time    0.1071: real time    0.1106
     EDDAV:  cpu time   19.5565: real time   22.3438
       DOS:  cpu time    0.0014: real time    0.0078
    --------------------------------------------
      LOOP:  cpu time   20.5604: real time   23.3808

 eigenvalue-minimisations  :  3168
 total energy-change (2. order) : 0.2145165E+04  (-0.1845687E+05)
 number of electron     766.0000000 magnetization 
 augmentation part      766.0000000 magnetization 

 Free energy of the ion-electron system (eV)
  ---------------------------------------------------
  alpha Z        PSCENC =       505.22967617
  Ewald energy   TEWEN  =     89199.91013420
  -Hartree energ DENC   =   -103220.98341036
  -exchange      EXHF   =         0.00000000
  -V(xc)+E(xc)   XCENC  =     -6602.65289175
  PAW double counting   =     17092.30507181    -9042.14386232
  entropy T*S    EENTRO =        -0.06295331
  eigenvalues    EBANDS =       194.36104367
  atomic energy  EATOM  =     14019.20197576
  Solvation  Ediel_sol  =         0.00000000
  ---------------------------------------------------
  free energy    TOTEN  =      2145.16478385 eV

  energy without entropy =     2145.22773717  energy(sigma->0) =     2145.19626051


--------------------------------------------------------------------------------------------------------




----------------------------------------- Iteration    1(   2)  ---------------------------------------


     EDDAV:  cpu time   24.1620: real time   27.4418
       DOS:  cpu time    0.0228: real time    0.0230
    --------------------------------------------
      LOOP:  cpu time   24.1863: real time   27.4730

 eigenvalue-minimisations  :  4200
 total energy-change (2. order) :-0.2880730E+04  (-0.2719253E+04)
 number of electron     766.0000000 magnetization 
 augmentation part      766.0000000 magnetization 

 Free energy of the ion-electron system (eV)
  ---------------------------------------------------
  alpha Z        PSCENC =       505.22967617
  Ewald energy   TEWEN  =     89199.91013420
  -Hartree energ DENC   =   -103220.98341036
  -exchange      EXHF   =         0.00000000
  -V(xc)+E(xc)   XCENC  =     -6602.65289175
  PAW double counting   =     17092.30507181    -9042.14386232
  entropy T*S    EENTRO =        -0.11341368
  eigenvalues    EBANDS =     -2686.31849143
  atomic energy  EATOM  =     14019.20197576
  Solvation  Ediel_sol  =         0.00000000
  ---------------------------------------------------
  free energy    TOTEN  =      -735.56521162 eV

  energy without entropy =     -735.45179793  energy(sigma->0) =     -735.50850478


--------------------------------------------------------------------------------------------------------




----------------------------------------- Iteration    1(   3)  ---------------------------------------


     EDDAV:  cpu time   25.5468: real time   28.8851
       DOS:  cpu time    0.0013: real time    0.0013
    --------------------------------------------
      LOOP:  cpu time   25.5495: real time   28.8893

 eigenvalue-minimisations  :  4476
 total energy-change (2. order) :-0.2133099E+03  (-0.2040822E+03)
 number of electron     766.0000000 magnetization 
 augmentation part      766.0000000 magnetization 

 Free energy of the ion-electron system (eV)
  ---------------------------------------------------
  alpha Z        PSCENC =       505.22967617
  Ewald energy   TEWEN  =     89199.91013420
  -Hartree energ DENC   =   -103220.98341036
  -exchange      EXHF   =         0.00000000
  -V(xc)+E(xc)   XCENC  =     -6602.65289175
  PAW double counting   =     17092.30507181    -9042.14386232
  entropy T*S    EENTRO =        -0.21348469
  eigenvalues    EBANDS =     -2899.52834826
  atomic energy  EATOM  =     14019.20197576
  Solvation  Ediel_sol  =         0.00000000
  ---------------------------------------------------
  free energy    TOTEN  =      -948.87513945 eV

  energy without entropy =     -948.66165476  energy(sigma->0) =     -948.76839710


--------------------------------------------------------------------------------------------------------




----------------------------------------- Iteration    1(   4)  ---------------------------------------


     EDDAV:  cpu time   27.7499: real time   31.2623
       DOS:  cpu time    0.0025: real time    0.0025
    --------------------------------------------
      LOOP:  cpu time   27.7538: real time   31.2679

 eigenvalue-minimisations  :  4884
 total energy-change (2. order) :-0.1167392E+02  (-0.1101307E+02)
 number of electron     766.0000000 magnetization 
 augmentation part      766.0000000 magnetization 

 Free energy of the ion-electron system (eV)
  ---------------------------------------------------
  alpha Z        PSCENC =       505.22967617
  Ewald energy   TEWEN  =     89199.91013420
  -Hartree energ DENC   =   -103220.98341036
  -exchange      EXHF   =         0.00000000
  -V(xc)+E(xc)   XCENC  =     -6602.65289175
  PAW double counting   =     17092.30507181    -9042.14386232
  entropy T*S    EENTRO =        -0.22335226
  eigenvalues    EBANDS =     -2911.19239956
  atomic energy  EATOM  =     14019.20197576
  Solvation  Ediel_sol  =         0.00000000
  ---------------------------------------------------
  free energy    TOTEN  =      -960.54905833 eV

  energy without entropy =     -960.32570606  energy(sigma->0) =     -960.43738220


--------------------------------------------------------------------------------------------------------




----------------------------------------- Iteration    1(   5)  ---------------------------------------


     EDDAV:  cpu time   26.3825: real time   29.8664
       DOS:  cpu time    0.0016: real time    0.0016
    CHARGE:  cpu time    1.9883: real time    2.0556
    MIXING:  cpu time    0.0279: real time    0.0280
    --------------------------------------------
      LOOP:  cpu time   28.4019: real time   31.9542

 eigenvalue-minimisations  :  4692
 total energy-change (2. order) :-0.4482021E+00  (-0.4424124E+00)
 number of electron     765.9999967 magnetization 
 augmentation part       -9.5990151 magnetization 

 Broyden mixing:
  rms(total) = 0.21218E+01    rms(broyden)= 0.21206E+01
  rms(prec ) = 0.27851E+01
  weight for this iteration     100.00

 Free energy of the ion-electron system (eV)
  ---------------------------------------------------
  alpha Z        PSCENC =       505.22967617
  Ewald energy   TEWEN  =     89199.91013420
  -Hartree energ DENC   =   -103220.98341036
  -exchange      EXHF   =         0.00000000
  -V(xc)+E(xc)   XCENC  =     -6602.65289175
  PAW double counting   =     17092.30507181    -9042.14386232
  entropy T*S    EENTRO =        -0.22132459
  eigenvalues    EBANDS =     -2911.64262935
  atomic energy  EATOM  =     14019.20197576
  Solvation  Ediel_sol  =         0.00000000
  ---------------------------------------------------
  free energy    TOTEN  =      -960.99726044 eV

  energy without entropy =     -960.77593585  energy(sigma->0) =     -960.88659815


--------------------------------------------------------------------------------------------------------




----------------------------------------- Iteration    1(   6)  ---------------------------------------


    POTLOK:  cpu time    0.8533: real time    0.8565
    SETDIJ:  cpu time    0.1086: real time    0.1089
     EDDAV:  cpu time   25.1672: real time   28.4667
       DOS:  cpu time    0.0021: real time    0.0021
    CHARGE:  cpu time    2.0311: real time    2.0739
    MIXING:  cpu time    0.0289: real time    0.0291
    --------------------------------------------
      LOOP:  cpu time   28.1932: real time   31.5496

 eigenvalue-minimisations  :  4380
 total energy-change (2. order) :-0.9635444E+01  (-0.1894298E+02)
 number of electron     765.9999982 magnetization 
 augmentation part       -9.8514147 magnetization 

 Broyden mixing:
  rms(total) = 0.19254E+01    rms(broyden)= 0.19241E+01
  rms(prec ) = 0.40083E+01
  weight for this iteration     100.00

 eigenvalues of (default mixing * dielectric matrix)
  average eigenvalue GAMMA=   0.7340
  0.7340

 Free energy of the ion-electron system (eV)
  ---------------------------------------------------
  alpha Z        PSCENC =       505.22967617
  Ewald energy   TEWEN  =     89199.91013420
  -Hartree energ DENC   =   -104144.59226225
  -exchange      EXHF   =         0.00000000
  -V(xc)+E(xc)   XCENC  =     -6591.11144057
  PAW double counting   =     19184.55340142   -11136.08599370
  entropy T*S    EENTRO =        -0.11424622
  eigenvalues    EBANDS =     -2007.62394967
  atomic energy  EATOM  =     14019.20197576
  Solvation  Ediel_sol  =         0.00000000
  ---------------------------------------------------
  free energy    TOTEN  =      -970.63270487 eV

  energy without entropy =     -970.51845865  energy(sigma->0) =     -970.57558176


--------------------------------------------------------------------------------------------------------




----------------------------------------- Iteration    1(   7)  ---------------------------------------


    POTLOK:  cpu time    0.8664: real time    0.8686
    SETDIJ:  cpu time    0.1080: real time    0.1084
     EDDAV:  cpu time   23.5204: real time   26.6973
       DOS:  cpu time    0.0013: real time    0.0013
    CHARGE:  cpu time    1.9940: real time    2.0363
    MIXING:  cpu time    0.0302: real time    0.0302
    --------------------------------------------
      LOOP:  cpu time   26.5220: real time   29.7449

 eigenvalue-minimisations  :  4032
 total energy-change (2. order) : 0.3322215E+02  (-0.1282108E+02)
 number of electron     765.9999979 magnetization 
 augmentation part       -9.9135315 magnetization 

 Broyden mixing:
  rms(total) = 0.11810E+01    rms(broyden)= 0.11809E+01
  rms(prec ) = 0.18612E+01
  weight for this iteration     100.00

 eigenvalues of (default mixing * dielectric matrix)
  average eigenvalue GAMMA=   0.7377
  1.1162  0.3592

 Free energy of the ion-electron system (eV)
  ---------------------------------------------------
  alpha Z        PSCENC =       505.22967617
  Ewald energy   TEWEN  =     89199.91013420
  -Hartree energ DENC   =   -103617.56453993
  -exchange      EXHF   =         0.00000000
  -V(xc)+E(xc)   XCENC  =     -6589.15499933
  PAW double counting   =     19631.66581285   -11583.33114426
  entropy T*S    EENTRO =        -0.07146044
  eigenvalues    EBANDS =     -2503.29601095
  atomic energy  EATOM  =     14019.20197576
  Solvation  Ediel_sol  =         0.00000000
  ---------------------------------------------------
  free energy    TOTEN  =      -937.41055593 eV

  energy without entropy =     -937.33909549  energy(sigma->0) =     -937.37482571


--------------------------------------------------------------------------------------------------------




----------------------------------------- Iteration    1(   8)  ---------------------------------------


    POTLOK:  cpu time    0.8652: real time    0.8685
    SETDIJ:  cpu time    0.1087: real time    0.1088
     EDDAV:  cpu time   25.5061: real time   28.7403
       DOS:  cpu time    0.0015: real time    0.0015
    CHARGE:  cpu time    2.0170: real time    2.0613
    MIXING:  cpu time    0.0308: real time    0.0308
    --------------------------------------------
      LOOP:  cpu time   28.5311: real time   31.8143

 eigenvalue-minimisations  :  4416
 total energy-change (2. order) :-0.8696602E+01  (-0.4130079E+01)
 number of electron     765.9999982 magnetization 
 augmentation part       -9.8556371 magnetization 

 Broyden mixing:
  rms(total) = 0.10505E+01    rms(broyden)= 0.10502E+01
  rms(prec ) = 0.30184E+01
  weight for this iteration     100.00

 eigenvalues of (default mixing * dielectric matrix)
  average eigenvalue GAMMA=   0.8851
  1.8696  0.5358  0.2500

 Free energy of the ion-electron system (eV)
  ---------------------------------------------------
  alpha Z        PSCENC =       505.22967617
  Ewald energy   TEWEN  =     89199.91013420
  -Hartree energ DENC   =   -103727.43127885
  -exchange      EXHF   =         0.00000000
  -V(xc)+E(xc)   XCENC  =     -6585.27993402
  PAW double counting   =     20413.89752988   -12365.95498927
  entropy T*S    EENTRO =        -0.09952123
  eigenvalues    EBANDS =     -2405.58075083
  atomic energy  EATOM  =     14019.20197576
  Solvation  Ediel_sol  =         0.00000000
  ---------------------------------------------------
  free energy    TOTEN  =      -946.10715819 eV

  energy without entropy =     -946.00763696  energy(sigma->0) =     -946.05739757


--------------------------------------------------------------------------------------------------------




----------------------------------------- Iteration    1(   9)  ---------------------------------------


    POTLOK:  cpu time    0.8681: real time    0.8715
    SETDIJ:  cpu time    0.1089: real time    0.1091
     EDDAV:  cpu time   23.8504: real time   26.9627
       DOS:  cpu time    0.0142: real time    0.0142
    CHARGE:  cpu time    1.9719: real time    2.0151
    MIXING:  cpu time    0.0326: real time    0.0327
    --------------------------------------------
      LOOP:  cpu time   26.8478: real time   30.0082

 eigenvalue-minimisations  :  4056
 total energy-change (2. order) : 0.1005328E+02  (-0.1186568E+01)
 number of electron     765.9999968 magnetization 
 augmentation part       -9.7878186 magnetization 

 Broyden mixing:
  rms(total) = 0.82758E+00    rms(broyden)= 0.82652E+00
  rms(prec ) = 0.15146E+01
  weight for this iteration     100.00

 eigenvalues of (default mixing * dielectric matrix)
  average eigenvalue GAMMA=   0.8518
  2.4584  0.5263  0.2831  0.1394

 Free energy of the ion-electron system (eV)
  ---------------------------------------------------
  alpha Z        PSCENC =       505.22967617
  Ewald energy   TEWEN  =     89199.91013420
  -Hartree energ DENC   =   -103835.89677409
  -exchange      EXHF   =         0.00000000
  -V(xc)+E(xc)   XCENC  =     -6581.65919145
  PAW double counting   =     21089.38209528   -13041.83282451
  entropy T*S    EENTRO =        -0.11115555
  eigenvalues    EBANDS =     -2290.27781249
  atomic energy  EATOM  =     14019.20197576
  Solvation  Ediel_sol  =         0.00000000
  ---------------------------------------------------
  free energy    TOTEN  =      -936.05387669 eV

  energy without entropy =     -935.94272113  energy(sigma->0) =     -935.99829891


--------------------------------------------------------------------------------------------------------




----------------------------------------- Iteration    1(  10)  ---------------------------------------


    POTLOK:  cpu time    0.8687: real time    0.8716
    SETDIJ:  cpu time    0.1091: real time    0.1093
     EDDAV:  cpu time   23.4038: real time   26.5861
       DOS:  cpu time    0.0020: real time    0.0020
    CHARGE:  cpu time    1.9629: real time    2.0024
    MIXING:  cpu time    0.0345: real time    0.0345
    --------------------------------------------
      LOOP:  cpu time   26.3828: real time   29.6088

 eigenvalue-minimisations  :  4008
 total energy-change (2. order) : 0.4246144E+01  (-0.9602673E+00)
 number of electron     765.9999977 magnetization 
 augmentation part       -9.9960344 magnetization 

 Broyden mixing:
  rms(total) = 0.15818E+00    rms(broyden)= 0.15531E+00
  rms(prec ) = 0.25904E+00
  weight for this iteration     100.00

 eigenvalues of (default mixing * dielectric matrix)
  average eigenvalue GAMMA=   0.8676
  2.5079  0.8933  0.5008  0.2948  0.1409

 Free energy of the ion-electron system (eV)
  ---------------------------------------------------
  alpha Z        PSCENC =       505.22967617
  Ewald energy   TEWEN  =     89199.91013420
  -Hartree energ DENC   =   -103959.70403678
  -exchange      EXHF   =         0.00000000
  -V(xc)+E(xc)   XCENC  =     -6573.26115194
  PAW double counting   =     22449.02753263   -14402.48534107
  entropy T*S    EENTRO =        -0.06331179
  eigenvalues    EBANDS =     -2169.66321034
  atomic energy  EATOM  =     14019.20197576
  Solvation  Ediel_sol  =         0.00000000
  ---------------------------------------------------
  free energy    TOTEN  =      -931.80773315 eV

  energy without entropy =     -931.74442136  energy(sigma->0) =     -931.77607726


--------------------------------------------------------------------------------------------------------




----------------------------------------- Iteration    1(  11)  ---------------------------------------


    POTLOK:  cpu time    0.8717: real time    0.8739
    SETDIJ:  cpu time    0.1090: real time    0.1090
     EDDAV:  cpu time   22.7973: real time   25.8353
       DOS:  cpu time    0.0020: real time    0.0021
    CHARGE:  cpu time    1.9925: real time    2.0343
    MIXING:  cpu time    0.0356: real time    0.0356
    --------------------------------------------
      LOOP:  cpu time   25.8098: real time   28.8931

 eigenvalue-minimisations  :  3864
 total energy-change (2. order) : 0.8592821E-01  (-0.2725516E+00)
 number of electron     765.9999977 magnetization 
 augmentation part      -10.0350038 magnetization 

 Broyden mixing:
  rms(total) = 0.11037E+00    rms(broyden)= 0.11032E+00
  rms(prec ) = 0.15077E+00
  weight for this iteration     100.00

 eigenvalues of (default mixing * dielectric matrix)
  average eigenvalue GAMMA=   0.8797
  2.3901  1.3562  0.5974  0.5031  0.2905  0.1409

 Free energy of the ion-electron system (eV)
  ---------------------------------------------------
  alpha Z        PSCENC =       505.22967617
  Ewald energy   TEWEN  =     89199.91013420
  -Hartree energ DENC   =   -104018.82101956
  -exchange      EXHF   =         0.00000000
  -V(xc)+E(xc)   XCENC  =     -6571.61400291
  PAW double counting   =     22657.48713419   -14611.25418491
  entropy T*S    EENTRO =        -0.07524369
  eigenvalues    EBANDS =     -2111.78627419
  atomic energy  EATOM  =     14019.20197576
  Solvation  Ediel_sol  =         0.00000000
  ---------------------------------------------------
  free energy    TOTEN  =      -931.72180494 eV

  energy without entropy =     -931.64656125  energy(sigma->0) =     -931.68418309


--------------------------------------------------------------------------------------------------------




----------------------------------------- Iteration    1(  12)  ---------------------------------------


    POTLOK:  cpu time    0.8732: real time    0.8761
    SETDIJ:  cpu time    0.1092: real time    0.1094
     EDDAV:  cpu time   22.7676: real time   25.8701
       DOS:  cpu time    0.0012: real time    0.0013
    CHARGE:  cpu time    2.0066: real time    2.0496
    MIXING:  cpu time    0.0370: real time    0.0374
    --------------------------------------------
      LOOP:  cpu time   25.7966: real time   28.9467

 eigenvalue-minimisations  :  3888
 total energy-change (2. order) : 0.4413348E-01  (-0.3692764E-01)
 number of electron     765.9999977 magnetization 
 augmentation part      -10.0490526 magnetization 

 Broyden mixing:
  rms(total) = 0.71077E-01    rms(broyden)= 0.71030E-01
  rms(prec ) = 0.95428E-01
  weight for this iteration     100.00

 eigenvalues of (default mixing * dielectric matrix)
  average eigenvalue GAMMA=   0.9968
  2.3258  2.3258  0.1408  0.2921  0.7118  0.7118  0.4691

 Free energy of the ion-electron system (eV)
  ---------------------------------------------------
  alpha Z        PSCENC =       505.22967617
  Ewald energy   TEWEN  =     89199.91013420
  -Hartree energ DENC   =   -104047.70764739
  -exchange      EXHF   =         0.00000000
  -V(xc)+E(xc)   XCENC  =     -6571.29171391
  PAW double counting   =     22653.96083815   -14607.92964450
  entropy T*S    EENTRO =        -0.06946388
  eigenvalues    EBANDS =     -2082.98182606
  atomic energy  EATOM  =     14019.20197576
  Solvation  Ediel_sol  =         0.00000000
  ---------------------------------------------------
  free energy    TOTEN  =      -931.67767146 eV

  energy without entropy =     -931.60820758  energy(sigma->0) =     -931.64293952


--------------------------------------------------------------------------------------------------------




----------------------------------------- Iteration    1(  13)  ---------------------------------------


    POTLOK:  cpu time    0.8732: real time    0.8766
    SETDIJ:  cpu time    0.1086: real time    0.1090
     EDDAV:  cpu time   22.5443: real time   25.5766
       DOS:  cpu time    0.0084: real time    0.0084
    CHARGE:  cpu time    1.9796: real time    2.0200
    MIXING:  cpu time    0.0377: real time    0.0388
    --------------------------------------------
      LOOP:  cpu time   25.5537: real time   28.6324

 eigenvalue-minimisations  :  3864
 total energy-change (2. order) : 0.3784123E-01  (-0.1248422E-01)
 number of electron     765.9999977 magnetization 
 augmentation part      -10.0500581 magnetization 

 Broyden mixing:
  rms(total) = 0.46180E-01    rms(broyden)= 0.46147E-01
  rms(prec ) = 0.70737E-01
  weight for this iteration     100.00

 eigenvalues of (default mixing * dielectric matrix)
  average eigenvalue GAMMA=   1.0044
  2.3889  2.3889  0.9155  0.9155  0.1408  0.2917  0.5247  0.4693

 Free energy of the ion-electron system (eV)
  ---------------------------------------------------
  alpha Z        PSCENC =       505.22967617
  Ewald energy   TEWEN  =     89199.91013420
  -Hartree energ DENC   =   -104097.74925214
  -exchange      EXHF   =         0.00000000
  -V(xc)+E(xc)   XCENC  =     -6570.67082192
  PAW double counting   =     22661.06386051   -14615.36495020
  entropy T*S    EENTRO =        -0.07258465
  eigenvalues    EBANDS =     -2033.18786795
  atomic energy  EATOM  =     14019.20197576
  Solvation  Ediel_sol  =         0.00000000
  ---------------------------------------------------
  free energy    TOTEN  =      -931.63983023 eV

  energy without entropy =     -931.56724558  energy(sigma->0) =     -931.60353790


--------------------------------------------------------------------------------------------------------




----------------------------------------- Iteration    1(  14)  ---------------------------------------


    POTLOK:  cpu time    0.8732: real time    0.8753
    SETDIJ:  cpu time    0.1085: real time    0.1086
     EDDAV:  cpu time   22.5390: real time   25.5127
       DOS:  cpu time    0.0083: real time    0.0083
    CHARGE:  cpu time    1.9717: real time    2.0130
    MIXING:  cpu time    0.0405: real time    0.0411
    --------------------------------------------
      LOOP:  cpu time   25.5430: real time   28.5620

 eigenvalue-minimisations  :  3816
 total energy-change (2. order) : 0.2291919E-01  (-0.3568733E-02)
 number of electron     765.9999977 magnetization 
 augmentation part      -10.0448489 magnetization 

 Broyden mixing:
  rms(total) = 0.28028E-01    rms(broyden)= 0.28011E-01
  rms(prec ) = 0.45416E-01
  weight for this iteration     100.00

 eigenvalues of (default mixing * dielectric matrix)
  average eigenvalue GAMMA=   1.0176
  2.5252  2.5252  1.0336  1.0336  0.1408  0.2918  0.5719  0.5719  0.4643

 Free energy of the ion-electron system (eV)
  ---------------------------------------------------
  alpha Z        PSCENC =       505.22967617
  Ewald energy   TEWEN  =     89199.91013420
  -Hartree energ DENC   =   -104123.69621354
  -exchange      EXHF   =         0.00000000
  -V(xc)+E(xc)   XCENC  =     -6570.24545348
  PAW double counting   =     22687.89002923   -14642.28712418
  entropy T*S    EENTRO =        -0.07120392
  eigenvalues    EBANDS =     -2007.54873126
  atomic energy  EATOM  =     14019.20197576
  Solvation  Ediel_sol  =         0.00000000
  ---------------------------------------------------
  free energy    TOTEN  =      -931.61691103 eV

  energy without entropy =     -931.54570711  energy(sigma->0) =     -931.58130907


--------------------------------------------------------------------------------------------------------




----------------------------------------- Iteration    1(  15)  ---------------------------------------


    POTLOK:  cpu time    0.8777: real time    0.8808
    SETDIJ:  cpu time    0.1087: real time    0.1093
     EDDAV:  cpu time   22.2016: real time   25.1228
       DOS:  cpu time    0.0012: real time    0.0012
    CHARGE:  cpu time    2.0565: real time    2.0992
    MIXING:  cpu time    0.0437: real time    0.0439
    --------------------------------------------
      LOOP:  cpu time   25.2911: real time   28.2601

 eigenvalue-minimisations  :  3756
 total energy-change (2. order) : 0.6068967E-02  (-0.2731488E-02)
 number of electron     765.9999977 magnetization 
 augmentation part      -10.0421217 magnetization 

 Broyden mixing:
  rms(total) = 0.16870E-01    rms(broyden)= 0.16866E-01
  rms(prec ) = 0.27091E-01
  weight for this iteration     100.00

 eigenvalues of (default mixing * dielectric matrix)
  average eigenvalue GAMMA=   1.0853
  2.7358  2.7358  1.3707  0.9455  0.9455  0.1408  0.2918  0.7045  0.5179  0.4644

 Free energy of the ion-electron system (eV)
  ---------------------------------------------------
  alpha Z        PSCENC =       505.22967617
  Ewald energy   TEWEN  =     89199.91013420
  -Hartree energ DENC   =   -104149.29337694
  -exchange      EXHF   =         0.00000000
  -V(xc)+E(xc)   XCENC  =     -6569.93487477
  PAW double counting   =     22692.51287129   -14646.93474035
  entropy T*S    EENTRO =        -0.07056652
  eigenvalues    EBANDS =     -1982.23194090
  atomic energy  EATOM  =     14019.20197576
  Solvation  Ediel_sol  =         0.00000000
  ---------------------------------------------------
  free energy    TOTEN  =      -931.61084207 eV

  energy without entropy =     -931.54027554  energy(sigma->0) =     -931.57555880


--------------------------------------------------------------------------------------------------------




----------------------------------------- Iteration    1(  16)  ---------------------------------------


    POTLOK:  cpu time    0.8829: real time    0.8859
    SETDIJ:  cpu time    0.1088: real time    0.1091
     EDDAV:  cpu time   21.3817: real time   24.2552
       DOS:  cpu time    0.0056: real time    0.0056
    CHARGE:  cpu time    2.0523: real time    2.0945
    MIXING:  cpu time    0.0465: real time    0.0467
    --------------------------------------------
      LOOP:  cpu time   24.4796: real time   27.3999

 eigenvalue-minimisations  :  3576
 total energy-change (2. order) :-0.4296539E-02  (-0.1180219E-02)
 number of electron     765.9999977 magnetization 
 augmentation part      -10.0403996 magnetization 

 Broyden mixing:
  rms(total) = 0.11160E-01    rms(broyden)= 0.11159E-01
  rms(prec ) = 0.17439E-01
  weight for this iteration     100.00

 eigenvalues of (default mixing * dielectric matrix)
  average eigenvalue GAMMA=   1.2144
  3.6872  2.6034  2.0421  1.0658  1.0658  0.1408  0.8268  0.2918  0.6499  0.5205
  0.4639

 Free energy of the ion-electron system (eV)
  ---------------------------------------------------
  alpha Z        PSCENC =       505.22967617
  Ewald energy   TEWEN  =     89199.91013420
  -Hartree energ DENC   =   -104174.74775037
  -exchange      EXHF   =         0.00000000
  -V(xc)+E(xc)   XCENC  =     -6569.74876697
  PAW double counting   =     22679.46636740   -14633.87513331
  entropy T*S    EENTRO =        -0.07029723
  eigenvalues    EBANDS =     -1956.98134426
  atomic energy  EATOM  =     14019.20197576
  Solvation  Ediel_sol  =         0.00000000
  ---------------------------------------------------
  free energy    TOTEN  =      -931.61513860 eV

  energy without entropy =     -931.54484138  energy(sigma->0) =     -931.57998999


--------------------------------------------------------------------------------------------------------




----------------------------------------- Iteration    1(  17)  ---------------------------------------


    POTLOK:  cpu time    0.8903: real time    0.8931
    SETDIJ:  cpu time    0.1088: real time    0.1090
     EDDAV:  cpu time   21.1562: real time   24.0313
       DOS:  cpu time    0.0016: real time    0.0016
    CHARGE:  cpu time    2.0353: real time    2.0802
[...]
     11.69112     -8.59029     -8.26601        -0.044913     -0.004127      0.012672
     11.69112    -17.18057    -13.22561        -0.008517     -0.004867     -0.017993
     11.69112    -11.45372     -3.30640        -0.034112     -0.039124      0.009331
     11.69112    -14.31714     -8.26601         0.017519      0.035167      0.008029
     13.99306      0.00000      0.00000        -0.001076     -0.004390     -0.006685
     13.99306     -2.86343     -4.95960         0.022855     -0.005367      0.006193
     13.99306     -5.72686     -9.91921        -0.003888      0.028099     -0.023025
     13.99306     -5.72686      0.00000         0.004839      0.011209      0.002227
     13.99306     -8.59029     -4.95960         0.009677     -0.038198     -0.018531
     13.99306    -11.45372     -9.91921        -0.045372      0.013010     -0.013535
     13.99306    -11.45372      0.00000        -0.005846     -0.007956      0.037216
     13.99306    -14.31714     -4.95960         0.033669      0.053521     -0.012504
     13.99306    -17.18057     -9.91921        -0.019336      0.014412     -0.004246
     16.34180     -2.86343     -1.65320        -0.016777     -0.021776     -0.007874
     16.34180     -5.72686     -6.61281         0.045205     -0.063631     -0.003199
     16.34180     -8.59029    -11.57241         0.038382      0.015704     -0.004242
     16.34180     -8.59029     -1.65320         0.027053     -0.004202     -0.003298
     16.34180    -11.45372     -6.61281        -1.781532     -2.572251     -0.048934
     16.34180    -14.31714    -11.57241         0.001087      0.014679      0.000257
     16.34180    -14.31714     -1.65320         0.005134      0.005600     -0.008930
     16.34180    -17.18057     -6.61281         0.002807      0.022731     -0.005697
     16.34180    -20.04400    -11.57241         0.001761     -0.016234     -0.004245
      2.36204     -7.15857     -4.13300        -0.010188      0.010927      0.005782
      2.36204    -10.02200     -9.09261         0.006179      0.000000     -0.014329
      2.36204    -12.88543    -14.05221         0.003345      0.009340      0.000226
      2.36204    -12.88543     -4.13300        -0.010188     -0.010927      0.005782
      2.36204    -15.74886     -9.09261        -0.001504     -0.003193      0.010933
      2.36204    -18.61229    -14.05221         0.002225      0.000000     -0.023377
      2.36204    -18.61229     -4.13300         0.002933      0.000000     -0.009660
      2.36204    -21.47572     -9.09261        -0.001504      0.003193      0.010933
      2.36204    -24.33915    -14.05221         0.003345     -0.009340      0.000226
      4.71078    -10.02200     -5.78621         0.035457      0.000000      0.009001
      4.71078    -12.88543    -10.74581        -0.015868      0.015022     -0.001603
      4.71078     -7.15857     -0.82660        -0.004918      0.001902     -0.009280
      4.71078    -15.74886     -5.78621        -0.019418      0.006262      0.003555
      4.71078    -18.61229    -10.74581        -0.003759      0.000000     -0.001912
      4.71078    -12.88543     -0.82660        -0.004918     -0.001902     -0.009280
      4.71078     -4.29514     -5.78621        -0.019418     -0.006262      0.003555
      4.71078     -7.15857    -10.74581        -0.015868     -0.015022     -0.001603
      4.71078     -1.43171     -0.82660        -0.014112      0.000000     -0.014029
      7.01272    -12.88543     -7.43941         0.003399     -0.002861      0.001175
      7.01272    -15.74886    -12.39901         0.009642     -0.011997      0.011569
      7.01272    -10.02200     -2.47980         0.030799      0.000000      0.009948
      7.01272    -18.61229     -7.43941         0.013006      0.000000     -0.016735
      7.01272    -21.47572    -12.39901         0.009642      0.011997      0.011569
      7.01272    -15.74886     -2.47980         0.004359     -0.005600      0.005896
      7.01272     -7.15857     -7.43941         0.003399      0.002861      0.001175
      7.01272    -10.02200    -12.39901        -0.005576      0.000000      0.005974
      7.01272     -4.29514     -2.47980         0.004359      0.005600      0.005896
      9.35192    -15.74886     -9.09261        -0.020851     -0.015149     -0.007875
      9.35192    -18.61229    -14.05221         0.003579      0.000000      0.008581
      9.35192    -12.88543     -4.13300         0.017407     -0.000950      0.001259
      9.35192    -21.47572     -9.09261        -0.020851      0.015149     -0.007875
      9.35192    -24.33915    -14.05221         0.012001     -0.005835     -0.017830
      9.35192    -18.61229     -4.13300        -0.011965      0.000000      0.006420
      9.35192    -10.02200     -9.09261        -0.019370      0.000000     -0.006953
      9.35192    -12.88543    -14.05221         0.012001      0.005835     -0.017830
      9.35192     -7.15857     -4.13300         0.017407      0.000950      0.001259
     11.69112    -18.61229    -10.74581         0.028858      0.000000      0.002867
     11.69112    -12.88543     -0.82660        -0.017916      0.000797     -0.003664
     11.69112    -15.74886     -5.78621        -0.016023      0.015219      0.007432
     11.69112     -7.15857    -10.74581        -0.005267     -0.005255      0.021952
     11.69112     -1.43171     -0.82660        -0.014333      0.000000      0.012709
     11.69112     -4.29514     -5.78621        -0.016023     -0.015219      0.007432
     11.69112    -12.88543    -10.74581        -0.005267      0.005255      0.021952
     11.69112     -7.15857     -0.82660        -0.017916     -0.000797     -0.003664
     11.69112    -10.02200     -5.78621         0.012277      0.000000     -0.028983
     13.99306    -21.47572    -12.39901         0.002689     -0.013343      0.008900
     13.99306    -15.74886     -2.47980         0.010834     -0.012327      0.003558
     13.99306    -18.61229     -7.43941        -0.009364      0.000000     -0.007511
     13.99306    -10.02200    -12.39901         0.006342      0.000000     -0.002888
     13.99306     -4.29514     -2.47980         0.010834      0.012327      0.003558
     13.99306     -7.15857     -7.43941        -0.111170      0.078229     -0.048025
     13.99306    -15.74886    -12.39901         0.002689      0.013343      0.008900
     13.99306    -10.02200     -2.47980        -0.013779      0.000000     -0.046541
     13.99306    -12.88543     -7.43941        -0.111170     -0.078229     -0.048025
     16.34180    -24.33915    -14.05221        -0.002321     -0.001396      0.002975
     16.34180    -18.61229     -4.13300        -0.007327      0.000000      0.008175
     16.34180    -21.47572     -9.09261         0.007583      0.004983      0.021267
     16.34180    -12.88543    -14.05221        -0.002321      0.001396      0.002975
     16.34180     -7.15857     -4.13300         0.018943      0.004502      0.012703
     16.34180    -10.02200     -9.09261        -0.071605      0.000000      0.086037
     16.34180    -18.61229    -14.05221         0.013658      0.000000     -0.002814
     16.34180    -12.88543     -4.13300         0.018943     -0.004502      0.012703
     16.34180    -15.74886     -9.09261         0.007583     -0.004983      0.021267
      2.36204     -8.59029     -6.61281         0.018792      0.032273      0.001490
      2.36204    -11.45372    -11.57241         0.001515     -0.006114     -0.011813
      2.36204     -5.72686     -1.65320        -0.007700      0.009532     -0.009481
      2.36204    -14.31714     -6.61281        -0.000097     -0.010841      0.005765
      2.36204    -17.18057    -11.57241         0.000560      0.031085      0.001496
      2.36204    -11.45372     -1.65320         0.007338     -0.007362      0.002550
      2.36204    -20.04400     -6.61281         0.006375     -0.007730     -0.001973
      2.36204    -22.90743    -11.57241         0.006862     -0.004797      0.011281
      2.36204    -17.18057     -1.65320        -0.004096      0.006327      0.000975
      4.71078    -11.45372     -8.26601         0.016911     -0.022473     -0.010863
      4.71078    -14.31714    -13.22561        -0.006517      0.001561     -0.001173
      4.71078     -8.59029     -3.30640         0.002068      0.001720      0.010384
      4.71078    -17.18057     -8.26601        -0.018679     -0.006076      0.001691
      4.71078    -20.04400    -13.22561        -0.013510     -0.007961      0.009129
      4.71078    -14.31714     -3.30640        -0.016148     -0.005432      0.000465
      4.71078     -5.72686     -8.26601        -0.001440     -0.001640      0.004738
      4.71078     -8.59029    -13.22561        -0.026080      0.001626      0.001693
      4.71078     -2.86343     -3.30640        -0.006997      0.008019     -0.002838
      7.01272    -14.31714     -9.91921         0.005053      0.007507      0.003922
      7.01272     -8.59029      0.00000         0.027173     -0.010894     -0.009243
      7.01272    -11.45372     -4.95960         0.003700     -0.021379      0.008902
      7.01272    -20.04400     -9.91921         0.030980      0.002039     -0.002275
      7.01272    -14.31714      0.00000         0.016728      0.003745     -0.005768
      7.01272    -17.18057     -4.95960         0.017185     -0.006439     -0.000207
      7.01272     -8.59029     -9.91921        -0.005361      0.017798      0.006384
      7.01272     -2.86343      0.00000         0.014209     -0.006225     -0.007408
      7.01272     -5.72686     -4.95960         0.011093     -0.015931     -0.010524
      9.35192    -17.18057    -11.57241        -0.009724      0.005126     -0.012499
      9.35192    -11.45372     -1.65320         0.005814      0.014554     -0.019086
      9.35192    -14.31714     -6.61281        -0.000727      0.027625      0.005510
      9.35192    -22.90743    -11.57241         0.000049     -0.004539     -0.004110
      9.35192    -17.18057     -1.65320         0.009732      0.010911      0.006096
      9.35192    -20.04400     -6.61281        -0.015632     -0.000223      0.007356
      9.35192    -11.45372    -11.57241         0.019076      0.002258      0.017143
      9.35192     -5.72686     -1.65320        -0.000322      0.005920      0.006817
      9.35192     -8.59029     -6.61281        -0.020221      0.002361      0.002081
     11.69112    -20.04400    -13.22561        -0.008517      0.004867     -0.017993
     11.69112    -14.31714     -3.30640        -0.013486      0.020750     -0.006888
     11.69112    -17.18057     -8.26601         0.030832      0.028131     -0.001308
     11.69112     -8.59029    -13.22561        -0.022184     -0.006790     -0.006496
     11.69112     -2.86343     -3.30640        -0.010818     -0.014985     -0.004775
     11.69112     -5.72686     -8.26601         0.017519     -0.035167      0.008029
     11.69112    -14.31714    -13.22561        -0.007182      0.005670     -0.010328
     11.69112     -8.59029     -3.30640        -0.034112      0.039124      0.009331
     11.69112    -11.45372     -8.26601        -0.044913      0.004127      0.012672
     13.99306    -14.31714      0.00000         0.004839     -0.011209      0.002227
     13.99306    -17.18057     -4.95960         0.022855      0.005367      0.006193
     13.99306    -20.04400     -9.91921        -0.019336     -0.014412     -0.004246
     13.99306     -2.86343      0.00000        -0.001076      0.004390     -0.006685
     13.99306     -5.72686     -4.95960         0.033669     -0.053521     -0.012504
     13.99306     -8.59029     -9.91921        -0.045372     -0.013010     -0.013535
     13.99306     -8.59029      0.00000        -0.005846      0.007956      0.037216
     13.99306    -11.45372     -4.95960         0.009677      0.038198     -0.018531
     13.99306    -14.31714     -9.91921        -0.003888     -0.028099     -0.023025
     16.34180    -17.18057     -1.65320        -0.016777      0.021776     -0.007874
     16.34180    -20.04400     -6.61281         0.002807     -0.022731     -0.005697
     16.34180    -22.90743    -11.57241         0.001087     -0.014679      0.000257
     16.34180     -5.72686     -1.65320         0.005134     -0.005600     -0.008930
     16.34180     -8.59029     -6.61281        -1.781532      2.572251     -0.048934
     16.34180    -11.45372    -11.57241         0.038382     -0.015704     -0.004242
     16.34180    -11.45372     -1.65320         0.027053      0.004202     -0.003298
     16.34180    -14.31714     -6.61281         0.045205      0.063631     -0.003199
     16.34180    -17.18057    -11.57241         0.001761      0.016234     -0.004245
      2.36204    -10.02200     -4.13300         0.006955      0.000000      0.010801
      2.36204    -12.88543     -9.09261        -0.012664     -0.003625     -0.012458
      2.36204    -15.74886    -14.05221         0.004695     -0.006233      0.004843
      2.36204    -15.74886     -4.13300        -0.008141      0.003337     -0.010620
      2.36204    -18.61229     -9.09261        -0.010188      0.000000      0.012871
      2.36204    -21.47572    -14.05221         0.004695      0.006233      0.004843
      2.36204     -4.29514     -4.13300        -0.008141     -0.003337     -0.010620
      2.36204     -7.15857     -9.09261        -0.012664      0.003625     -0.012458
      2.36204    -10.02200    -14.05221        -0.000091      0.000000      0.014581
      4.71078    -12.88543     -5.78621         0.013410     -0.014425     -0.012086
      4.71078    -15.74886    -10.74581        -0.011081      0.002331     -0.002099
      4.71078    -10.02200     -0.82660        -0.026422      0.000000     -0.013463
      4.71078    -18.61229     -5.78621        -0.021805      0.000000      0.014190
      4.71078    -21.47572    -10.74581        -0.011081     -0.002331     -0.002099
      4.71078    -15.74886     -0.82660        -0.017603     -0.006094     -0.009796
      4.71078     -7.15857     -5.78621         0.013410      0.014425     -0.012086
      4.71078    -10.02200    -10.74581         0.005485      0.000000     -0.002842
      4.71078     -4.29514     -0.82660        -0.017603      0.006094     -0.009796
      7.01272    -15.74886     -7.43941         0.006663      0.004625     -0.001088
      7.01272    -18.61229    -12.39901         0.025120      0.000000      0.006620
      7.01272    -12.88543     -2.47980         0.008144      0.025031     -0.005311
      7.01272    -21.47571     -7.43941         0.006663     -0.004625     -0.001088
      7.01272    -24.33914    -12.39901         0.006846      0.006995      0.008850
      7.01272    -18.61228     -2.47980         0.000065      0.000000      0.004667
      7.01272    -10.02200     -7.43941         0.006717      0.000000      0.002537
      7.01272    -12.88543    -12.39901         0.006846     -0.006995      0.008850
      7.01272     -7.15857     -2.47980         0.008144     -0.025031     -0.005311
      9.35192    -18.61229     -9.09261        -0.046849      0.000000     -0.013820
      9.35192    -21.47572    -14.05221         0.005948      0.007790      0.005598
      9.35192    -15.74886     -4.13300        -0.008321     -0.012547      0.010811
      9.35192     -7.15857     -9.09261         0.021583     -0.013705      0.006351
      9.35192    -10.02200    -14.05221         0.028248      0.000000     -0.010129
      9.35192     -4.29514     -4.13300        -0.008321      0.012547      0.010811
      9.35192    -12.88543     -9.09261         0.021583      0.013705      0.006351
      9.35192    -15.74886    -14.05221         0.005948     -0.007790      0.005598
      9.35192    -10.02200     -4.13300        -0.028049      0.000000      0.011596
     11.69112    -21.47572    -10.74581         0.018566     -0.002500      0.009522
     11.69112    -15.74886     -0.82660        -0.019345     -0.002240     -0.004342
     11.69112    -18.61229     -5.78621        -0.011044      0.000000      0.023771
     11.69112    -10.02200    -10.74581         0.013271      0.000000     -0.000840
     11.69112     -4.29514     -0.82660        -0.019345      0.002240     -0.004342
     11.69112     -7.15857     -5.78621        -0.030334      0.009863      0.025345
     11.69112    -15.74886    -10.74581         0.018566      0.002500      0.009522
     11.69112    -10.02200     -0.82660        -0.014243      0.000000      0.003915
     11.69112    -12.88543     -5.78621        -0.030334     -0.009863      0.025345
     13.99306    -24.33914    -12.39901         0.019322      0.011602     -0.006444
     13.99306    -18.61228     -2.47980        -0.013221      0.000000      0.005893
     13.99306    -21.47571     -7.43941         0.001920      0.041132     -0.018774
     13.99306    -12.88543    -12.39901         0.019322     -0.011602     -0.006444
     13.99306     -7.15857     -2.47980         0.002945      0.013773     -0.000567
     13.99306    -10.02200     -7.43941         0.260531      0.000000      0.056647
     13.99306    -18.61229    -12.39901        -0.022087      0.000000      0.014492
     13.99306    -12.88543     -2.47980         0.002945     -0.013773     -0.000567
     13.99306    -15.74886     -7.43941         0.001920     -0.041132     -0.018774
     16.34180    -10.02200    -14.05221         0.004520      0.000000      0.002531
     16.34180     -4.29514     -4.13300         0.008030      0.009636     -0.002448
     16.34180     -7.15857     -9.09261        -0.020939      0.022814     -0.013207
     16.34180    -15.74886    -14.05221         0.004540     -0.008069     -0.005839
     16.34180    -10.02200     -4.13300        -0.056722      0.000000      0.053005
     16.34180    -12.88543     -9.09261        -0.020939     -0.022814     -0.013207
     16.34180    -21.47572    -14.05221         0.004540      0.008069     -0.005839
     16.34180    -15.74886     -4.13300         0.008030     -0.009636     -0.002448
     16.34180    -18.61229     -9.09261         0.003133      0.000000      0.000056
     17.54000    -10.02200     -7.16000         1.962192      0.000000    -22.470242
     17.54000    -10.02200     -6.06300         1.645002     -0.000000     22.565294
 -----------------------------------------------------------------------------------
    total drift:                                0.201262     -0.000171     -0.006234


--------------------------------------------------------------------------------------------------------



  FREE ENERGIE OF THE ION-ELECTRON SYSTEM (eV)
  ---------------------------------------------------
  free  energy   TOTEN  =      -931.63748362 eV

  energy  without entropy=     -931.56722369  energy(sigma->0) =     -931.60235365
 


--------------------------------------------------------------------------------------------------------


    POTLOK:  cpu time    1.0077: real time    1.0189


--------------------------------------------------------------------------------------------------------


     LOOP+:  cpu time  749.6253: real time  840.9788
    4ORBIT:  cpu time    0.0000: real time    0.0000

 total amount of memory used by VASP MPI-rank0   652091. kBytes
=======================================================================

   base      :      30000. kBytes
   nonlr-proj:      89870. kBytes
   fftplans  :      40601. kBytes
   grid      :      95147. kBytes
   one-center:       3950. kBytes
   wavefun   :     392523. kBytes
 
  
  
 General timing and accounting informations for this job:
 ========================================================
  
                  Total CPU time used (sec):      767.425
                            User time (sec):      651.504
                          System time (sec):      115.920
                         Elapsed time (sec):      861.634
  
                   Maximum memory used (kb):     1004556.
                   Average memory used (kb):           0.
  
                          Minor page faults:     27123625
                          Major page faults:           41
                 Voluntary context switches:        18957
