 254 254   0   0
  0.2268316E+02  0.1514622E-08  0.1514622E-08  0.2900000E-08  0.5000000E-15
  1.000000000000000E-004
  CAR 
 NiAl                                    
      6.10359805    -25.41094705  301     -0.58131663      1.00000000
    -25.411  0.0000E+00  0.0000E+00
    -25.306  0.0000E+00  0.0000E+00
    -25.201  0.0000E+00  0.0000E+00
    -25.096  0.0000E+00  0.0000E+00
    -24.991  0.0000E+00  0.0000E+00
    -24.886  0.0000E+00  0.0000E+00
    -24.781  0.0000E+00  0.0000E+00
    -24.676  0.0000E+00  0.0000E+00
    -24.571  0.0000E+00  0.0000E+00
    -24.466  0.0000E+00  0.0000E+00
    -24.360  0.0000E+00  0.0000E+00
    -24.255  0.4360E-13  0.4580E-14
    -24.150  0.1074E-04  0.1129E-05
    -24.045  0.5510E+00  0.5788E-01
    -23.940  0.1580E+02  0.1717E+01
    -23.835  0.2689E+01  0.2000E+01
    -23.730  0.4965E-03  0.2000E+01
    -23.625  0.2159E-10  0.2000E+01
    -23.520  0.0000E+00  0.2000E+01
    -23.415  0.0000E+00  0.2000E+01
    -23.310  0.0000E+00  0.2000E+01
    -23.205  0.0000E+00  0.2000E+01
    -23.100  0.0000E+00  0.2000E+01
    -22.995  0.0000E+00  0.2000E+01
    -22.890  0.0000E+00  0.2000E+01
    -22.785  0.0000E+00  0.2000E+01
    -22.680  0.0000E+00  0.2000E+01
    -22.575  0.0000E+00  0.2000E+01
    -22.470  0.0000E+00  0.2000E+01
    -22.365  0.0000E+00  0.2000E+01
    -22.259  0.0000E+00  0.2000E+01
    -22.154  0.0000E+00  0.2000E+01
    -22.049  0.0000E+00  0.2000E+01
    -21.944  0.0000E+00  0.2000E+01
    -21.839  0.0000E+00  0.2000E+01
    -21.734  0.0000E+00  0.2000E+01
    -21.629  0.0000E+00  0.2000E+01
    -21.524  0.0000E+00  0.2000E+01
    -21.419  0.0000E+00  0.2000E+01
    -21.314  0.0000E+00  0.2000E+01
    -21.209  0.0000E+00  0.2000E+01
    -21.104  0.0000E+00  0.2000E+01
    -20.999  0.0000E+00  0.2000E+01
    -20.894  0.0000E+00  0.2000E+01
    -20.789  0.0000E+00  0.2000E+01
    -20.684  0.0000E+00  0.2000E+01
    -20.579  0.0000E+00  0.2000E+01
    -20.474  0.0000E+00  0.2000E+01
    -20.369  0.0000E+00  0.2000E+01
    -20.264  0.0000E+00  0.2000E+01
    -20.159  0.0000E+00  0.2000E+01
    -20.053  0.0000E+00  0.2000E+01
    -19.948  0.0000E+00  0.2000E+01
    -19.843  0.0000E+00  0.2000E+01
    -19.738  0.0000E+00  0.2000E+01
    -19.633  0.0000E+00  0.2000E+01
    -19.528  0.0000E+00  0.2000E+01
    -19.423  0.0000E+00  0.2000E+01
    -19.318  0.0000E+00  0.2000E+01
    -19.213  0.0000E+00  0.2000E+01
    -19.108  0.0000E+00  0.2000E+01
    -19.003  0.0000E+00  0.2000E+01
    -18.898  0.0000E+00  0.2000E+01
    -18.793  0.0000E+00  0.2000E+01
    -18.688  0.0000E+00  0.2000E+01
    -18.583  0.0000E+00  0.2000E+01
    -18.478  0.0000E+00  0.2000E+01
    -18.373  0.0000E+00  0.2000E+01
    -18.268  0.0000E+00  0.2000E+01
    -18.163  0.0000E+00  0.2000E+01
    -18.058  0.0000E+00  0.2000E+01
    -17.953  0.0000E+00  0.2000E+01
    -17.847  0.0000E+00  0.2000E+01
    -17.742  0.0000E+00  0.2000E+01
    -17.637  0.0000E+00  0.2000E+01
    -17.532  0.0000E+00  0.2000E+01
    -17.427  0.0000E+00  0.2000E+01
    -17.322  0.0000E+00  0.2000E+01
    -17.217  0.0000E+00  0.2000E+01
    -17.112  0.0000E+00  0.2000E+01
    -17.007  0.0000E+00  0.2000E+01
    -16.902  0.0000E+00  0.2000E+01
    -16.797  0.0000E+00  0.2000E+01
    -16.692  0.0000E+00  0.2000E+01
    -16.587  0.0000E+00  0.2000E+01
    -16.482  0.0000E+00  0.2000E+01
    -16.377  0.0000E+00  0.2000E+01
    -16.272  0.0000E+00  0.2000E+01
    -16.167  0.0000E+00  0.2000E+01
    -16.062  0.0000E+00  0.2000E+01
    -15.957  0.0000E+00  0.2000E+01
    -15.852  0.0000E+00  0.2000E+01
    -15.746  0.0000E+00  0.2000E+01
    -15.641  0.0000E+00  0.2000E+01
    -15.536  0.0000E+00  0.2000E+01
    -15.431  0.0000E+00  0.2000E+01
    -15.326  0.0000E+00  0.2000E+01
    -15.221  0.0000E+00  0.2000E+01
    -15.116  0.0000E+00  0.2000E+01
    -15.011  0.0000E+00  0.2000E+01
    -14.906  0.0000E+00  0.2000E+01
    -14.801  0.0000E+00  0.2000E+01
    -14.696  0.0000E+00  0.2000E+01
    -14.591  0.0000E+00  0.2000E+01
    -14.486  0.0000E+00  0.2000E+01
    -14.381  0.0000E+00  0.2000E+01
    -14.276  0.0000E+00  0.2000E+01
    -14.171  0.0000E+00  0.2000E+01
    -14.066  0.0000E+00  0.2000E+01
    -13.961  0.0000E+00  0.2000E+01
    -13.856  0.0000E+00  0.2000E+01
    -13.751  0.0000E+00  0.2000E+01
    -13.646  0.0000E+00  0.2000E+01
    -13.540  0.0000E+00  0.2000E+01
    -13.435  0.0000E+00  0.2000E+01
    -13.330  0.0000E+00  0.2000E+01
    -13.225  0.0000E+00  0.2000E+01
    -13.120  0.0000E+00  0.2000E+01
    -13.015  0.0000E+00  0.2000E+01
    -12.910  0.0000E+00  0.2000E+01
    -12.805  0.0000E+00  0.2000E+01
    -12.700  0.0000E+00  0.2000E+01
    -12.595  0.0000E+00  0.2000E+01
    -12.490  0.0000E+00  0.2000E+01
    -12.385  0.0000E+00  0.2000E+01
    -12.280  0.0000E+00  0.2000E+01
    -12.175  0.0000E+00  0.2000E+01
    -12.070  0.0000E+00  0.2000E+01
    -11.965  0.0000E+00  0.2000E+01
    -11.860  0.0000E+00  0.2000E+01
    -11.755  0.0000E+00  0.2000E+01
    -11.650  0.0000E+00  0.2000E+01
    -11.545  0.0000E+00  0.2000E+01
    -11.439  0.0000E+00  0.2000E+01
    -11.334  0.0000E+00  0.2000E+01
    -11.229  0.0000E+00  0.2000E+01
    -11.124  0.0000E+00  0.2000E+01
    -11.019  0.0000E+00  0.2000E+01
    -10.914  0.0000E+00  0.2000E+01
    -10.809  0.0000E+00  0.2000E+01
    -10.704  0.0000E+00  0.2000E+01
    -10.599  0.0000E+00  0.2000E+01
    -10.494  0.0000E+00  0.2000E+01
    -10.389  0.0000E+00  0.2000E+01
    -10.284  0.0000E+00  0.2000E+01
    -10.179  0.0000E+00  0.2000E+01
    -10.074  0.0000E+00  0.2000E+01
     -9.969  0.0000E+00  0.2000E+01
     -9.864  0.0000E+00  0.2000E+01
     -9.759  0.0000E+00  0.2000E+01
     -9.654  0.0000E+00  0.2000E+01
     -9.549  0.0000E+00  0.2000E+01
     -9.444  0.0000E+00  0.2000E+01
     -9.339  0.3541E-13  0.2000E+01
     -9.233  0.5692E-05  0.2000E+01
     -9.128  0.1951E+00  0.2021E+01
     -9.023  0.8958E+01  0.2962E+01
     -8.918  0.1472E+02  0.4507E+01
     -8.813  0.2080E+02  0.6692E+01
     -8.708  0.7685E+01  0.7499E+01
     -8.603  0.1519E+00  0.7515E+01
     -8.498  0.3984E+01  0.7934E+01
     -8.393  0.1139E+02  0.9131E+01
     -8.288  0.3872E+02  0.1320E+02
     -8.183  0.1497E+02  0.1477E+02
     -8.078  0.2093E+02  0.1697E+02
     -7.973  0.3353E+00  0.1700E+02
     -7.868  0.1435E+02  0.1851E+02
     -7.763  0.1448E+02  0.2003E+02
     -7.658  0.1723E+02  0.2184E+02
     -7.553  0.2558E+02  0.2453E+02
     -7.448  0.7138E+02  0.3203E+02
     -7.343  0.4481E+01  0.3250E+02
     -7.238  0.8974E-02  0.3250E+02
     -7.133  0.1170E+02  0.3373E+02
     -7.027  0.1089E+03  0.4517E+02
     -6.922  0.3348E+02  0.4869E+02
     -6.817  0.2467E+02  0.5128E+02
     -6.712  0.5210E+01  0.5183E+02
     -6.607  0.2853E+02  0.5482E+02
     -6.502  0.2984E+02  0.5796E+02
     -6.397  0.3799E+02  0.6195E+02
     -6.292  0.7822E+02  0.7017E+02
     -6.187  0.2724E+02  0.7303E+02
     -6.082  0.3588E+02  0.7680E+02
     -5.977  0.5487E+02  0.8256E+02
     -5.872  0.9773E+02  0.9283E+02
     -5.767  0.1118E+02  0.9400E+02
     -5.662  0.3226E+01  0.9434E+02
     -5.557  0.2448E+02  0.9691E+02
     -5.452  0.7649E+02  0.1049E+03
     -5.347  0.1545E+03  0.1212E+03
     -5.242  0.5055E+02  0.1265E+03
     -5.137  0.7545E+02  0.1344E+03
     -5.032  0.1148E+03  0.1465E+03
     -4.926  0.9655E+02  0.1566E+03
     -4.821  0.4187E+02  0.1610E+03
     -4.716  0.2318E+03  0.1854E+03
     -4.611  0.1763E+03  0.2039E+03
     -4.506  0.2370E+03  0.2288E+03
     -4.401  0.2373E+03  0.2537E+03
     -4.296  0.3171E+03  0.2870E+03
     -4.191  0.2371E+03  0.3119E+03
     -4.086  0.2496E+03  0.3381E+03
     -3.981  0.3910E+03  0.3792E+03
     -3.876  0.4942E+03  0.4311E+03
     -3.771  0.4688E+03  0.4804E+03
     -3.666  0.4704E+03  0.5298E+03
     -3.561  0.4544E+03  0.5775E+03
     -3.456  0.3747E+03  0.6169E+03
     -3.351  0.3538E+03  0.6541E+03
     -3.246  0.3799E+03  0.6940E+03
     -3.141  0.5590E+03  0.7527E+03
     -3.036  0.3982E+03  0.7945E+03
     -2.931  0.4593E+03  0.8428E+03
     -2.826  0.5923E+03  0.9050E+03
     -2.720  0.4802E+03  0.9554E+03
     -2.615  0.5491E+03  0.1013E+04
     -2.510  0.6376E+03  0.1080E+04
     -2.405  0.7104E+03  0.1155E+04
     -2.300  0.8317E+03  0.1242E+04
     -2.195  0.9090E+03  0.1338E+04
     -2.090  0.8082E+03  0.1422E+04
     -1.985  0.8958E+03  0.1517E+04
     -1.880  0.6210E+03  0.1582E+04
     -1.775  0.5965E+03  0.1644E+04
     -1.670  0.5591E+03  0.1703E+04
     -1.565  0.5435E+03  0.1760E+04
     -1.460  0.6949E+03  0.1833E+04
     -1.355  0.8012E+03  0.1917E+04
     -1.250  0.5185E+03  0.1972E+04
     -1.145  0.6251E+03  0.2038E+04
     -1.040  0.7604E+03  0.2117E+04
     -0.935  0.8858E+03  0.2211E+04
     -0.830  0.6309E+03  0.2277E+04
     -0.725  0.7981E+03  0.2361E+04
     -0.620  0.1161E+04  0.2483E+04
     -0.514  0.1013E+04  0.2589E+04
     -0.409  0.5155E+03  0.2643E+04
     -0.304  0.2145E+03  0.2666E+04
     -0.199  0.1159E+03  0.2678E+04
     -0.094  0.1590E+03  0.2695E+04
      0.011  0.1630E+03  0.2712E+04
      0.116  0.4356E+02  0.2716E+04
      0.221  0.6527E+02  0.2723E+04
      0.326  0.1682E+02  0.2725E+04
      0.431  0.1153E+03  0.2737E+04
      0.536  0.8215E+02  0.2746E+04
      0.641  0.1086E+03  0.2757E+04
      0.746  0.6338E+02  0.2764E+04
      0.851  0.1017E+03  0.2774E+04
      0.956  0.1356E+03  0.2789E+04
      1.061  0.8912E+02  0.2798E+04
      1.166  0.2137E+02  0.2800E+04
      1.271  0.5884E+02  0.2806E+04
      1.376  0.1181E+03  0.2819E+04
      1.481  0.2993E+02  0.2822E+04
      1.587  0.7103E+02  0.2829E+04
      1.692  0.1001E+03  0.2840E+04
      1.797  0.8744E+02  0.2849E+04
      1.902  0.7705E+02  0.2857E+04
      2.007  0.1003E+03  0.2868E+04
      2.112  0.3127E+02  0.2871E+04
      2.217  0.9716E+02  0.2881E+04
      2.322  0.1036E+03  0.2892E+04
      2.427  0.8624E+02  0.2901E+04
      2.532  0.2070E+02  0.2903E+04
      2.637  0.8481E+02  0.2912E+04
      2.742  0.4894E+02  0.2917E+04
      2.847  0.1360E+02  0.2919E+04
      2.952  0.6667E+02  0.2926E+04
      3.057  0.1601E+03  0.2943E+04
      3.162  0.1850E+03  0.2962E+04
      3.267  0.3750E+02  0.2966E+04
      3.372  0.2348E+02  0.2968E+04
      3.477  0.7363E+02  0.2976E+04
      3.582  0.6894E+02  0.2983E+04
      3.687  0.3227E+02  0.2987E+04
      3.793  0.7863E+02  0.2995E+04
      3.898  0.1075E+02  0.2996E+04
      4.003  0.2567E+02  0.2999E+04
      4.108  0.2081E+02  0.3001E+04
      4.213  0.8701E+02  0.3010E+04
      4.318  0.2259E+02  0.3013E+04
      4.423  0.8227E+02  0.3021E+04
      4.528  0.7408E+02  0.3029E+04
      4.633  0.3903E+02  0.3033E+04
      4.738  0.2666E+02  0.3036E+04
      4.843  0.3179E+00  0.3036E+04
      4.948  0.5508E-05  0.3036E+04
      5.053  0.2219E-13  0.3036E+04
      5.158  0.0000E+00  0.3036E+04
      5.263  0.0000E+00  0.3036E+04
      5.368  0.0000E+00  0.3036E+04
      5.473  0.0000E+00  0.3036E+04
      5.578  0.0000E+00  0.3036E+04
      5.683  0.0000E+00  0.3036E+04
      5.788  0.0000E+00  0.3036E+04
      5.894  0.0000E+00  0.3036E+04
      5.999  0.0000E+00  0.3036E+04
      6.104  0.0000E+00  0.3036E+04
