  254  254    1    1
  0.2268316E+02  0.1514622E-08  0.1514622E-08  0.2900000E-08  0.5000000E-15
  1.000000000000000E-004
  CAR 
 NiAl                                    
   2530      4   1518
 
  0.0000000E+00  0.0000000E+00  0.0000000E+00  0.2500000E+00
    1      -23.978118   1.000000
    2       -9.066704   1.000000
    3       -9.000402   1.000000
    4       -8.537164   1.000000
    5       -8.160379   1.000000
    6       -8.160213   1.000000
    7       -8.160064   1.000000
    8       -8.159846   1.000000
    9       -8.159721   1.000000
   10       -8.159338   1.000000
   11       -7.710487   1.000000
   12       -7.654584   1.000000
   13       -7.654494   1.000000
   14       -7.654198   1.000000
   15       -7.653990   1.000000
   16       -7.653867   1.000000
   17       -7.653685   1.000000
   18       -7.068211   1.000000
   19       -7.065744   1.000000
   20       -6.869099   1.000000
   21       -6.868938   1.000000
   22       -6.868645   1.000000
   23       -6.868540   1.000000
   24       -6.868425   1.000000
   25       -6.868212   1.000000
   26       -6.685635   1.000000
   27       -6.524744   1.000000
   28       -6.524678   1.000000
   29       -6.524564   1.000000
   30       -6.524171   1.000000
   31       -6.524062   1.000000
   32       -6.523992   1.000000
   33       -6.104481   1.000000
   34       -6.104382   1.000000
   35       -6.104187   1.000000
   36       -6.103986   1.000000
   37       -6.103779   1.000000
   38       -6.103670   1.000000
   39       -5.903496   1.000000
   40       -5.903422   1.000000
   41       -5.903355   1.000000
   42       -5.903291   1.000000
   43       -5.903169   1.000000
   44       -5.903116   1.000000
   45       -5.903081   1.000000
   46       -5.902955   1.000000
   47       -5.902717   1.000000
   48       -5.902604   1.000000
   49       -5.902586   1.000000
   50       -5.902279   1.000000
   51       -5.675394   1.000000
   52       -5.571835   1.000000
   53       -5.571822   1.000000
   54       -5.571776   1.000000
   55       -5.571677   1.000000
   56       -5.571616   1.000000
   57       -5.571598   1.000000
   58       -5.521190   1.000000
   59       -5.477381   1.000000
   60       -5.477258   1.000000
   61       -5.477123   1.000000
   62       -5.476848   1.000000
   63       -5.476706   1.000000
   64       -5.476615   1.000000
   65       -5.124234   1.000000
   66       -5.124154   1.000000
   67       -5.124102   1.000000
   68       -5.124036   1.000000
   69       -5.123999   1.000000
   70       -5.123963   1.000000
   71       -5.041049   1.000000
   72       -4.967168   1.000000
   73       -4.967059   1.000000
   74       -4.966726   1.000000
   75       -4.966703   1.000000
   76       -4.966546   1.000000
   77       -4.966313   1.000000
   78       -4.869218   1.000000
   79       -4.794492   1.000000
   80       -4.794469   1.000000
   81       -4.794422   1.000000
   82       -4.755241   1.000000
   83       -4.755136   1.000000
   84       -4.755008   1.000000
   85       -4.754729   1.000000
   86       -4.754581   1.000000
   87       -4.754484   1.000000
   88       -4.671517   1.000000
   89       -4.671455   1.000000
   90       -4.671413   1.000000
   91       -4.671344   1.000000
   92       -4.671156   1.000000
   93       -4.671122   1.000000
   94       -4.653574   1.000000
   95       -4.653503   1.000000
   96       -4.653458   1.000000
   97       -4.561133   1.000000
   98       -4.561028   1.000000
   99       -4.560819   1.000000
  100       -4.560733   1.000000
  101       -4.560658   1.000000
  102       -4.560541   1.000000
  103       -4.560444   1.000000
  104       -4.560338   1.000000
  105       -4.560273   1.000000
  106       -4.560140   1.000000
  107       -4.560113   1.000000
  108       -4.560048   1.000000
  109       -4.518429   1.000000
  110       -4.518409   1.000000
  111       -4.518340   1.000000
  112       -4.448025   1.000000
  113       -4.447987   1.000000
  114       -4.447899   1.000000
  115       -4.413503   1.000000
  116       -4.413352   1.000000
  117       -4.412934   1.000000
  118       -4.412638   1.000000
  119       -4.412541   1.000000
  120       -4.412207   1.000000
  121       -4.357450   1.000000
  122       -4.357237   1.000000
  123       -4.357203   1.000000
  124       -4.357142   1.000000
  125       -4.357029   1.000000
  126       -4.356933   1.000000
  127       -4.356800   1.000000
  128       -4.356727   1.000000
  129       -4.356677   1.000000
  130       -4.356636   1.000000
  131       -4.356511   1.000000
  132       -4.356294   1.000000
  133       -4.346665   1.000000
  134       -4.346629   1.000000
  135       -4.346559   1.000000
  136       -4.346481   1.000000
  137       -4.346281   1.000000
  138       -4.346189   1.000000
  139       -4.346054   1.000000
  140       -4.346007   1.000000
  141       -4.345883   1.000000
  142       -4.345740   1.000000
  143       -4.345663   1.000000
  144       -4.345323   1.000000
  145       -4.300498   1.000000
  146       -4.300324   1.000000
  147       -4.299907   1.000000
  148       -4.299743   1.000000
  149       -4.299426   1.000000
  150       -4.299101   1.000000
  151       -4.263898   1.000000
  152       -4.263765   1.000000
  153       -4.263649   1.000000
  154       -4.263576   1.000000
  155       -4.263367   1.000000
  156       -4.263322   1.000000
  157       -4.242996   1.000000
  158       -4.242916   1.000000
  159       -4.242830   1.000000
  160       -4.205445   1.000000
  161       -4.205261   1.000000
  162       -4.205192   1.000000
  163       -4.205098   1.000000
  164       -4.205080   1.000000
  165       -4.204911   1.000000
  166       -4.204714   1.000000
  167       -4.204609   1.000000
  168       -4.204587   1.000000
  169       -4.204449   1.000000
  170       -4.204403   1.000000
  171       -4.204189   1.000000
  172       -4.142515   1.000000
  173       -4.142513   1.000000
  174       -4.142335   1.000000
  175       -4.113832   1.000000
  176       -4.113755   1.000000
  177       -4.113564   1.000000
  178       -4.113336   1.000000
  179       -4.113167   1.000000
  180       -4.113084   1.000000
  181       -4.034434   1.000000
  182       -4.034398   1.000000
  183       -4.034280   1.000000
  184       -4.007428   1.000000
  185       -4.007376   1.000000
  186       -4.007314   1.000000
  187       -4.007194   1.000000
  188       -4.007130   1.000000
  189       -4.006948   1.000000
  190       -4.006874   1.000000
  191       -4.006751   1.000000
  192       -4.006577   1.000000
  193       -4.006551   1.000000
  194       -4.006422   1.000000
  195       -4.006394   1.000000
  196       -3.973285   1.000000
  197       -3.973284   1.000000
  198       -3.973136   1.000000
  199       -3.908980   1.000000
  200       -3.908906   1.000000
  201       -3.908741   1.000000
  202       -3.908204   1.000000
  203       -3.908144   1.000000
  204       -3.908065   1.000000
  205       -3.907978   1.000000
  206       -3.907871   1.000000
  207       -3.907735   1.000000
  208       -3.863284   1.000000
  209       -3.863241   1.000000
  210       -3.863034   1.000000
  211       -3.862839   1.000000
  212       -3.862695   1.000000
  213       -3.862513   1.000000
  214       -3.862490   1.000000
  215       -3.862442   1.000000
  216       -3.862287   1.000000
  217       -3.862067   1.000000
  218       -3.862037   1.000000
  219       -3.861733   1.000000
  220       -3.851198   1.000000
  221       -3.851047   1.000000
  222       -3.850983   1.000000
  223       -3.850846   1.000000
  224       -3.850770   1.000000
  225       -3.850727   1.000000
  226       -3.768255   1.000000
  227       -3.768108   1.000000
  228       -3.768082   1.000000
  229       -3.767926   1.000000
  230       -3.767867   1.000000
  231       -3.767747   1.000000
  232       -3.767623   1.000000
  233       -3.767471   1.000000
  234       -3.767361   1.000000
  235       -3.767326   1.000000
  236       -3.767251   1.000000
  237       -3.767218   1.000000
  238       -3.736776   1.000000
  239       -3.736654   1.000000
  240       -3.736500   1.000000
  241       -3.735971   1.000000
  242       -3.735865   1.000000
  243       -3.735740   1.000000
  244       -3.721175   1.000000
  245       -3.721038   1.000000
  246       -3.720081   1.000000
  247       -3.720073   1.000000
  248       -3.716758   1.000000
  249       -3.716725   1.000000
  250       -3.716708   1.000000
  251       -3.716535   1.000000
  252       -3.716510   1.000000
  253       -3.716345   1.000000
  254       -3.711497   1.000000
  255       -3.710591   1.000000
  256       -3.671095   1.000000
  257       -3.670802   1.000000
  258       -3.670725   1.000000
  259       -3.670547   1.000000
  260       -3.670475   1.000000
  261       -3.670438   1.000000
  262       -3.670064   1.000000
  263       -3.669999   1.000000
  264       -3.669974   1.000000
  265       -3.669915   1.000000
  266       -3.669723   1.000000
  267       -3.669526   1.000000
  268       -3.659728   1.000000
  269       -3.659709   1.000000
  270       -3.659615   1.000000
  271       -3.611422   1.000000
  272       -3.611147   1.000000
  273       -3.611005   1.000000
  274       -3.610887   1.000000
  275       -3.610578   1.000000
  276       -3.610527   1.000000
  277       -3.604348   1.000000
  278       -3.604238   1.000000
  279       -3.603907   1.000000
  280       -3.603890   1.000000
  281       -3.584643   1.000000
  282       -3.584603   1.000000
  283       -3.569146   1.000000
  284       -3.569077   1.000000
  285       -3.568910   1.000000
  286       -3.568097   1.000000
  287       -3.567992   1.000000
  288       -3.567904   1.000000
  289       -3.557777   1.000000
  290       -3.557724   1.000000
  291       -3.556723   1.000000
  292       -3.556675   1.000000
  293       -3.552727   1.000000
  294       -3.552554   1.000000
  295       -3.486332   1.000000
  296       -3.486326   1.000000
  297       -3.486094   1.000000
  298       -3.486083   1.000000
  299       -3.481335   1.000000
  300       -3.481252   1.000000
  301       -3.481129   1.000000
  302       -3.481068   1.000000
  303       -3.480877   1.000000
  304       -3.480774   1.000000
  305       -3.480762   1.000000
  306       -3.480562   1.000000
  307       -3.480436   1.000000
  308       -3.480306   1.000000
  309       -3.480196   1.000000
  310       -3.479947   1.000000
  311       -3.435016   1.000000
  312       -3.434876   1.000000
  313       -3.434622   1.000000
  314       -3.434168   1.000000
  315       -3.433927   1.000000
  316       -3.433763   1.000000
  317       -3.399314   1.000000
  318       -3.399234   1.000000
  319       -3.398985   1.000000
  320       -3.398279   1.000000
  321       -3.398155   1.000000
  322       -3.398077   1.000000
  323       -3.395508   1.000000
  324       -3.395249   1.000000
  325       -3.395065   1.000000
  326       -3.394874   1.000000
  327       -3.394805   1.000000
  328       -3.394694   1.000000
  329       -3.394571   1.000000
  330       -3.394545   1.000000
  331       -3.394342   1.000000
  332       -3.394203   1.000000
  333       -3.394154   1.000000
  334       -3.393965   1.000000
  335       -3.378464   1.000000
  336       -3.378358   1.000000
  337       -3.378273   1.000000
  338       -3.378199   1.000000
  339       -3.378188   1.000000
  340       -3.378028   1.000000
  341       -3.283641   1.000000
  342       -3.283600   1.000000
  343       -3.283551   1.000000
  344       -3.258969   1.000000
  345       -3.258817   1.000000
  346       -3.258592   1.000000
  347       -3.258005   1.000000
  348       -3.257853   1.000000
  349       -3.257725   1.000000
  350       -3.218871   1.000000
  351       -3.218768   1.000000
  352       -3.205188   1.000000
  353       -3.205053   1.000000
  354       -3.204872   1.000000
  355       -3.204812   1.000000
  356       -3.204712   1.000000
  357       -3.204667   1.000000
  358       -3.204541   1.000000
  359       -3.204485   1.000000
  360       -3.204415   1.000000
  361       -3.204165   1.000000
  362       -3.204055   1.000000
  363       -3.203940   1.000000
  364       -3.178330   1.000000
  365       -3.178267   1.000000
  366       -3.140511   1.000000
  367       -3.140430   1.000000
  368       -3.140229   1.000000
  369       -3.140165   1.000000
  370       -3.140102   1.000000
  371       -3.140029   1.000000
  372       -3.135538   1.000000
  373       -3.135328   1.000000
  374       -3.135283   1.000000
  375       -3.135158   1.000000
  376       -3.135033   1.000000
  377       -3.134779   1.000000
  378       -3.131558   1.000000
  379       -3.131363   1.000000
  380       -3.131121   1.000000
  381       -3.130793   1.000000
  382       -3.130607   1.000000
  383       -3.130461   1.000000
  384       -3.064658   1.000000
  385       -3.064655   1.000000
  386       -3.064567   1.000000
  387       -3.064481   1.000000
  388       -3.064311   1.000000
  389       -3.064274   1.000000
  390       -3.064208   1.000000
  391       -3.064169   1.000000
  392       -3.064092   1.000000
  393       -3.063999   1.000000
  394       -3.063943   1.000000
  395       -3.063883   1.000000
  396       -3.028060   1.000000
  397       -3.027912   1.000000
  398       -3.027867   1.000000
  399       -3.027062   1.000000
  400       -3.026958   1.000000
  401       -3.026836   1.000000
  402       -2.955915   1.000000
  403       -2.955839   1.000000
  404       -2.955728   1.000000
  405       -2.955563   1.000000
  406       -2.955474   1.000000
  407       -2.955378   1.000000
  408       -2.944209   1.000000
  409       -2.944126   1.000000
  410       -2.944026   1.000000
  411       -2.943544   1.000000
  412       -2.943455   1.000000
  413       -2.943286   1.000000
  414       -2.928135   1.000000
  415       -2.928103   1.000000
  416       -2.928004   1.000000
  417       -2.927964   1.000000
  418       -2.927859   1.000000
  419       -2.927831   1.000000
  420       -2.905217   1.000000
  421       -2.905148   1.000000
  422       -2.904923   1.000000
  423       -2.904743   1.000000
  424       -2.904637   1.000000
  425       -2.904474   1.000000
  426       -2.883818   1.000000
  427       -2.883691   1.000000
  428       -2.883640   1.000000
  429       -2.883542   1.000000
  430       -2.883520   1.000000
  431       -2.883442   1.000000
  432       -2.883315   1.000000
  433       -2.883252   1.000000
  434       -2.883239   1.000000
  435       -2.883154   1.000000
  436       -2.883091   1.000000
  437       -2.882971   1.000000
  438       -2.880632   1.000000
  439       -2.880580   1.000000
  440       -2.880446   1.000000
  441       -2.880347   1.000000
  442       -2.880306   1.000000
  443       -2.880289   1.000000
  444       -2.819638   1.000000
  445       -2.819602   1.000000
  446       -2.819535   1.000000
  447       -2.817021   1.000000
  448       -2.816783   1.000000
  449       -2.816719   1.000000
  450       -2.816704   1.000000
  451       -2.816544   1.000000
  452       -2.816476   1.000000
  453       -2.810992   1.000000
  454       -2.810882   1.000000
  455       -2.810813   1.000000
  456       -2.810733   1.000000
  457       -2.810668   1.000000
  458       -2.810544   1.000000
  459       -2.810500   1.000000
  460       -2.810466   1.000000
  461       -2.810391   1.000000
  462       -2.810309   1.000000
  463       -2.810194   1.000000
  464       -2.810139   1.000000
  465       -2.759410   1.000000
  466       -2.759348   1.000000
  467       -2.758302   1.000000
  468       -2.758251   1.000000
  469       -2.726506   1.000000
  470       -2.726202   1.000000
  471       -2.726169   1.000000
  472       -2.726050   1.000000
  473       -2.725945   1.000000
  474       -2.725775   1.000000
  475       -2.723489   1.000000
  476       -2.723430   1.000000
  477       -2.723310   1.000000
  478       -2.723127   1.000000
  479       -2.722621   1.000000
  480       -2.722437   1.000000
  481       -2.717857   1.000000
  482       -2.717746   1.000000
  483       -2.717677   1.000000
  484       -2.717324   1.000000
  485       -2.717140   1.000000
  486       -2.717012   1.000000
  487       -2.703043   1.000000
  488       -2.702982   1.000000
  489       -2.702916   1.000000
  490       -2.702836   1.000000
  491       -2.702682   1.000000
  492       -2.702621   1.000000
  493       -2.702606   1.000000
  494       -2.702465   1.000000
  495       -2.702393   1.000000
  496       -2.702355   1.000000
  497       -2.702258   1.000000
  498       -2.702184   1.000000
  499       -2.696291   1.000000
  500       -2.696188   1.000000
  501       -2.666929   1.000000
  502       -2.666628   1.000000
  503       -2.666442   1.000000
  504       -2.666385   1.000000
  505       -2.666182   1.000000
  506       -2.665844   1.000000
  507       -2.632675   1.000000
  508       -2.632628   1.000000
  509       -2.632567   1.000000
  510       -2.632541   1.000000
  511       -2.632459   1.000000
  512       -2.632425   1.000000
  513       -2.628949   1.000000
  514       -2.598449   1.000000
  515       -2.598439   1.000000
  516       -2.598130   1.000000
  517       -2.598105   1.000000
  518       -2.592320   1.000000
  519       -2.592220   1.000000
  520       -2.591983   1.000000
  521       -2.591751   1.000000
  522       -2.591702   1.000000
  523       -2.591394   1.000000
  524       -2.587688   1.000000
  525       -2.541261   1.000000
  526       -2.541151   1.000000
  527       -2.541082   1.000000
  528       -2.541020   1.000000
  529       -2.540944   1.000000
  530       -2.540838   1.000000
  531       -2.540802   1.000000
  532       -2.540669   1.000000
  533       -2.540508   1.000000
  534       -2.540470   1.000000
  535       -2.540407   1.000000
  536       -2.540365   1.000000
  537       -2.529103   1.000000
  538       -2.529014   1.000000
  539       -2.528871   1.000000
  540       -2.528649   1.000000
  541       -2.528490   1.000000
  542       -2.528304   1.000000
  543       -2.528011   1.000000
  544       -2.527965   1.000000
  545       -2.527825   1.000000
  546       -2.503549   1.000000
  547       -2.503520   1.000000
  548       -2.503449   1.000000
  549       -2.492789   1.000000
  550       -2.492685   1.000000
  551       -2.492572   1.000000
  552       -2.492452   1.000000
  553       -2.492436   1.000000
  554       -2.492192   1.000000
  555       -2.474462   1.000000
  556       -2.474410   1.000000
  557       -2.474320   1.000000
  558       -2.474025   1.000000
  559       -2.473995   1.000000
  560       -2.473927   1.000000
  561       -2.463832   1.000000
  562       -2.463792   1.000000
  563       -2.463670   1.000000
  564       -2.463612   1.000000
  565       -2.463527   1.000000
  566       -2.463481   1.000000
  567       -2.463434   1.000000
  568       -2.463386   1.000000
  569       -2.463290   1.000000
  570       -2.463255   1.000000
  571       -2.463089   1.000000
  572       -2.463062   1.000000
  573       -2.459636   1.000000
  574       -2.459415   1.000000
  575       -2.439083   1.000000
  576       -2.438940   1.000000
  577       -2.417697   1.000000
  578       -2.417492   1.000000
  579       -2.417436   1.000000
  580       -2.417297   1.000000
  581       -2.417182   1.000000
  582       -2.417066   1.000000
  583       -2.416947   1.000000
  584       -2.416879   1.000000
  585       -2.416861   1.000000
  586       -2.416732   1.000000
  587       -2.416578   1.000000
  588       -2.416310   1.000000
  589       -2.392613   1.000000
  590       -2.392570   1.000000
  591       -2.392473   1.000000
  592       -2.392106   1.000000
  593       -2.392017   1.000000
  594       -2.392007   1.000000
  595       -2.388068   1.000000
  596       -2.374751   1.000000
  597       -2.374732   1.000000
  598       -2.374540   1.000000
  599       -2.373794   1.000000
  600       -2.373642   1.000000
  601       -2.373583   1.000000
  602       -2.372732   1.000000
  603       -2.372636   1.000000
  604       -2.372454   1.000000
  605       -2.369361   1.000000
  606       -2.369036   1.000000
  607       -2.368578   1.000000
  608       -2.368548   1.000000
  609       -2.368331   1.000000
  610       -2.368135   1.000000
  611       -2.362667   1.000000
  612       -2.362444   1.000000
  613       -2.303794   1.000000
  614       -2.303521   1.000000
  615       -2.303431   1.000000
  616       -2.303287   1.000000
  617       -2.302896   1.000000
  618       -2.302669   1.000000
  619       -2.302464   1.000000
  620       -2.296763   1.000000
  621       -2.296614   1.000000
  622       -2.295814   1.000000
  623       -2.295708   1.000000
  624       -2.295610   1.000000
  625       -2.271213   1.000000
  626       -2.271102   1.000000
  627       -2.271059   1.000000
  628       -2.271005   1.000000
  629       -2.270909   1.000000
  630       -2.270787   1.000000
  631       -2.269975   1.000000
  632       -2.269598   1.000000
  633       -2.269490   1.000000
  634       -2.269278   1.000000
  635       -2.269027   1.000000
  636       -2.268637   1.000000
  637       -2.249312   1.000000
  638       -2.249237   1.000000
  639       -2.249214   1.000000
  640       -2.244727   1.000000
  641       -2.244681   1.000000
  642       -2.244606   1.000000
  643       -2.236058   1.000000
  644       -2.235842   1.000000
  645       -2.214867   1.000000
  646       -2.214679   1.000000
  647       -2.214601   1.000000
  648       -2.214499   1.000000
  649       -2.214365   1.000000
  650       -2.214348   1.000000
  651       -2.214284   1.000000
  652       -2.214166   1.000000
  653       -2.214085   1.000000
  654       -2.214009   1.000000
  655       -2.213931   1.000000
  656       -2.213687   1.000000
  657       -2.203768   1.000000
  658       -2.203593   1.000000
  659       -2.203498   1.000000
  660       -2.203344   1.000000
  661       -2.203052   1.000000
  662       -2.202972   1.000000
  663       -2.201121   1.000000
  664       -2.200955   1.000000
  665       -2.200831   1.000000
  666       -2.200587   1.000000
  667       -2.200547   1.000000
  668       -2.200364   1.000000
  669       -2.195493   1.000000
  670       -2.195487   1.000000
  671       -2.195052   1.000000
  672       -2.195043   1.000000
  673       -2.161176   1.000000
  674       -2.161047   1.000000
  675       -2.160904   1.000000
  676       -2.160849   1.000000
  677       -2.160779   1.000000
  678       -2.160625   1.000000
  679       -2.151463   1.000000
  680       -2.151326   1.000000
  681       -2.151138   1.000000
  682       -2.150766   1.000000
  683       -2.150719   1.000000
  684       -2.150563   1.000000
  685       -2.136850   1.000000
  686       -2.107679   1.000000
  687       -2.107407   1.000000
  688       -2.107196   1.000000
  689       -2.107170   1.000000
  690       -2.107038   1.000000
  691       -2.106899   1.000000
  692       -2.106835   1.000000
  693       -2.106749   1.000000
  694       -2.106611   1.000000
  695       -2.106468   1.000000
  696       -2.106280   1.000000
  697       -2.106081   1.000000
  698       -2.104945   1.000000
  699       -2.104759   1.000000
  700       -2.098577   1.000000
  701       -2.098542   1.000000
  702       -2.098416   1.000000
  703       -2.098168   1.000000
  704       -2.097905   1.000000
  705       -2.097722   1.000000
  706       -2.096984   1.000000
  707       -2.096750   1.000000
  708       -2.096581   1.000000
  709       -2.096255   1.000000
  710       -2.096174   1.000000
  711       -2.096140   1.000000
  712       -2.095874   1.000000
  713       -2.095425   1.000000
  714       -2.093696   1.000000
  715       -2.093681   1.000000
  716       -2.093669   1.000000
  717       -2.093662   1.000000
  718       -2.078050   1.000000
  719       -2.077614   1.000000
  720       -2.077504   1.000000
  721       -2.077248   1.000000
  722       -2.077142   1.000000
  723       -2.077046   1.000000
  724       -2.020636   1.000000
  725       -2.020530   1.000000
  726       -2.020480   1.000000
  727       -2.020358   1.000000
  728       -2.020209   1.000000
  729       -2.020174   1.000000
  730       -2.016905   1.000000
  731       -2.016842   1.000000
  732       -2.016663   1.000000
  733       -2.016565   1.000000
  734       -2.016465   1.000000
  735       -2.016397   1.000000
  736       -2.016334   1.000000
  737       -2.016327   1.000000
  738       -2.016260   1.000000
  739       -2.016097   1.000000
  740       -2.016001   1.000000
  741       -2.015963   1.000000
  742       -1.981963   1.000000
  743       -1.981599   1.000000
  744       -1.981431   1.000000
  745       -1.981304   1.000000
  746       -1.981137   1.000000
  747       -1.980775   1.000000
  748       -1.975115   1.000000
  749       -1.974911   1.000000
  750       -1.974811   1.000000
  751       -1.974643   1.000000
  752       -1.974588   1.000000
  753       -1.974410   1.000000
  754       -1.924399   1.000000
  755       -1.924283   1.000000
  756       -1.924176   1.000000
  757       -1.923989   1.000000
  758       -1.923822   1.000000
  759       -1.923681   1.000000
  760       -1.918051   1.000000
  761       -1.918000   1.000000
  762       -1.917755   1.000000
  763       -1.917713   1.000000
  764       -1.917645   1.000000
  765       -1.917535   1.000000
  766       -1.917529   1.000000
  767       -1.917516   1.000000
  768       -1.917455   1.000000
  769       -1.917330   1.000000
  770       -1.917178   1.000000
  771       -1.917141   1.000000
  772       -1.917043   1.000000
  773       -1.916948   1.000000
  774       -1.916772   1.000000
  775       -1.916348   1.000000
  776       -1.916282   1.000000
  777       -1.916091   1.000000
  778       -1.887118   1.000000
  779       -1.887037   1.000000
  780       -1.886980   1.000000
  781       -1.880173   1.000000
  782       -1.879836   1.000000
  783       -1.879704   1.000000
  784       -1.879447   1.000000
  785       -1.879117   1.000000
  786       -1.878812   1.000000
  787       -1.858994   1.000000
  788       -1.858861   1.000000
  789       -1.858694   1.000000
  790       -1.858671   1.000000
  791       -1.858247   1.000000
  792       -1.858038   1.000000
  793       -1.835857   1.000000
  794       -1.835761   1.000000
  795       -1.835203   1.000000
  796       -1.835107   1.000000
  797       -1.834906   1.000000
  798       -1.834660   1.000000
  799       -1.824754   1.000000
  800       -1.824695   1.000000
  801       -1.824560   1.000000
  802       -1.824406   1.000000
  803       -1.824274   1.000000
  804       -1.824187   1.000000
  805       -1.797501   1.000000
  806       -1.797408   1.000000
  807       -1.797302   1.000000
  808       -1.797181   1.000000
  809       -1.797089   1.000000
  810       -1.797053   1.000000
  811       -1.796835   1.000000
  812       -1.796727   1.000000
  813       -1.796621   1.000000
  814       -1.796563   1.000000
  815       -1.796424   1.000000
  816       -1.796182   1.000000
  817       -1.756789   1.000000
  818       -1.756660   1.000000
  819       -1.756657   1.000000
  820       -1.756544   1.000000
  821       -1.756372   1.000000
  822       -1.756302   1.000000
  823       -1.756259   1.000000
  824       -1.756125   1.000000
  825       -1.756018   1.000000
  826       -1.755960   1.000000
  827       -1.755849   1.000000
  828       -1.755786   1.000000
  829       -1.750474   1.000000
  830       -1.750384   1.000000
  831       -1.750307   1.000000
  832       -1.750063   1.000000
  833       -1.749700   1.000000
  834       -1.749343   1.000000
  835       -1.748686   1.000000
  836       -1.748553   1.000000
  837       -1.748463   1.000000
  838       -1.747719   1.000000
  839       -1.747542   1.000000
  840       -1.747312   1.000000
  841       -1.743007   1.000000
  842       -1.742874   1.000000
  843       -1.742732   1.000000
  844       -1.742035   1.000000
  845       -1.741995   1.000000
  846       -1.741863   1.000000
  847       -1.727570   1.000000
  848       -1.727421   1.000000
  849       -1.727263   1.000000
  850       -1.727168   1.000000
  851       -1.727073   1.000000
  852       -1.726943   1.000000
  853       -1.713829   1.000000
  854       -1.713776   1.000000
  855       -1.713691   1.000000
  856       -1.685320   1.000000
  857       -1.685249   1.000000
  858       -1.685173   1.000000
  859       -1.685095   1.000000
  860       -1.685068   1.000000
  861       -1.685001   1.000000
  862       -1.670798   1.000000
  863       -1.670749   1.000000
  864       -1.670584   1.000000
  865       -1.669617   1.000000
  866       -1.669464   1.000000
  867       -1.669290   1.000000
  868       -1.668968   1.000000
  869       -1.668901   1.000000
  870       -1.668749   1.000000
  871       -1.620648   1.000000
  872       -1.620457   1.000000
  873       -1.620384   1.000000
  874       -1.620299   1.000000
  875       -1.620226   1.000000
  876       -1.620151   1.000000
  877       -1.620139   1.000000
  878       -1.620085   1.000000
  879       -1.620025   1.000000
  880       -1.619858   1.000000
  881       -1.619802   1.000000
  882       -1.619669   1.000000
  883       -1.605035   1.000000
  884       -1.604814   1.000000
  885       -1.604655   1.000000
  886       -1.604516   1.000000
  887       -1.604328   1.000000
  888       -1.604139   1.000000
  889       -1.575114   1.000000
  890       -1.571948   1.000000
  891       -1.571725   1.000000
  892       -1.571596   1.000000
  893       -1.571478   1.000000
  894       -1.571169   1.000000
  895       -1.570987   1.000000
  896       -1.502779   1.000000
  897       -1.502499   1.000000
  898       -1.502447   1.000000
  899       -1.502305   1.000000
  900       -1.502271   1.000000
  901       -1.502192   1.000000