       N       E                     dE             d eps       ncg     rms          rms(c)
DAV:   1     0.181966372775E+05    0.18197E+05   -0.91676E+05 12240   0.112E+03
DAV:   2    -0.161445007793E+03   -0.18358E+05   -0.17381E+05 12816   0.399E+02
DAV:   3    -0.140658947466E+04   -0.12451E+04   -0.10274E+04 14028   0.103E+02
DAV:   4    -0.157447525962E+04   -0.16789E+03   -0.14889E+03 21804   0.380E+01
DAV:   5    -0.158066563873E+04   -0.61904E+01   -0.58736E+01 20232   0.710E+00    0.146E+02
DAV:   6    -0.184711268934E+04   -0.26645E+03   -0.32079E+03 13632   0.139E+02    0.246E+02
DAV:   7    -0.192531553564E+04   -0.78203E+02   -0.13591E+03 13344   0.147E+02    0.198E+02
DAV:   8    -0.153587236147E+04    0.38944E+03   -0.52297E+02 15828   0.652E+01    0.170E+02
DAV:   9    -0.145337848491E+04    0.82494E+02   -0.36642E+02 14328   0.744E+01    0.140E+02
DAV:  10    -0.173933915620E+04   -0.28596E+03   -0.31511E+02 14184   0.888E+01    0.247E+02
DAV:  11    -0.181913401902E+04   -0.79795E+02   -0.18246E+02 14328   0.697E+01    0.274E+02
DAV:  12    -0.138831564727E+04    0.43082E+03   -0.11900E+02 14568   0.528E+01    0.133E+02
DAV:  13    -0.135211663161E+04    0.36199E+02   -0.78355E+01 13536   0.458E+01    0.107E+02
DAV:  14    -0.142729820848E+04   -0.75182E+02   -0.48054E+01 13656   0.416E+01    0.167E+02
DAV:  15    -0.135792521701E+04    0.69373E+02   -0.51164E+01 13224   0.303E+01    0.114E+02
DAV:  16    -0.133045643239E+04    0.27469E+02   -0.21737E+01 13044   0.208E+01    0.694E+01
DAV:  17    -0.132194313170E+04    0.85133E+01   -0.91557E+00 13872   0.849E+00    0.553E+01
DAV:  18    -0.132048816014E+04    0.14550E+01   -0.33657E+00 16764   0.448E+00    0.535E+01
DAV:  19    -0.131797018636E+04    0.25180E+01   -0.12220E+00 13032   0.409E+00    0.488E+01
DAV:  20    -0.131679129824E+04    0.11789E+01   -0.90577E-01 13104   0.370E+00    0.485E+01
DAV:  21    -0.131584534442E+04    0.94595E+00   -0.98550E-01 13176   0.411E+00    0.472E+01
DAV:  22    -0.131471593824E+04    0.11294E+01   -0.89249E-01 13224   0.416E+00    0.452E+01
DAV:  23    -0.131327706844E+04    0.14389E+01   -0.89687E-01 13320   0.423E+00    0.436E+01
DAV:  24    -0.131195242910E+04    0.13246E+01   -0.99896E-01 13320   0.428E+00    0.413E+01
DAV:  25    -0.131039801818E+04    0.15544E+01   -0.11372E+00 13368   0.430E+00    0.365E+01
DAV:  26    -0.130923834179E+04    0.11597E+01   -0.88207E-01 13368   0.388E+00    0.328E+01
DAV:  27    -0.130872605580E+04    0.51229E+00   -0.74333E-01 13392   0.289E+00    0.309E+01
DAV:  28    -0.130823848405E+04    0.48757E+00   -0.62847E-01 13290   0.288E+00    0.279E+01
DAV:  29    -0.130792417948E+04    0.31430E+00   -0.63470E-01 13290   0.321E+00    0.261E+01
DAV:  30    -0.130810969311E+04   -0.18551E+00   -0.66783E-01 13440   0.355E+00    0.280E+01
DAV:  31    -0.130789055190E+04    0.21914E+00   -0.88681E-01 13440   0.437E+00    0.276E+01
DAV:  32    -0.130739847806E+04    0.49207E+00   -0.86508E-01 13392   0.424E+00    0.275E+01
DAV:  33    -0.130675139029E+04    0.64709E+00   -0.67978E-01 13332   0.339E+00    0.240E+01
DAV:  34    -0.130625171698E+04    0.49967E+00   -0.48206E-01 13344   0.291E+00    0.202E+01
DAV:  35    -0.130599074304E+04    0.26097E+00   -0.52772E-01 13440   0.288E+00    0.180E+01
DAV:  36    -0.130561427560E+04    0.37647E+00   -0.48992E-01 13344   0.272E+00    0.143E+01
DAV:  37    -0.130542247522E+04    0.19180E+00   -0.24732E-01 13296   0.191E+00    0.123E+01
DAV:  38    -0.130539178795E+04    0.30687E-01   -0.14082E-01 13584   0.137E+00    0.122E+01
DAV:  39    -0.130536765408E+04    0.24134E-01   -0.15530E-01 13344   0.152E+00    0.123E+01
DAV:  40    -0.130517885389E+04    0.18880E+00   -0.14088E-01 13320   0.151E+00    0.956E+00
DAV:  41    -0.130509920953E+04    0.79644E-01   -0.71072E-02 13296   0.109E+00    0.861E+00
DAV:  42    -0.130507224720E+04    0.26962E-01   -0.68031E-02 13296   0.966E-01    0.843E+00
DAV:  43    -0.130502119583E+04    0.51051E-01   -0.75916E-02 13368   0.106E+00    0.770E+00
DAV:  44    -0.130493943468E+04    0.81761E-01   -0.57346E-02 13272   0.993E-01    0.667E+00
DAV:  45    -0.130491999446E+04    0.19440E-01   -0.31186E-02 13620   0.605E-01    0.643E+00
DAV:  46    -0.130490424682E+04    0.15748E-01   -0.25003E-02 13512   0.550E-01    0.610E+00
DAV:  47    -0.130486848344E+04    0.35763E-01   -0.28570E-02 13758   0.675E-01    0.531E+00
DAV:  48    -0.130483028115E+04    0.38202E-01   -0.32089E-02 13584   0.684E-01    0.428E+00
DAV:  49    -0.130481777083E+04    0.12510E-01   -0.25797E-02 13500   0.527E-01    0.381E+00
DAV:  50    -0.130480828858E+04    0.94823E-02   -0.22282E-02 13488   0.560E-01    0.333E+00
DAV:  51    -0.130479011504E+04    0.18174E-01   -0.41775E-02 16512   0.738E-01    0.259E+00
DAV:  52    -0.130478011547E+04    0.99996E-02   -0.16441E-02 13176   0.423E-01    0.197E+00
DAV:  53    -0.130478436924E+04   -0.42538E-02   -0.12245E-02 13392   0.418E-01    0.220E+00
DAV:  54    -0.130478256646E+04    0.18028E-02   -0.16523E-02 13188   0.451E-01    0.191E+00
DAV:  55    -0.130477877289E+04    0.37936E-02   -0.12738E-02 13164   0.411E-01    0.128E+00
DAV:  56    -0.130478750705E+04   -0.87342E-02   -0.14632E-02 13704   0.497E-01    0.202E+00
DAV:  57    -0.130478162014E+04    0.58869E-02   -0.13251E-02 13440   0.495E-01    0.143E+00
DAV:  58    -0.130477737276E+04    0.42474E-02   -0.56039E-03 13272   0.323E-01    0.814E-01
DAV:  59    -0.130477861109E+04   -0.12383E-02   -0.33587E-03 13344   0.246E-01    0.905E-01
DAV:  60    -0.130477866798E+04   -0.56894E-04   -0.35718E-03 13296   0.248E-01
   1 F= -.13047787E+04 E0= -.13040839E+04  d E =-.138949E+01
