 252 252   0   0
  0.2286318E+02  0.1514622E-08  0.1514622E-08  0.2900000E-08  0.2000000E-15
  1.000000000000000E-004
  CAR 
 NiAl                                    
      5.34849873     -9.76339318  301     -0.59074419      1.00000000
     -9.763  0.0000E+00  0.0000E+00
     -9.713  0.0000E+00  0.0000E+00
     -9.663  0.0000E+00  0.0000E+00
     -9.612  0.0000E+00  0.0000E+00
     -9.562  0.0000E+00  0.0000E+00
     -9.512  0.0000E+00  0.0000E+00
     -9.461  0.0000E+00  0.0000E+00
     -9.411  0.0000E+00  0.0000E+00
     -9.360  0.1240E-15  0.6245E-17
     -9.310  0.4908E-11  0.2472E-12
     -9.260  0.2738E-07  0.1380E-08
     -9.209  0.2138E-04  0.1078E-05
     -9.159  0.2427E-02  0.1233E-03
     -9.109  0.4279E-01  0.2279E-02
     -9.058  0.1279E+00  0.8723E-02
     -9.008  0.6854E-01  0.1217E-01
     -8.957  0.7436E-02  0.1255E-01
     -8.907  0.5735E-01  0.1544E-01
     -8.857  0.4905E+00  0.4014E-01
     -8.806  0.7346E+00  0.7715E-01
     -8.756  0.1966E+00  0.8705E-01
     -8.706  0.8828E-02  0.8750E-01
     -8.655  0.3274E-03  0.8751E-01
     -8.605  0.1218E-01  0.8813E-01
     -8.554  0.9017E-01  0.9267E-01
     -8.504  0.1183E+00  0.9863E-01
     -8.454  0.8258E-01  0.1028E+00
     -8.403  0.4980E+00  0.1279E+00
     -8.353  0.9863E+00  0.1776E+00
     -8.303  0.9660E+00  0.2262E+00
     -8.252  0.4457E+00  0.2487E+00
     -8.202  0.2966E+00  0.2636E+00
     -8.151  0.7679E+00  0.3023E+00
     -8.101  0.4120E+00  0.3230E+00
     -8.051  0.3833E-01  0.3250E+00
     -8.000  0.9581E-03  0.3250E+00
     -7.950  0.3023E-01  0.3265E+00
     -7.900  0.3691E+00  0.3451E+00
     -7.849  0.7769E+00  0.3843E+00
     -7.799  0.2964E+00  0.3992E+00
     -7.748  0.8004E-01  0.4032E+00
     -7.698  0.3635E+00  0.4215E+00
     -7.648  0.8201E+00  0.4629E+00
     -7.597  0.5141E+00  0.4888E+00
     -7.547  0.9468E+00  0.5364E+00
     -7.497  0.2230E+01  0.6488E+00
     -7.446  0.1141E+01  0.7063E+00
     -7.396  0.1208E+00  0.7124E+00
     -7.345  0.2414E-02  0.7125E+00
     -7.295  0.9297E-05  0.7125E+00
     -7.245  0.5836E-03  0.7125E+00
     -7.194  0.3984E-01  0.7145E+00
     -7.144  0.4725E+00  0.7383E+00
     -7.094  0.1478E+01  0.8128E+00
     -7.043  0.2307E+01  0.9290E+00
     -6.993  0.1444E+01  0.1002E+01
     -6.943  0.2601E+00  0.1015E+01
     -6.892  0.4700E+00  0.1038E+01
     -6.842  0.7475E+00  0.1076E+01
     -6.791  0.2164E+00  0.1087E+01
     -6.741  0.6680E-01  0.1090E+01
     -6.691  0.4970E+00  0.1115E+01
     -6.640  0.8726E+00  0.1159E+01
     -6.590  0.3807E+00  0.1179E+01
     -6.540  0.6926E+00  0.1213E+01
     -6.489  0.1304E+01  0.1279E+01
     -6.439  0.8724E+00  0.1323E+01
     -6.388  0.1021E+01  0.1375E+01
     -6.338  0.2042E+01  0.1477E+01
     -6.288  0.2013E+01  0.1579E+01
     -6.237  0.8420E+00  0.1621E+01
     -6.187  0.1100E+00  0.1627E+01
     -6.137  0.5245E+00  0.1653E+01
     -6.086  0.1490E+01  0.1728E+01
     -6.036  0.1042E+01  0.1781E+01
     -5.985  0.1714E+01  0.1867E+01
     -5.935  0.2874E+01  0.2012E+01
     -5.885  0.2084E+01  0.2117E+01
     -5.834  0.6200E+00  0.2148E+01
     -5.784  0.4003E-01  0.2150E+01
     -5.734  0.2069E-01  0.2151E+01
     -5.683  0.1108E+00  0.2157E+01
     -5.633  0.2070E+00  0.2167E+01
     -5.582  0.6474E+00  0.2200E+01
     -5.532  0.9753E+00  0.2249E+01
     -5.482  0.1628E+01  0.2331E+01
     -5.431  0.2606E+01  0.2462E+01
     -5.381  0.4564E+01  0.2692E+01
     -5.331  0.2626E+01  0.2824E+01
     -5.280  0.8612E+00  0.2868E+01
     -5.230  0.1619E+01  0.2949E+01
     -5.179  0.1557E+01  0.3028E+01
     -5.129  0.2748E+01  0.3166E+01
     -5.079  0.3105E+01  0.3322E+01
     -5.028  0.2466E+01  0.3447E+01
     -4.978  0.2986E+01  0.3597E+01
     -4.928  0.1506E+01  0.3673E+01
     -4.877  0.9051E+00  0.3718E+01
     -4.827  0.1267E+01  0.3782E+01
     -4.776  0.3733E+01  0.3970E+01
     -4.726  0.8184E+01  0.4383E+01
     -4.676  0.6405E+01  0.4705E+01
     -4.625  0.2578E+01  0.4835E+01
     -4.575  0.4740E+01  0.5074E+01
     -4.525  0.6871E+01  0.5420E+01
     -4.474  0.5279E+01  0.5686E+01
     -4.424  0.6215E+01  0.5999E+01
     -4.373  0.7675E+01  0.6386E+01
     -4.323  0.8367E+01  0.6807E+01
     -4.273  0.5653E+01  0.7092E+01
     -4.222  0.5548E+01  0.7371E+01
     -4.172  0.8044E+01  0.7776E+01
     -4.122  0.5639E+01  0.8060E+01
     -4.071  0.6202E+01  0.8373E+01
     -4.021  0.9987E+01  0.8876E+01
     -3.971  0.1148E+02  0.9454E+01
     -3.920  0.1159E+02  0.1004E+02
     -3.870  0.1422E+02  0.1075E+02
     -3.819  0.1170E+02  0.1134E+02
     -3.769  0.1092E+02  0.1189E+02
     -3.719  0.1219E+02  0.1251E+02
     -3.668  0.1117E+02  0.1307E+02
     -3.618  0.1119E+02  0.1363E+02
     -3.568  0.1158E+02  0.1422E+02
     -3.517  0.9235E+01  0.1468E+02
     -3.467  0.9423E+01  0.1516E+02
     -3.416  0.9524E+01  0.1564E+02
     -3.366  0.8272E+01  0.1605E+02
     -3.316  0.8482E+01  0.1648E+02
     -3.265  0.9932E+01  0.1698E+02
     -3.215  0.1301E+02  0.1764E+02
     -3.165  0.1437E+02  0.1836E+02
     -3.114  0.1317E+02  0.1902E+02
     -3.064  0.8773E+01  0.1947E+02
     -3.013  0.8383E+01  0.1989E+02
     -2.963  0.1152E+02  0.2047E+02
     -2.913  0.1600E+02  0.2127E+02
     -2.862  0.1499E+02  0.2203E+02
     -2.812  0.1238E+02  0.2265E+02
     -2.762  0.1157E+02  0.2324E+02
     -2.711  0.1323E+02  0.2390E+02
     -2.661  0.1438E+02  0.2463E+02
     -2.610  0.1269E+02  0.2527E+02
     -2.560  0.1551E+02  0.2605E+02
     -2.510  0.1744E+02  0.2693E+02
     -2.459  0.1703E+02  0.2778E+02
     -2.409  0.1884E+02  0.2873E+02
     -2.359  0.1996E+02  0.2974E+02
     -2.308  0.2185E+02  0.3084E+02
     -2.258  0.2441E+02  0.3207E+02
     -2.207  0.2121E+02  0.3314E+02
     -2.157  0.1859E+02  0.3407E+02
     -2.107  0.2141E+02  0.3515E+02
     -2.056  0.2246E+02  0.3628E+02
     -2.006  0.2266E+02  0.3742E+02
     -1.956  0.1884E+02  0.3837E+02
     -1.905  0.1431E+02  0.3909E+02
     -1.855  0.1324E+02  0.3976E+02
     -1.804  0.1565E+02  0.4055E+02
     -1.754  0.1519E+02  0.4132E+02
     -1.704  0.1400E+02  0.4202E+02
     -1.653  0.1244E+02  0.4265E+02
     -1.603  0.1376E+02  0.4334E+02
     -1.553  0.1430E+02  0.4406E+02
     -1.502  0.1657E+02  0.4490E+02
     -1.452  0.2084E+02  0.4594E+02
     -1.401  0.2006E+02  0.4696E+02
     -1.351  0.1916E+02  0.4792E+02
     -1.301  0.1399E+02  0.4863E+02
     -1.250  0.1020E+02  0.4914E+02
     -1.200  0.1299E+02  0.4979E+02
     -1.150  0.1979E+02  0.5079E+02
     -1.099  0.1965E+02  0.5178E+02
     -1.049  0.1812E+02  0.5269E+02
     -0.998  0.2123E+02  0.5376E+02
     -0.948  0.2323E+02  0.5493E+02
     -0.898  0.1701E+02  0.5579E+02
     -0.847  0.1484E+02  0.5654E+02
     -0.797  0.1727E+02  0.5741E+02
     -0.747  0.2083E+02  0.5846E+02
     -0.696  0.2612E+02  0.5977E+02
     -0.646  0.2950E+02  0.6126E+02
     -0.596  0.3190E+02  0.6287E+02
     -0.545  0.2385E+02  0.6407E+02
     -0.495  0.1807E+02  0.6498E+02
     -0.444  0.1230E+02  0.6560E+02
     -0.394  0.8560E+01  0.6603E+02
     -0.344  0.5263E+01  0.6629E+02
     -0.293  0.3297E+01  0.6646E+02
     -0.243  0.2807E+01  0.6660E+02
     -0.193  0.3090E+01  0.6676E+02
     -0.142  0.4020E+01  0.6696E+02
     -0.092  0.4078E+01  0.6716E+02
     -0.041  0.4147E+01  0.6737E+02
      0.009  0.3829E+01  0.6757E+02
      0.059  0.1369E+01  0.6763E+02
      0.110  0.4970E+00  0.6766E+02
      0.160  0.1463E+01  0.6773E+02
      0.210  0.1858E+01  0.6783E+02
      0.261  0.6685E+00  0.6786E+02
      0.311  0.1848E+00  0.6787E+02
      0.362  0.1426E+01  0.6794E+02
      0.412  0.3874E+01  0.6814E+02
      0.462  0.2989E+01  0.6829E+02
      0.513  0.1459E+01  0.6836E+02
      0.563  0.2526E+01  0.6849E+02
      0.613  0.2765E+01  0.6863E+02
      0.664  0.2238E+01  0.6874E+02
      0.714  0.1253E+01  0.6880E+02
      0.765  0.1865E+01  0.6890E+02
      0.815  0.2461E+01  0.6902E+02
      0.865  0.3333E+01  0.6919E+02
      0.916  0.3099E+01  0.6934E+02
      0.966  0.4064E+01  0.6955E+02
      1.016  0.2640E+01  0.6968E+02
      1.067  0.3804E+00  0.6970E+02
      1.117  0.4358E+00  0.6972E+02
      1.168  0.7738E+00  0.6976E+02
      1.218  0.6623E+00  0.6980E+02
      1.268  0.2790E+01  0.6994E+02
      1.319  0.4104E+01  0.7014E+02
      1.369  0.1550E+01  0.7022E+02
      1.419  0.6195E+00  0.7025E+02
      1.470  0.8813E+00  0.7030E+02
      1.520  0.9683E+00  0.7035E+02
      1.571  0.2366E+01  0.7046E+02
      1.621  0.2874E+01  0.7061E+02
      1.671  0.2213E+01  0.7072E+02
      1.722  0.2395E+01  0.7084E+02
      1.772  0.2091E+01  0.7095E+02
      1.822  0.1830E+01  0.7104E+02
      1.873  0.1761E+01  0.7113E+02
      1.923  0.3053E+01  0.7128E+02
      1.974  0.2503E+01  0.7141E+02
      2.024  0.1297E+01  0.7147E+02
      2.074  0.5957E+00  0.7150E+02
      2.125  0.1156E+01  0.7156E+02
      2.175  0.2612E+01  0.7169E+02
      2.225  0.2578E+01  0.7182E+02
      2.276  0.2333E+01  0.7194E+02
      2.326  0.3120E+01  0.7210E+02
      2.376  0.2678E+01  0.7223E+02
      2.427  0.1003E+01  0.7228E+02
      2.477  0.2528E+00  0.7230E+02
      2.528  0.8782E+00  0.7234E+02
      2.578  0.1820E+01  0.7243E+02
      2.628  0.2030E+01  0.7253E+02
      2.679  0.9262E+00  0.7258E+02
      2.729  0.1328E+00  0.7259E+02
      2.779  0.4722E-01  0.7259E+02
      2.830  0.4655E+00  0.7261E+02
      2.880  0.1296E+01  0.7268E+02
      2.931  0.1892E+01  0.7277E+02
      2.981  0.2196E+01  0.7288E+02
      3.031  0.4649E+01  0.7312E+02
      3.082  0.5976E+01  0.7342E+02
      3.132  0.4464E+01  0.7364E+02
      3.182  0.2205E+01  0.7376E+02
      3.233  0.6679E+00  0.7379E+02
      3.283  0.6090E+00  0.7382E+02
      3.334  0.6927E+00  0.7385E+02
      3.384  0.2698E+00  0.7387E+02
      3.434  0.1417E+01  0.7394E+02
      3.485  0.3563E+01  0.7412E+02
      3.535  0.2074E+01  0.7422E+02
      3.585  0.2776E+00  0.7424E+02
      3.636  0.2942E+00  0.7425E+02
      3.686  0.1795E+01  0.7434E+02
      3.737  0.2591E+01  0.7447E+02
      3.787  0.1119E+01  0.7453E+02
      3.837  0.1651E+00  0.7454E+02
      3.888  0.2730E+00  0.7455E+02
      3.938  0.8475E+00  0.7459E+02
      3.988  0.5315E+00  0.7462E+02
      4.039  0.8487E-01  0.7463E+02
      4.089  0.3511E+00  0.7464E+02
      4.140  0.1853E+01  0.7474E+02
      4.190  0.2545E+01  0.7486E+02
      4.240  0.1156E+01  0.7492E+02
      4.291  0.5286E+00  0.7495E+02
      4.341  0.1048E+01  0.7500E+02
      4.391  0.1755E+01  0.7509E+02
      4.442  0.2229E+01  0.7520E+02
      4.492  0.2627E+01  0.7534E+02
      4.543  0.1446E+01  0.7541E+02
      4.593  0.9422E+00  0.7546E+02
      4.643  0.1756E+01  0.7554E+02
      4.694  0.9382E+00  0.7559E+02
      4.744  0.1619E+00  0.7560E+02
      4.794  0.7567E-02  0.7560E+02
      4.845  0.6413E-04  0.7560E+02
      4.895  0.8147E-07  0.7560E+02
      4.946  0.1455E-10  0.7560E+02
      4.996  0.3306E-15  0.7560E+02
      5.046  0.0000E+00  0.7560E+02
      5.097  0.0000E+00  0.7560E+02
      5.147  0.0000E+00  0.7560E+02
      5.197  0.0000E+00  0.7560E+02
      5.248  0.0000E+00  0.7560E+02
      5.298  0.0000E+00  0.7560E+02
      5.348  0.0000E+00  0.7560E+02
