  252  252   40    1
  0.2286318E+02  0.1514622E-08  0.1514622E-08  0.2900000E-08  0.2000000E-15
  1.000000000000000E-004
  CAR 
 NiAl                                    
   2520      2   1512
 
  0.0000000E+00  0.0000000E+00  0.0000000E+00  0.2500000E+00
    1       -9.076489   1.000000
    2       -8.546718   1.000000
    3       -8.169742   1.000000
    4       -8.169739   1.000000
    5       -8.169739   1.000000
    6       -8.169685   1.000000
    7       -8.169682   1.000000
    8       -8.169682   1.000000
    9       -7.719997   1.000000
   10       -7.663728   1.000000
   11       -7.663726   1.000000
   12       -7.663726   1.000000
   13       -7.663669   1.000000
   14       -7.663667   1.000000
   15       -7.663667   1.000000
   16       -6.878203   1.000000
   17       -6.878203   1.000000
   18       -6.878202   1.000000
   19       -6.878142   1.000000
   20       -6.878142   1.000000
   21       -6.878141   1.000000
   22       -6.695255   1.000000
   23       -6.534155   1.000000
   24       -6.534155   1.000000
   25       -6.534151   1.000000
   26       -6.534151   1.000000
   27       -6.534124   1.000000
   28       -6.534120   1.000000
   29       -6.113663   1.000000
   30       -6.113663   1.000000
   31       -6.113660   1.000000
   32       -6.113660   1.000000
   33       -6.113634   1.000000
   34       -6.113631   1.000000
   35       -5.913072   1.000000
   36       -5.913051   1.000000
   37       -5.913050   1.000000
   38       -5.913009   1.000000
   39       -5.913008   1.000000
   40       -5.912981   1.000000
   41       -5.912359   1.000000
   42       -5.912359   1.000000
   43       -5.912351   1.000000
   44       -5.912305   1.000000
   45       -5.912305   1.000000
   46       -5.912297   1.000000
   47       -5.684870   1.000000
   48       -5.581328   1.000000
   49       -5.581310   1.000000
   50       -5.581305   1.000000
   51       -5.581267   1.000000
   52       -5.581263   1.000000
   53       -5.581242   1.000000
   54       -5.486539   1.000000
   55       -5.486539   1.000000
   56       -5.486528   1.000000
   57       -5.486528   1.000000
   58       -5.486515   1.000000
   59       -5.486504   1.000000
   60       -5.133641   1.000000
   61       -5.133639   1.000000
   62       -5.133626   1.000000
   63       -5.133598   1.000000
   64       -5.133581   1.000000
   65       -5.133556   1.000000
   66       -5.050406   1.000000
   67       -4.976307   1.000000
   68       -4.976307   1.000000
   69       -4.976285   1.000000
   70       -4.976248   1.000000
   71       -4.976248   1.000000
   72       -4.976226   1.000000
   73       -4.878565   1.000000
   74       -4.804018   1.000000
   75       -4.804018   1.000000
   76       -4.803962   1.000000
   77       -4.764423   1.000000
   78       -4.764423   1.000000
   79       -4.764416   1.000000
   80       -4.764416   1.000000
   81       -4.764407   1.000000
   82       -4.764399   1.000000
   83       -4.680885   1.000000
   84       -4.680880   1.000000
   85       -4.680854   1.000000
   86       -4.680854   1.000000
   87       -4.680813   1.000000
   88       -4.680793   1.000000
   89       -4.663111   1.000000
   90       -4.663111   1.000000
   91       -4.663049   1.000000
   92       -4.570152   1.000000
   93       -4.570146   1.000000
   94       -4.570131   1.000000
   95       -4.570130   1.000000
   96       -4.570106   1.000000
   97       -4.570106   1.000000
   98       -4.570092   1.000000
   99       -4.570092   1.000000
  100       -4.570084   1.000000
  101       -4.570084   1.000000
  102       -4.570070   1.000000
  103       -4.570070   1.000000
  104       -4.527859   1.000000
  105       -4.527859   1.000000
  106       -4.527792   1.000000
  107       -4.457508   1.000000
  108       -4.457508   1.000000
  109       -4.457434   1.000000
  110       -4.422211   1.000000
  111       -4.422211   1.000000
  112       -4.422170   1.000000
  113       -4.422160   1.000000
  114       -4.422160   1.000000
  115       -4.422119   1.000000
  116       -4.366509   1.000000
  117       -4.366504   1.000000
  118       -4.366496   1.000000
  119       -4.366495   1.000000
  120       -4.366484   1.000000
  121       -4.366484   1.000000
  122       -4.366476   1.000000
  123       -4.366476   1.000000
  124       -4.366443   1.000000
  125       -4.366443   1.000000
  126       -4.366436   1.000000
  127       -4.366436   1.000000
  128       -4.355681   1.000000
  129       -4.355680   1.000000
  130       -4.355657   1.000000
  131       -4.355656   1.000000
  132       -4.355656   1.000000
  133       -4.355655   1.000000
  134       -4.355652   1.000000
  135       -4.355652   1.000000
  136       -4.355633   1.000000
  137       -4.355633   1.000000
  138       -4.355628   1.000000
  139       -4.355628   1.000000
  140       -4.309166   1.000000
  141       -4.309166   1.000000
  142       -4.309126   1.000000
  143       -4.309113   1.000000
  144       -4.309113   1.000000
  145       -4.309074   1.000000
  146       -4.273111   1.000000
  147       -4.273108   1.000000
  148       -4.273101   1.000000
  149       -4.273096   1.000000
  150       -4.273008   1.000000
  151       -4.273004   1.000000
  152       -4.252447   1.000000
  153       -4.252447   1.000000
  154       -4.252340   1.000000
  155       -4.214317   1.000000
  156       -4.214312   1.000000
  157       -4.214303   1.000000
  158       -4.214296   1.000000
  159       -4.214294   1.000000
  160       -4.214294   1.000000
  161       -4.214290   1.000000
  162       -4.214290   1.000000
  163       -4.214277   1.000000
  164       -4.214277   1.000000
  165       -4.214271   1.000000
  166       -4.214271   1.000000
  167       -4.151888   1.000000
  168       -4.151888   1.000000
  169       -4.151706   1.000000
  170       -4.122969   1.000000
  171       -4.122967   1.000000
  172       -4.122967   1.000000
  173       -4.122964   1.000000
  174       -4.122962   1.000000
  175       -4.122962   1.000000
  176       -4.043816   1.000000
  177       -4.043816   1.000000
  178       -4.043716   1.000000
  179       -4.016386   1.000000
  180       -4.016383   1.000000
  181       -4.016379   1.000000
  182       -4.016379   1.000000
  183       -4.016376   1.000000
  184       -4.016369   1.000000
  185       -4.016369   1.000000
  186       -4.016363   1.000000
  187       -4.016346   1.000000
  188       -4.016346   1.000000
  189       -4.016333   1.000000
  190       -4.016333   1.000000
  191       -3.982709   1.000000
  192       -3.982709   1.000000
  193       -3.982561   1.000000
  194       -3.918322   1.000000
  195       -3.918322   1.000000
  196       -3.918165   1.000000
  197       -3.917449   1.000000
  198       -3.917447   1.000000
  199       -3.917427   1.000000
  200       -3.917425   1.000000
  201       -3.917292   1.000000
  202       -3.917272   1.000000
  203       -3.872016   1.000000
  204       -3.872005   1.000000
  205       -3.872005   1.000000
  206       -3.872003   1.000000
  207       -3.871973   1.000000
  208       -3.871961   1.000000
  209       -3.871961   1.000000
  210       -3.871959   1.000000
  211       -3.871804   1.000000
  212       -3.871804   1.000000
  213       -3.871759   1.000000
  214       -3.871759   1.000000
  215       -3.860345   1.000000
  216       -3.860342   1.000000
  217       -3.860333   1.000000
  218       -3.860330   1.000000
  219       -3.860184   1.000000
  220       -3.860175   1.000000
  221       -3.777146   1.000000
  222       -3.777146   1.000000
  223       -3.777141   1.000000
  224       -3.777139   1.000000
  225       -3.777131   1.000000
  226       -3.777131   1.000000
  227       -3.777126   1.000000
  228       -3.777119   1.000000
  229       -3.777101   1.000000
  230       -3.777101   1.000000
  231       -3.777087   1.000000
  232       -3.777087   1.000000
  233       -3.745726   1.000000
  234       -3.745723   1.000000
  235       -3.745685   1.000000
  236       -3.745685   1.000000
  237       -3.745682   1.000000
  238       -3.745682   1.000000
  239       -3.730149   1.000000
  240       -3.730149   1.000000
  241       -3.729745   1.000000
  242       -3.729744   1.000000
  243       -3.726069   1.000000
  244       -3.726069   1.000000
  245       -3.726051   1.000000
  246       -3.726048   1.000000
  247       -3.725972   1.000000
  248       -3.725951   1.000000
  249       -3.720474   1.000000
  250       -3.720474   1.000000
  251       -3.679719   1.000000
  252       -3.679709   1.000000
  253       -3.679709   1.000000
  254       -3.679705   1.000000
  255       -3.679678   1.000000
  256       -3.679666   1.000000
  257       -3.679666   1.000000
  258       -3.679663   1.000000
  259       -3.679533   1.000000
  260       -3.679533   1.000000
  261       -3.679491   1.000000
  262       -3.679491   1.000000
  263       -3.669155   1.000000
  264       -3.669155   1.000000
  265       -3.669058   1.000000
  266       -3.620370   1.000000
  267       -3.620367   1.000000
  268       -3.620350   1.000000
  269       -3.620341   1.000000
  270       -3.620158   1.000000
  271       -3.620137   1.000000
  272       -3.613615   1.000000
  273       -3.613615   1.000000
  274       -3.613397   1.000000
  275       -3.613391   1.000000
  276       -3.594098   1.000000
  277       -3.594098   1.000000
  278       -3.577785   1.000000
  279       -3.577781   1.000000
  280       -3.577739   1.000000
  281       -3.577739   1.000000
  282       -3.577736   1.000000
  283       -3.577736   1.000000
  284       -3.566856   1.000000
  285       -3.566853   1.000000
  286       -3.566811   1.000000
  287       -3.566801   1.000000
  288       -3.562149   1.000000
  289       -3.562149   1.000000
  290       -3.495661   1.000000
  291       -3.495661   1.000000
  292       -3.495612   1.000000
  293       -3.495587   1.000000
  294       -3.490255   1.000000
  295       -3.490255   1.000000
  296       -3.490245   1.000000
  297       -3.490245   1.000000
  298       -3.490205   1.000000
  299       -3.490195   1.000000
  300       -3.490181   1.000000
  301       -3.490181   1.000000
  302       -3.490138   1.000000
  303       -3.490138   1.000000
  304       -3.490128   1.000000
  305       -3.490128   1.000000
  306       -3.443740   1.000000
  307       -3.443737   1.000000
  308       -3.443686   1.000000
  309       -3.443686   1.000000
  310       -3.443684   1.000000
  311       -3.443684   1.000000
  312       -3.407991   1.000000
  313       -3.407988   1.000000
  314       -3.407923   1.000000
  315       -3.407923   1.000000
  316       -3.407920   1.000000
  317       -3.407920   1.000000
  318       -3.404160   1.000000
  319       -3.404160   1.000000
  320       -3.404145   1.000000
  321       -3.404142   1.000000
  322       -3.404125   1.000000
  323       -3.404125   1.000000
  324       -3.404113   1.000000
  325       -3.404100   1.000000
  326       -3.404014   1.000000
  327       -3.404014   1.000000
  328       -3.403978   1.000000
  329       -3.403978   1.000000
  330       -3.387797   1.000000
  331       -3.387792   1.000000
  332       -3.387790   1.000000
  333       -3.387781   1.000000
  334       -3.387675   1.000000
  335       -3.387666   1.000000
  336       -3.293239   1.000000
  337       -3.293231   1.000000
  338       -3.293231   1.000000
  339       -3.267723   1.000000
  340       -3.267720   1.000000
  341       -3.267653   1.000000
  342       -3.267653   1.000000
  343       -3.267650   1.000000
  344       -3.267650   1.000000
  345       -3.228243   1.000000
  346       -3.228243   1.000000
  347       -3.214167   1.000000
  348       -3.214167   1.000000
  349       -3.214144   1.000000
  350       -3.214144   1.000000
  351       -3.214137   1.000000
  352       -3.214135   1.000000
  353       -3.214114   1.000000
  354       -3.214101   1.000000
  355       -3.214096   1.000000
  356       -3.214096   1.000000
  357       -3.214072   1.000000
  358       -3.214072   1.000000
  359       -3.187689   1.000000
  360       -3.187689   1.000000
  361       -3.149807   1.000000
  362       -3.149800   1.000000
  363       -3.149794   1.000000
  364       -3.149794   1.000000
  365       -3.149766   1.000000
  366       -3.149753   1.000000
  367       -3.144488   1.000000
  368       -3.144488   1.000000
  369       -3.144483   1.000000
  370       -3.144483   1.000000
  371       -3.144385   1.000000
  372       -3.144380   1.000000
  373       -3.140435   1.000000
  374       -3.140429   1.000000
  375       -3.140348   1.000000
  376       -3.140348   1.000000
  377       -3.140343   1.000000
  378       -3.140343   1.000000
  379       -3.073828   1.000000
  380       -3.073828   1.000000
  381       -3.073827   1.000000
  382       -3.073827   1.000000
  383       -3.073812   1.000000
  384       -3.073812   1.000000
  385       -3.073804   1.000000
  386       -3.073804   1.000000
  387       -3.073798   1.000000
  388       -3.073794   1.000000
  389       -3.073794   1.000000
  390       -3.073783   1.000000
  391       -3.036954   1.000000
  392       -3.036951   1.000000
  393       -3.036870   1.000000
  394       -3.036870   1.000000
  395       -3.036867   1.000000
  396       -3.036867   1.000000
  397       -2.964947   1.000000
  398       -2.964947   1.000000
  399       -2.964946   1.000000
  400       -2.964938   1.000000
  401       -2.964936   1.000000
  402       -2.964936   1.000000
  403       -2.953331   1.000000
  404       -2.953329   1.000000
  405       -2.953239   1.000000
  406       -2.953239   1.000000
  407       -2.953237   1.000000
  408       -2.953237   1.000000
  409       -2.937359   1.000000
  410       -2.937359   1.000000
  411       -2.937345   1.000000
  412       -2.937345   1.000000
  413       -2.937337   1.000000
  414       -2.937319   1.000000
  415       -2.914368   1.000000
  416       -2.914363   1.000000
  417       -2.914270   1.000000
  418       -2.914270   1.000000
  419       -2.914266   1.000000
  420       -2.914266   1.000000
  421       -2.892956   1.000000
  422       -2.892956   1.000000
  423       -2.892947   1.000000
  424       -2.892947   1.000000
  425       -2.892921   1.000000
  426       -2.892921   1.000000
  427       -2.892915   1.000000
  428       -2.892915   1.000000
  429       -2.892906   1.000000
  430       -2.892897   1.000000
  431       -2.892896   1.000000
  432       -2.892891   1.000000
  433       -2.889999   1.000000
  434       -2.889994   1.000000
  435       -2.889990   1.000000
  436       -2.889977   1.000000
  437       -2.889975   1.000000
  438       -2.889963   1.000000
  439       -2.829200   1.000000
  440       -2.829200   1.000000
  441       -2.829196   1.000000
  442       -2.826194   1.000000
  443       -2.826194   1.000000
  444       -2.826183   1.000000
  445       -2.826183   1.000000
  446       -2.826100   1.000000
  447       -2.826099   1.000000
  448       -2.819966   1.000000
  449       -2.819966   1.000000
  450       -2.819965   1.000000
  451       -2.819962   1.000000
  452       -2.819955   1.000000
  453       -2.819955   1.000000
  454       -2.819954   1.000000
  455       -2.819948   1.000000
  456       -2.819948   1.000000
  457       -2.819947   1.000000
  458       -2.819935   1.000000
  459       -2.819935   1.000000
  460       -2.768298   1.000000
  461       -2.768294   1.000000
  462       -2.768236   1.000000
  463       -2.768230   1.000000
  464       -2.735527   1.000000
  465       -2.735527   1.000000
  466       -2.735513   1.000000
  467       -2.735506   1.000000
  468       -2.735506   1.000000
  469       -2.735493   1.000000
  470       -2.732302   1.000000
  471       -2.732298   1.000000
  472       -2.732293   1.000000
  473       -2.732291   1.000000
  474       -2.732273   1.000000
  475       -2.732265   1.000000
  476       -2.727013   1.000000
  477       -2.727006   1.000000
  478       -2.726913   1.000000
  479       -2.726913   1.000000
  480       -2.726906   1.000000
  481       -2.726906   1.000000
  482       -2.712062   1.000000
  483       -2.712062   1.000000
  484       -2.712048   1.000000
  485       -2.712048   1.000000
  486       -2.712042   1.000000
  487       -2.712037   1.000000
  488       -2.712033   1.000000
  489       -2.712027   1.000000
  490       -2.712027   1.000000
  491       -2.712018   1.000000
  492       -2.712012   1.000000
  493       -2.712012   1.000000
  494       -2.705843   1.000000
  495       -2.705843   1.000000
  496       -2.675859   1.000000
  497       -2.675859   1.000000
  498       -2.675836   1.000000
  499       -2.675836   1.000000
  500       -2.675772   1.000000
  501       -2.675749   1.000000
  502       -2.642131   1.000000
  503       -2.642128   1.000000
  504       -2.642069   1.000000
  505       -2.642062   1.000000
  506       -2.642058   1.000000
  507       -2.642049   1.000000
  508       -2.638122   1.000000
  509       -2.607855   1.000000
  510       -2.607855   1.000000
  511       -2.607831   1.000000
  512       -2.607817   1.000000
  513       -2.601510   1.000000
  514       -2.601508   1.000000
  515       -2.601435   1.000000
  516       -2.601435   1.000000
  517       -2.601433   1.000000
  518       -2.601433   1.000000
  519       -2.596683   1.000000
  520       -2.550282   1.000000
  521       -2.550282   1.000000
  522       -2.550277   1.000000
  523       -2.550277   1.000000
  524       -2.550251   1.000000
  525       -2.550251   1.000000
  526       -2.550247   1.000000
  527       -2.550247   1.000000
  528       -2.550242   1.000000
  529       -2.550236   1.000000
  530       -2.550228   1.000000
  531       -2.550228   1.000000
  532       -2.538341   1.000000
  533       -2.538341   1.000000
  534       -2.538295   1.000000
  535       -2.538295   1.000000
  536       -2.538295   1.000000
  537       -2.538295   1.000000
  538       -2.537310   1.000000
  539       -2.537310   1.000000
  540       -2.537188   1.000000
  541       -2.512974   1.000000
  542       -2.512939   1.000000
  543       -2.512939   1.000000
  544       -2.501989   1.000000
  545       -2.501989   1.000000
  546       -2.501982   1.000000
  547       -2.501982   1.000000
  548       -2.501891   1.000000
  549       -2.501884   1.000000
  550       -2.483761   1.000000
  551       -2.483757   1.000000
  552       -2.483731   1.000000
  553       -2.483731   1.000000
  554       -2.483728   1.000000
  555       -2.483728   1.000000
  556       -2.472904   1.000000
  557       -2.472904   1.000000
  558       -2.472900   1.000000
  559       -2.472900   1.000000
  560       -2.472867   1.000000
  561       -2.472867   1.000000
  562       -2.472860   1.000000
  563       -2.472860   1.000000
  564       -2.472853   1.000000
  565       -2.472849   1.000000
  566       -2.472836   1.000000
  567       -2.472828   1.000000
  568       -2.469087   1.000000
  569       -2.468887   1.000000
  570       -2.448506   1.000000
  571       -2.448369   1.000000
  572       -2.426646   1.000000
  573       -2.426643   1.000000
  574       -2.426639   1.000000
  575       -2.426635   1.000000
  576       -2.426561   1.000000
  577       -2.426558   1.000000
  578       -2.426336   1.000000
  579       -2.426336   1.000000
  580       -2.426290   1.000000
  581       -2.426290   1.000000
  582       -2.426207   1.000000
  583       -2.426167   1.000000
  584       -2.401818   1.000000
  585       -2.401814   1.000000
  586       -2.401810   1.000000
  587       -2.401810   1.000000
  588       -2.401806   1.000000
  589       -2.401806   1.000000
  590       -2.397150   1.000000
  591       -2.384002   1.000000
  592       -2.384002   1.000000
  593       -2.383840   1.000000
  594       -2.382563   1.000000
  595       -2.382563   1.000000
  596       -2.382559   1.000000
  597       -2.382559   1.000000
  598       -2.382540   1.000000
  599       -2.382537   1.000000
  600       -2.378173   1.000000
  601       -2.378141   1.000000
  602       -2.378139   1.000000
  603       -2.378137   1.000000
  604       -2.378105   1.000000
  605       -2.378103   1.000000
  606       -2.372015   1.000000
  607       -2.371815   1.000000
  608       -2.312810   1.000000
  609       -2.312810   1.000000
  610       -2.312787   1.000000
  611       -2.312787   1.000000
  612       -2.312727   1.000000
  613       -2.312704   1.000000
  614       -2.311922   1.000000
  615       -2.306231   1.000000
  616       -2.306072   1.000000
  617       -2.304971   1.000000
  618       -2.304971   1.000000
  619       -2.304939   1.000000
  620       -2.280344   1.000000
  621       -2.280338   1.000000
  622       -2.280332   1.000000
  623       -2.280327   1.000000
  624       -2.280204   1.000000
  625       -2.280198   1.000000
  626       -2.278824   1.000000
  627       -2.278793   1.000000
  628       -2.278757   1.000000
  629       -2.278757   1.000000
  630       -2.278726   1.000000
  631       -2.278726   1.000000
  632       -2.258724   1.000000
  633       -2.258693   1.000000
  634       -2.258693   1.000000
  635       -2.254138   1.000000
  636       -2.254136   1.000000
  637       -2.254136   1.000000
  638       -2.245405   1.000000
  639       -2.245207   1.000000
  640       -2.223746   1.000000
  641       -2.223744   1.000000
  642       -2.223740   1.000000
  643       -2.223740   1.000000
  644       -2.223733   1.000000
  645       -2.223732   1.000000
  646       -2.223732   1.000000
  647       -2.223727   1.000000
  648       -2.223707   1.000000
  649       -2.223707   1.000000
  650       -2.223698   1.000000
  651       -2.223698   1.000000
  652       -2.212771   1.000000
  653       -2.212770   1.000000
  654       -2.212761   1.000000
  655       -2.212749   1.000000
  656       -2.212657   1.000000
  657       -2.212640   1.000000
  658       -2.210325   1.000000
  659       -2.210325   1.000000
  660       -2.210307   1.000000
  661       -2.210307   1.000000
  662       -2.210213   1.000000
  663       -2.210197   1.000000
  664       -2.204862   1.000000
  665       -2.204862   1.000000
  666       -2.204834   1.000000
  667       -2.204830   1.000000
  668       -2.170339   1.000000
  669       -2.170339   1.000000
  670       -2.170325   1.000000
  671       -2.170325   1.000000
  672       -2.170214   1.000000
  673       -2.170200   1.000000
  674       -2.160479   1.000000
  675       -2.160450   1.000000
  676       -2.160445   1.000000
  677       -2.160445   1.000000
  678       -2.160416   1.000000
  679       -2.160414   1.000000
  680       -2.146695   1.000000
  681       -2.116427   1.000000
  682       -2.116427   1.000000
  683       -2.116422   1.000000
  684       -2.116422   1.000000
  685       -2.116413   1.000000
  686       -2.116413   1.000000
  687       -2.116409   1.000000
  688       -2.116400   1.000000
  689       -2.116377   1.000000
  690       -2.116377   1.000000
  691       -2.116363   1.000000
  692       -2.116363   1.000000
  693       -2.114474   1.000000
  694       -2.114291   1.000000
  695       -2.107393   1.000000
  696       -2.107393   1.000000
  697       -2.107366   1.000000
  698       -2.107366   1.000000
  699       -2.107325   1.000000
  700       -2.107297   1.000000
  701       -2.106179   1.000000
  702       -2.105984   1.000000
  703       -2.105741   1.000000
  704       -2.105716   1.000000
  705       -2.105668   1.000000
  706       -2.105668   1.000000
  707       -2.105643   1.000000
  708       -2.105643   1.000000
  709       -2.103488   1.000000
  710       -2.103480   1.000000
  711       -2.103347   1.000000
  712       -2.103347   1.000000
  713       -2.086982   1.000000
  714       -2.086951   1.000000
  715       -2.086860   1.000000
  716       -2.086860   1.000000
  717       -2.086827   1.000000
  718       -2.086827   1.000000
  719       -2.029977   1.000000
  720       -2.029968   1.000000
  721       -2.029966   1.000000
  722       -2.029963   1.000000
  723       -2.029948   1.000000
  724       -2.029941   1.000000
  725       -2.025885   1.000000
  726       -2.025885   1.000000
  727       -2.025875   1.000000
  728       -2.025871   1.000000
  729       -2.025870   1.000000
  730       -2.025870   1.000000
  731       -2.025860   1.000000
  732       -2.025859   1.000000
  733       -2.025831   1.000000
  734       -2.025831   1.000000
  735       -2.025818   1.000000
  736       -2.025818   1.000000
  737       -1.990845   1.000000
  738       -1.990818   1.000000
  739       -1.990722   1.000000
  740       -1.990722   1.000000
  741       -1.990692   1.000000
  742       -1.990692   1.000000
  743       -1.984076   1.000000
  744       -1.984068   1.000000
  745       -1.984059   1.000000
  746       -1.984059   1.000000
  747       -1.984045   1.000000
  748       -1.984045   1.000000
  749       -1.933446   1.000000
  750       -1.933442   1.000000
  751       -1.933407   1.000000
  752       -1.933407   1.000000
  753       -1.933403   1.000000
  754       -1.933403   1.000000
  755       -1.927053   1.000000
  756       -1.927053   1.000000
  757       -1.927041   1.000000
  758       -1.927041   1.000000
  759       -1.927039   1.000000
  760       -1.927039   1.000000
  761       -1.927036   1.000000
  762       -1.927036   1.000000
  763       -1.927032   1.000000
  764       -1.927025   1.000000
  765       -1.927022   1.000000
  766       -1.927017   1.000000
  767       -1.925988   1.000000
  768       -1.925985   1.000000
  769       -1.925933   1.000000
  770       -1.925933   1.000000
  771       -1.925931   1.000000
  772       -1.925931   1.000000
  773       -1.896539   1.000000
  774       -1.896507   1.000000
  775       -1.896507   1.000000
  776       -1.889009   1.000000
  777       -1.888972   1.000000
  778       -1.888894   1.000000
  779       -1.888894   1.000000
  780       -1.888858   1.000000
  781       -1.888858   1.000000
  782       -1.868143   1.000000
  783       -1.868121   1.000000
  784       -1.868036   1.000000
  785       -1.868036   1.000000
  786       -1.868015   1.000000
  787       -1.868015   1.000000
  788       -1.844754   1.000000
  789       -1.844723   1.000000
  790       -1.844720   1.000000
  791       -1.844716   1.000000
  792       -1.844687   1.000000
  793       -1.844686   1.000000
  794       -1.834011   1.000000
  795       -1.834007   1.000000
  796       -1.833989   1.000000
  797       -1.833983   1.000000
  798       -1.833979   1.000000
  799       -1.833975   1.000000
  800       -1.806469   1.000000
  801       -1.806469   1.000000
  802       -1.806464   1.000000
  803       -1.806464   1.000000
  804       -1.806419   1.000000
  805       -1.806418   1.000000
  806       -1.806418   1.000000
  807       -1.806412   1.000000
  808       -1.806411   1.000000
  809       -1.806411   1.000000
  810       -1.806400   1.000000
  811       -1.806396   1.000000
  812       -1.765793   1.000000
  813       -1.765793   1.000000
  814       -1.765786   1.000000
  815       -1.765786   1.000000
  816       -1.765745   1.000000
  817       -1.765745   1.000000
  818       -1.765740   1.000000
  819       -1.765740   1.000000
  820       -1.765720   1.000000
  821       -1.765707   1.000000
  822       -1.765704   1.000000
  823       -1.765700   1.000000
  824       -1.759715   1.000000
  825       -1.759690   1.000000
  826       -1.759586   1.000000
  827       -1.759586   1.000000
  828       -1.759562   1.000000
  829       -1.759562   1.000000
  830       -1.757374   1.000000
  831       -1.757372   1.000000
  832       -1.757345   1.000000
  833       -1.757345   1.000000
  834       -1.757343   1.000000
  835       -1.757343   1.000000
  836       -1.751909   1.000000
  837       -1.751907   1.000000
  838       -1.751849   1.000000
  839       -1.751849   1.000000
  840       -1.751847   1.000000
  841       -1.751847   1.000000
  842       -1.736951   1.000000
  843       -1.736951   1.000000
  844       -1.736945   1.000000
  845       -1.736945   1.000000
  846       -1.736881   1.000000
  847       -1.736874   1.000000
  848       -1.723278   1.000000
  849       -1.723222   1.000000
  850       -1.723222   1.000000
  851       -1.694660   1.000000
  852       -1.694655   1.000000
  853       -1.694625   1.000000
  854       -1.694615   1.000000
  855       -1.694613   1.000000
  856       -1.694608   1.000000
  857       -1.680105   1.000000
  858       -1.680056   1.000000
  859       -1.680056   1.000000
  860       -1.678710   1.000000
  861       -1.678707   1.000000
  862       -1.678674   1.000000
  863       -1.678674   1.000000
  864       -1.678671   1.000000
  865       -1.678671   1.000000
  866       -1.629686   1.000000
  867       -1.629686   1.000000
  868       -1.629682   1.000000
  869       -1.629682   1.000000
  870       -1.629656   1.000000
  871       -1.629656   1.000000
  872       -1.629650   1.000000
  873       -1.629648   1.000000
  874       -1.629648   1.000000
  875       -1.629648   1.000000
  876       -1.629637   1.000000
  877       -1.629630   1.000000
  878       -1.614461   1.000000
  879       -1.614461   1.000000
  880       -1.614455   1.000000
  881       -1.614455   1.000000
  882       -1.614431   1.000000
  883       -1.614426   1.000000
  884       -1.585206   1.000000
  885       -1.581084   1.000000
  886       -1.581078   1.000000
  887       -1.580995   1.000000
  888       -1.580995   1.000000
  889       -1.580989   1.000000
  890       -1.580989   1.000000
  891       -1.512025   1.000000
  892       -1.512010   1.000000
  893       -1.511981   1.000000
  894       -1.511977   1.000000
  895       -1.511963   1.000000
  896       -1.511961   1.000000
  897       -1.493264   1.000000
  898       -1.493264   1.000000
  899       -1.493260   1.000000
  900       -1.493260   1.000000
  901       -1.493183   1.000000