         260
 Energy:  -1254.8975172000000     
 X   0.00000000       0.00000000       0.00000000    
 X   0.00000000      -15.1462221       0.00000000    
 X   0.00000000      -7.57311106      -13.1170130    
 X   29.0000000       0.00000000       0.00000000    
 X   0.00000000      -22.7193336      -13.1170130    
 X   29.0000000      -15.1462221       0.00000000    
 X   29.0000000      -7.57311106      -13.1170130    
 X   29.0000000      -22.7193336      -13.1170130    
 Ni   2.25640011      -10.0974798      -5.82978010    
 Ni   2.25640011      -12.6218500      -10.2021198    
 Ni   2.25640011      -7.57311010      -1.45745003    
 Ni   2.25640011      -15.1462202      -5.82978010    
 Ni   2.25640011      -17.6705894      -10.2021198    
 Ni   2.25640011      -12.6218500      -1.45745003    
 Ni   2.25640011      -5.04873991      -5.82978010    
 Ni   2.25640011      -7.57311010      -10.2021198    
 Ni   2.25640011      -2.52436996      -1.45745003    
 Ni   4.54539013      -12.6218500      -7.28723001    
 Ni   4.54539013      -15.1462202      -11.6595697    
 Ni   4.54539013      -10.0974798      -2.91489005    
 Ni   4.54539013      -17.6705894      -7.28723001    
 Ni   4.54539013      -20.1949596      -11.6595697    
 Ni   4.54539013      -15.1462202      -2.91489005    
 Ni   4.54539013      -7.57311010      -7.28723001    
 Ni   4.54539013      -10.0974798      -11.6595697    
 Ni   4.54539013      -5.04873991      -2.91489005    
 Ni   6.76043987      -15.1462202      -8.74468040    
 Ni   6.76043987      -10.0974798       0.00000000    
 Ni   6.76043987      -12.6218500      -4.37234020    
 Ni   6.76043987      -5.04873991      -8.74468040    
 Ni   6.76043987       0.00000000       0.00000000    
 Ni   6.76043987      -2.52436996      -4.37234020    
 Ni   6.76043987      -10.0974798      -8.74468040    
 Ni   6.76043987      -5.04873991       0.00000000    
 Ni   6.76043987      -7.57311010      -4.37234020    
 Ni   9.04018974      -17.6705894      -10.2021198    
 Ni   9.04018974      -12.6218500      -1.45745003    
 Ni   9.04018974      -15.1462202      -5.82978010    
 Ni   9.04018974      -7.57311010      -10.2021198    
 Ni   9.04018974      -2.52436996      -1.45745003    
 Ni   9.04018974      -5.04873991      -5.82978010    
 Ni   9.04018974      -12.6218500      -10.2021198    
 Ni   9.04018974      -7.57311010      -1.45745003    
 Ni   9.04018974      -10.0974798      -5.82978010    
 Ni   11.3199396      -20.1949596      -11.6595697    
 Ni   11.3199396      -15.1462202      -2.91489005    
 Ni   11.3199396      -17.6705894      -7.28723001    
 Ni   11.3199396      -10.0974798      -11.6595697    
 Ni   11.3199396      -5.04873991      -2.91489005    
 Ni   11.3199396      -7.57311010      -7.28723001    
 Ni   11.3199396      -15.1462202      -11.6595697    
 Ni   11.3199396      -10.0974798      -2.91489005    
 Ni   11.3199396      -12.6218500      -7.28723001    
 Ni   13.5349903       0.00000000       0.00000000    
 Ni   13.5349903      -2.52436996      -4.37234020    
 Ni   13.5349903      -5.04873991      -8.74468040    
 Ni   13.5349903      -5.04873991       0.00000000    
 Ni   13.5349903      -7.57311010      -4.37234020    
 Ni   13.5349903      -10.0974798      -8.74468040    
 Ni   13.5349903      -10.0974798       0.00000000    
 Ni   13.5349903      -12.6218500      -4.37234020    
 Ni   13.5349903      -15.1462202      -8.74468040    
 Ni   15.8239803      -2.52436996      -1.45745003    
 Ni   15.8239803      -5.04873991      -5.82978010    
 Ni   15.8239803      -7.57311010      -10.2021198    
 Ni   15.8239803      -7.57311010      -1.45745003    
 Ni   15.8239803      -10.0974798      -5.82978010    
 Ni   15.8239803      -12.6218500      -10.2021198    
 Ni   15.8239803      -12.6218500      -1.45745003    
 Ni   15.8239803      -15.1462202      -5.82978010    
 Ni   15.8239803      -17.6705894      -10.2021198    
 Ni   2.25640011      -6.31092978      -3.64361000    
 Ni   2.25640011      -8.83530045      -8.01595020    
 Ni   2.25640011      -11.3596697      -12.3882904    
 Ni   2.25640011      -11.3596697      -3.64361000    
 Ni   2.25640011      -13.8840399      -8.01595020    
 Ni   2.25640011      -16.4084091      -12.3882904    
 Ni   2.25640011      -16.4084091      -3.64361000    
 Ni   2.25640011      -18.9327793      -8.01595020    
 Ni   2.25640011      -21.4571495      -12.3882904    
 Ni   4.54539013      -8.83530045      -5.10105991    
 Ni   4.54539013      -11.3596697      -9.47340012    
 Ni   4.54539013      -6.31092978     -0.728720009    
 Ni   4.54539013      -13.8840399      -5.10105991    
 Ni   4.54539013      -16.4084091      -9.47340012    
 Ni   4.54539013      -11.3596697     -0.728720009    
 Ni   4.54539013      -3.78656006      -5.10105991    
 Ni   4.54539013      -6.31092978      -9.47340012    
 Ni   4.54539013      -1.26218998     -0.728720009    
 Ni   6.76043987      -11.3596697      -6.55850983    
 Ni   6.76043987      -13.8840399      -10.9308395    
 Ni   6.76043987      -8.83530045      -2.18617010    
 Ni   6.76043987      -16.4084091      -6.55850983    
 Ni   6.76043987      -18.9327793      -10.9308395    
 Ni   6.76043987      -13.8840399      -2.18617010    
 Ni   6.76043987      -6.31092978      -6.55850983    
 Ni   6.76043987      -8.83530045      -10.9308395    
 Ni   6.76043987      -3.78656006      -2.18617010    
 Ni   9.04018974      -13.8840399      -8.01595020    
 Ni   9.04018974      -16.4084091      -12.3882904    
 Ni   9.04018974      -11.3596697      -3.64361000    
 Ni   9.04018974      -18.9327793      -8.01595020    
 Ni   9.04018974      -21.4571495      -12.3882904    
 Ni   9.04018974      -16.4084091      -3.64361000    
 Ni   9.04018974      -8.83530045      -8.01595020    
 Ni   9.04018974      -11.3596697      -12.3882904    
 Ni   9.04018974      -6.31092978      -3.64361000    
 Ni   11.3199396      -16.4084091      -9.47340012    
 Ni   11.3199396      -11.3596697     -0.728720009    
 Ni   11.3199396      -13.8840399      -5.10105991    
 Ni   11.3199396      -6.31092978      -9.47340012    
 Ni   11.3199396      -1.26218998     -0.728720009    
 Ni   11.3199396      -3.78656006      -5.10105991    
 Ni   11.3199396      -11.3596697      -9.47340012    
 Ni   11.3199396      -6.31092978     -0.728720009    
 Ni   11.3199396      -8.83530045      -5.10105991    
 Ni   13.5349903      -18.9327793      -10.9308395    
 Ni   13.5349903      -13.8840399      -2.18617010    
 Ni   13.5349903      -16.4084091      -6.55850983    
 Ni   13.5349903      -8.83530045      -10.9308395    
 Ni   13.5349903      -3.78656006      -2.18617010    
 Ni   13.5349903      -6.31092978      -6.55850983    
 Ni   13.5349903      -13.8840399      -10.9308395    
 Ni   13.5349903      -8.83530045      -2.18617010    
 Ni   13.5349903      -11.3596697      -6.55850983    
 Ni   15.8239803      -21.4571495      -12.3882904    
 Ni   15.8239803      -16.4084091      -3.64361000    
 Ni   15.8239803      -18.9327793      -8.01595020    
 Ni   15.8239803      -11.3596697      -12.3882904    
 Ni   15.8239803      -6.31092978      -3.64361000    
 Ni   15.8239803      -8.83530045      -8.01595020    
 Ni   15.8239803      -16.4084091      -12.3882904    
 Ni   15.8239803      -11.3596697      -3.64361000    
 Ni   15.8239803      -13.8840399      -8.01595020    
 Ni   2.25640011      -7.57311010      -5.82978010    
 Ni   2.25640011      -10.0974798      -10.2021198    
 Ni   2.25640011      -5.04873991      -1.45745003    
 Ni   2.25640011      -12.6218500      -5.82978010    
 Ni   2.25640011      -15.1462202      -10.2021198    
 Ni   2.25640011      -10.0974798      -1.45745003    
 Ni   2.25640011      -17.6705894      -5.82978010    
 Ni   2.25640011      -20.1949596      -10.2021198    
 Ni   2.25640011      -15.1462202      -1.45745003    
 Ni   4.54539013      -10.0974798      -7.28723001    
 Ni   4.54539013      -12.6218500      -11.6595697    
 Ni   4.54539013      -7.57311010      -2.91489005    
 Ni   4.54539013      -15.1462202      -7.28723001    
 Ni   4.54539013      -17.6705894      -11.6595697    
 Ni   4.54539013      -12.6218500      -2.91489005    
 Ni   4.54539013      -5.04873991      -7.28723001    
 Ni   4.54539013      -7.57311010      -11.6595697    
 Ni   4.54539013      -2.52436996      -2.91489005    
 Ni   6.76043987      -12.6218500      -8.74468040    
 Ni   6.76043987      -7.57311010       0.00000000    
 Ni   6.76043987      -10.0974798      -4.37234020    
 Ni   6.76043987      -17.6705894      -8.74468040    
 Ni   6.76043987      -12.6218500       0.00000000    
 Ni   6.76043987      -15.1462202      -4.37234020    
 Ni   6.76043987      -7.57311010      -8.74468040    
 Ni   6.76043987      -2.52436996       0.00000000    
 Ni   6.76043987      -5.04873991      -4.37234020    
 Ni   9.04018974      -15.1462202      -10.2021198    
 Ni   9.04018974      -10.0974798      -1.45745003    
 Ni   9.04018974      -12.6218500      -5.82978010    
 Ni   9.04018974      -20.1949596      -10.2021198    
 Ni   9.04018974      -15.1462202      -1.45745003    
 Ni   9.04018974      -17.6705894      -5.82978010    
 Ni   9.04018974      -10.0974798      -10.2021198    
 Ni   9.04018974      -5.04873991      -1.45745003    
 Ni   9.04018974      -7.57311010      -5.82978010    
 Ni   11.3199396      -17.6705894      -11.6595697    
 Ni   11.3199396      -12.6218500      -2.91489005    
 Ni   11.3199396      -15.1462202      -7.28723001    
 Ni   11.3199396      -7.57311010      -11.6595697    
 Ni   11.3199396      -2.52436996      -2.91489005    
 Ni   11.3199396      -5.04873991      -7.28723001    
 Ni   11.3199396      -12.6218500      -11.6595697    
 Ni   11.3199396      -7.57311010      -2.91489005    
 Ni   11.3199396      -10.0974798      -7.28723001    
 Ni   13.5349903      -12.6218500       0.00000000    
 Ni   13.5349903      -15.1462202      -4.37234020    
 Ni   13.5349903      -17.6705894      -8.74468040    
 Ni   13.5349903      -2.52436996       0.00000000    
 Ni   13.5349903      -5.04873991      -4.37234020    
 Ni   13.5349903      -7.57311010      -8.74468040    
 Ni   13.5349903      -7.57311010       0.00000000    
 Ni   13.5349903      -10.0974798      -4.37234020    
 Ni   13.5349903      -12.6218500      -8.74468040    
 Ni   15.8239803      -15.1462202      -1.45745003    
 Ni   15.8239803      -17.6705894      -5.82978010    
 Ni   15.8239803      -20.1949596      -10.2021198    
 Ni   15.8239803      -5.04873991      -1.45745003    
 Ni   15.8239803      -7.57311010      -5.82978010    
 Ni   15.8239803      -10.0974798      -10.2021198    
 Ni   15.8239803      -10.0974798      -1.45745003    
 Ni   15.8239803      -12.6218500      -5.82978010    
 Ni   15.8239803      -15.1462202      -10.2021198    
 Ni   2.25640011      -8.83530045      -3.64361000    
 Ni   2.25640011      -11.3596697      -8.01595020    
 Ni   2.25640011      -13.8840399      -12.3882904    
 Ni   2.25640011      -13.8840399      -3.64361000    
 Ni   2.25640011      -16.4084091      -8.01595020    
 Ni   2.25640011      -18.9327793      -12.3882904    
 Ni   2.25640011      -3.78656006      -3.64361000    
 Ni   2.25640011      -6.31092978      -8.01595020    
 Ni   2.25640011      -8.83530045      -12.3882904    
 Ni   4.54539013      -11.3596697      -5.10105991    
 Ni   4.54539013      -13.8840399      -9.47340012    
 Ni   4.54539013      -8.83530045     -0.728720009    
 Ni   4.54539013      -16.4084091      -5.10105991    
 Ni   4.54539013      -18.9327793      -9.47340012    
 Ni   4.54539013      -13.8840399     -0.728720009    
 Ni   4.54539013      -6.31092978      -5.10105991    
 Ni   4.54539013      -8.83530045      -9.47340012    
 Ni   4.54539013      -3.78656006     -0.728720009    
 Ni   6.76043987      -13.8840399      -6.55850983    
 Ni   6.76043987      -16.4084091      -10.9308395    
 Ni   6.76043987      -11.3596697      -2.18617010    
 Ni   6.76043987      -3.78656006      -6.55850983    
 Ni   6.76043987      -6.31092978      -10.9308395    
 Ni   6.76043987      -1.26218998      -2.18617010    
 Ni   6.76043987      -8.83530045      -6.55850983    
 Ni   6.76043987      -11.3596697      -10.9308395    
 Ni   6.76043987      -6.31092978      -2.18617010    
 Ni   9.04018974      -16.4084091      -8.01595020    
 Ni   9.04018974      -18.9327793      -12.3882904    
 Ni   9.04018974      -13.8840399      -3.64361000    
 Ni   9.04018974      -6.31092978      -8.01595020    
 Ni   9.04018974      -8.83530045      -12.3882904    
 Ni   9.04018974      -3.78656006      -3.64361000    
 Ni   9.04018974      -11.3596697      -8.01595020    
 Ni   9.04018974      -13.8840399      -12.3882904    
 Ni   9.04018974      -8.83530045      -3.64361000    
 Ni   11.3199396      -18.9327793      -9.47340012    
 Ni   11.3199396      -13.8840399     -0.728720009    
 Ni   11.3199396      -16.4084091      -5.10105991    
 Ni   11.3199396      -8.83530045      -9.47340012    
 Ni   11.3199396      -3.78656006     -0.728720009    
 Ni   11.3199396      -6.31092978      -5.10105991    
 Ni   11.3199396      -13.8840399      -9.47340012    
 Ni   11.3199396      -8.83530045     -0.728720009    
 Ni   11.3199396      -11.3596697      -5.10105991    
 Ni   13.5349903      -6.31092978      -10.9308395    
 Ni   13.5349903      -1.26218998      -2.18617010    
 Ni   13.5349903      -3.78656006      -6.55850983    
 Ni   13.5349903      -11.3596697      -10.9308395    
 Ni   13.5349903      -6.31092978      -2.18617010    
 Ni   13.5349903      -8.83530045      -6.55850983    
 Ni   13.5349903      -16.4084091      -10.9308395    
 Ni   13.5349903      -11.3596697      -2.18617010    
 Ni   13.5349903      -13.8840399      -6.55850983    
 Ni   15.8239803      -8.83530045      -12.3882904    
 Ni   15.8239803      -3.78656006      -3.64361000    
 Ni   15.8239803      -6.31092978      -8.01595020    
 Ni   15.8239803      -13.8840399      -12.3882904    
 Ni   15.8239803      -8.83530045      -3.64361000    
 Ni   15.8239803      -11.3596697      -8.01595020    
 Ni   15.8239803      -18.9327793      -12.3882904    
 Ni   15.8239803      -13.8840399      -3.64361000    
 Ni   15.8239803      -16.4084091      -8.01595020    
         260
 Energy:  -1256.5528472000001     
 X   0.00000000       0.00000000       0.00000000    
 X   0.00000000      -15.1462221       0.00000000    
 X   0.00000000      -7.57311106      -13.1170130    
 X   29.0000000       0.00000000       0.00000000    
 X   0.00000000      -22.7193336      -13.1170130    
 X   29.0000000      -15.1462221       0.00000000    
 X   29.0000000      -7.57311106      -13.1170130    
 X   29.0000000      -22.7193336      -13.1170130    
 Ni   2.27711010      -10.0974798      -5.82978010    
 Ni   2.27711010      -12.6218500      -10.2021198    
 Ni   2.27711010      -7.57311010      -1.45745003    
 Ni   2.27711010      -15.1462202      -5.82978010    
 Ni   2.27711010      -17.6705894      -10.2021198    
 Ni   2.27711010      -12.6218500      -1.45745003    
 Ni   2.27711010      -5.04873991      -5.82978010    
 Ni   2.27711010      -7.57311010      -10.2021198    
 Ni   2.27711010      -2.52436996      -1.45745003    
 Ni   4.54087019      -12.6218500      -7.28723001    
 Ni   4.54087019      -15.1462202      -11.6595697    
 Ni   4.54087019      -10.0974798      -2.91489005    
 Ni   4.54087019      -17.6705894      -7.28723001    
 Ni   4.54087019      -20.1949596      -11.6595697    
 Ni   4.54087019      -15.1462202      -2.91489005    
 Ni   4.54087019      -7.57311010      -7.28723001    
 Ni   4.54087019      -10.0974798      -11.6595697    
 Ni   4.54087019      -5.04873991      -2.91489005    
 Ni   6.76315022      -15.1462202      -8.74468040    
 Ni   6.76315022      -10.0974798      -0.00000000    
 Ni   6.76315022      -12.6218500      -4.37234020    
 Ni   6.76315022      -5.04873991      -8.74468040    
 Ni   6.76315022      -0.00000000      -0.00000000    
 Ni   6.76315022      -2.52436996      -4.37234020    
 Ni   6.76315022      -10.0974798      -8.74468040    
 Ni   6.76315022      -5.04873991       0.00000000    
 Ni   6.76315022      -7.57311010      -4.37234020    
 Ni   9.04018974      -17.6705894      -10.2021198    
 Ni   9.04018974      -12.6218500      -1.45745003    
 Ni   9.04018974      -15.1462202      -5.82978010    
 Ni   9.04018974      -7.57311010      -10.2021198    
 Ni   9.04018974      -2.52436996      -1.45745003    
 Ni   9.04018974      -5.04873991      -5.82978010    
 Ni   9.04018974      -12.6218500      -10.2021198    
 Ni   9.04018974      -7.57311010      -1.45745003    
 Ni   9.04018974      -10.0974798      -5.82978010    
 Ni   11.3172302      -20.1949596      -11.6595697    
 Ni   11.3172302      -15.1462202      -2.91489005    
 Ni   11.3172302      -17.6705894      -7.28723001    
 Ni   11.3172302      -10.0974798      -11.6595697    
 Ni   11.3172302      -5.04873991      -2.91489005    
 Ni   11.3172302      -7.57311010      -7.28723001    
 Ni   11.3172302      -15.1462202      -11.6595697    
 Ni   11.3172302      -10.0974798      -2.91489005    
 Ni   11.3172302      -12.6218500      -7.28723001    
 Ni   13.5395002      -0.00000000      -0.00000000    
 Ni   13.5395002      -2.52436996      -4.37234020    
 Ni   13.5395002      -5.04873991      -8.74468040    
 Ni   13.5395002      -5.04873991      -0.00000000    
 Ni   13.5395002      -7.57311010      -4.37234020    
 Ni   13.5395002      -10.0974798      -8.74468040    
 Ni   13.5395002      -10.0974798      -0.00000000    
 Ni   13.5395002      -12.6218500      -4.37234020    
 Ni   13.5395002      -15.1462202      -8.74468040    
 Ni   15.8032703      -2.52436996      -1.45745003    
 Ni   15.8032703      -5.04873991      -5.82978010    
 Ni   15.8032703      -7.57311010      -10.2021198    
 Ni   15.8032703      -7.57311010      -1.45745003    
 Ni   15.8032703      -10.0974798      -5.82978010    
 Ni   15.8032703      -12.6218500      -10.2021198    
 Ni   15.8032703      -12.6218500      -1.45745003    
 Ni   15.8032703      -15.1462202      -5.82978010    
 Ni   15.8032703      -17.6705894      -10.2021198    
 Ni   2.27711010      -6.31092978      -3.64361000    
 Ni   2.27711010      -8.83530045      -8.01595020    
 Ni   2.27711010      -11.3596697      -12.3882904    
 Ni   2.27711010      -11.3596697      -3.64361000    
 Ni   2.27711010      -13.8840399      -8.01595020    
 Ni   2.27711010      -16.4084091      -12.3882904    
 Ni   2.27711010      -16.4084091      -3.64361000    
 Ni   2.27711010      -18.9327793      -8.01595020    
 Ni   2.27711010      -21.4571495      -12.3882904    
 Ni   4.54087019      -8.83530045      -5.10105991    
 Ni   4.54087019      -11.3596697      -9.47340012    
 Ni   4.54087019      -6.31092978     -0.728720009    
 Ni   4.54087019      -13.8840399      -5.10105991    
 Ni   4.54087019      -16.4084091      -9.47340012    
 Ni   4.54087019      -11.3596697     -0.728720009    
 Ni   4.54087019      -3.78656006      -5.10105991    
 Ni   4.54087019      -6.31092978      -9.47340012    
 Ni   4.54087019      -1.26218998     -0.728720009    
 Ni   6.76315022      -11.3596697      -6.55850983    
 Ni   6.76315022      -13.8840399      -10.9308395    
 Ni   6.76315022      -8.83530045      -2.18617010    
 Ni   6.76315022      -16.4084091      -6.55850983    
 Ni   6.76315022      -18.9327793      -10.9308395    
 Ni   6.76315022      -13.8840399      -2.18617010    
 Ni   6.76315022      -6.31092978      -6.55850983    
 Ni   6.76315022      -8.83530045      -10.9308395    
 Ni   6.76315022      -3.78656006      -2.18617010    
 Ni   9.04018974      -13.8840399      -8.01595020    
 Ni   9.04018974      -16.4084091      -12.3882904    
 Ni   9.04018974      -11.3596697      -3.64361000    
 Ni   9.04018974      -18.9327793      -8.01595020    
 Ni   9.04018974      -21.4571495      -12.3882904    
 Ni   9.04018974      -16.4084091      -3.64361000    
 Ni   9.04018974      -8.83530045      -8.01595020    
 Ni   9.04018974      -11.3596697      -12.3882904    
 Ni   9.04018974      -6.31092978      -3.64361000    
 Ni   11.3172302      -16.4084091      -9.47340012    
 Ni   11.3172302      -11.3596697     -0.728720009    
 Ni   11.3172302      -13.8840399      -5.10105991    
 Ni   11.3172302      -6.31092978      -9.47340012    
 Ni   11.3172302      -1.26218998     -0.728720009    
 Ni   11.3172302      -3.78656006      -5.10105991    
 Ni   11.3172302      -11.3596697      -9.47340012    
 Ni   11.3172302      -6.31092978     -0.728720009    
 Ni   11.3172302      -8.83530045      -5.10105991    
 Ni   13.5395002      -18.9327793      -10.9308395    
 Ni   13.5395002      -13.8840399      -2.18617010    
 Ni   13.5395002      -16.4084091      -6.55850983    
 Ni   13.5395002      -8.83530045      -10.9308395    
 Ni   13.5395002      -3.78656006      -2.18617010    
 Ni   13.5395002      -6.31092978      -6.55850983    
 Ni   13.5395002      -13.8840399      -10.9308395    
 Ni   13.5395002      -8.83530045      -2.18617010    
 Ni   13.5395002      -11.3596697      -6.55850983    
 Ni   15.8032703      -21.4571495      -12.3882904    
 Ni   15.8032703      -16.4084091      -3.64361000    
 Ni   15.8032703      -18.9327793      -8.01595020    
 Ni   15.8032703      -11.3596697      -12.3882904    
 Ni   15.8032703      -6.31092978      -3.64361000    
 Ni   15.8032703      -8.83530045      -8.01595020    
 Ni   15.8032703      -16.4084091      -12.3882904    
 Ni   15.8032703      -11.3596697      -3.64361000    
 Ni   15.8032703      -13.8840399      -8.01595020    
 Ni   2.27711010      -7.57311010      -5.82978010    
 Ni   2.27711010      -10.0974798      -10.2021198    
 Ni   2.27711010      -5.04873991      -1.45745003    
 Ni   2.27711010      -12.6218500      -5.82978010    
 Ni   2.27711010      -15.1462202      -10.2021198    
 Ni   2.27711010      -10.0974798      -1.45745003    
 Ni   2.27711010      -17.6705894      -5.82978010    
 Ni   2.27711010      -20.1949596      -10.2021198    
 Ni   2.27711010      -15.1462202      -1.45745003    
 Ni   4.54087019      -10.0974798      -7.28723001    
 Ni   4.54087019      -12.6218500      -11.6595697    
 Ni   4.54087019      -7.57311010      -2.91489005    
 Ni   4.54087019      -15.1462202      -7.28723001    
 Ni   4.54087019      -17.6705894      -11.6595697    
 Ni   4.54087019      -12.6218500      -2.91489005    
 Ni   4.54087019      -5.04873991      -7.28723001    
 Ni   4.54087019      -7.57311010      -11.6595697    
 Ni   4.54087019      -2.52436996      -2.91489005    
 Ni   6.76315022      -12.6218500      -8.74468040    
 Ni   6.76315022      -7.57311010      -0.00000000    
 Ni   6.76315022      -10.0974798      -4.37234020    
 Ni   6.76315022      -17.6705894      -8.74468040    
 Ni   6.76315022      -12.6218500      -0.00000000    
 Ni   6.76315022      -15.1462202      -4.37234020    
 Ni   6.76315022      -7.57311010      -8.74468040    
 Ni   6.76315022      -2.52436996      -0.00000000    
 Ni   6.76315022      -5.04873991      -4.37234020    
 Ni   9.04018974      -15.1462202      -10.2021198    
 Ni   9.04018974      -10.0974798      -1.45745003    
 Ni   9.04018974      -12.6218500      -5.82978010    
 Ni   9.04018974      -20.1949596      -10.2021198    
 Ni   9.04018974      -15.1462202      -1.45745003    
 Ni   9.04018974      -17.6705894      -5.82978010    
 Ni   9.04018974      -10.0974798      -10.2021198    
 Ni   9.04018974      -5.04873991      -1.45745003    
 Ni   9.04018974      -7.57311010      -5.82978010    
 Ni   11.3172302      -17.6705894      -11.6595697    
 Ni   11.3172302      -12.6218500      -2.91489005    
 Ni   11.3172302      -15.1462202      -7.28723001    
 Ni   11.3172302      -7.57311010      -11.6595697    
 Ni   11.3172302      -2.52436996      -2.91489005    
 Ni   11.3172302      -5.04873991      -7.28723001    
 Ni   11.3172302      -12.6218500      -11.6595697    
 Ni   11.3172302      -7.57311010      -2.91489005    
 Ni   11.3172302      -10.0974798      -7.28723001    
 Ni   13.5395002      -12.6218500      -0.00000000    
 Ni   13.5395002      -15.1462202      -4.37234020    
 Ni   13.5395002      -17.6705894      -8.74468040    
 Ni   13.5395002      -2.52436996       0.00000000    
 Ni   13.5395002      -5.04873991      -4.37234020    
 Ni   13.5395002      -7.57311010      -8.74468040    
 Ni   13.5395002      -7.57311010       0.00000000    
 Ni   13.5395002      -10.0974798      -4.37234020    
 Ni   13.5395002      -12.6218500      -8.74468040    
 Ni   15.8032703      -15.1462202      -1.45745003    
 Ni   15.8032703      -17.6705894      -5.82978010    
 Ni   15.8032703      -20.1949596      -10.2021198    
 Ni   15.8032703      -5.04873991      -1.45745003    
 Ni   15.8032703      -7.57311010      -5.82978010    
 Ni   15.8032703      -10.0974798      -10.2021198    
 Ni   15.8032703      -10.0974798      -1.45745003    
 Ni   15.8032703      -12.6218500      -5.82978010    
 Ni   15.8032703      -15.1462202      -10.2021198    
 Ni   2.27711010      -8.83530045      -3.64361000    
 Ni   2.27711010      -11.3596697      -8.01595020    
 Ni   2.27711010      -13.8840399      -12.3882904    
 Ni   2.27711010      -13.8840399      -3.64361000    
 Ni   2.27711010      -16.4084091      -8.01595020    
 Ni   2.27711010      -18.9327793      -12.3882904    
 Ni   2.27711010      -3.78656006      -3.64361000    
 Ni   2.27711010      -6.31092978      -8.01595020    
 Ni   2.27711010      -8.83530045      -12.3882904    
 Ni   4.54087019      -11.3596697      -5.10105991    
 Ni   4.54087019      -13.8840399      -9.47340012    
 Ni   4.54087019      -8.83530045     -0.728720009    
 Ni   4.54087019      -16.4084091      -5.10105991    
 Ni   4.54087019      -18.9327793      -9.47340012    
 Ni   4.54087019      -13.8840399     -0.728720009    
 Ni   4.54087019      -6.31092978      -5.10105991    
 Ni   4.54087019      -8.83530045      -9.47340012    
 Ni   4.54087019      -3.78656006     -0.728720009    
 Ni   6.76315022      -13.8840399      -6.55850983    
 Ni   6.76315022      -16.4084091      -10.9308395    
 Ni   6.76315022      -11.3596697      -2.18617010    
 Ni   6.76315022      -3.78656006      -6.55850983    
 Ni   6.76315022      -6.31092978      -10.9308395    
 Ni   6.76315022      -1.26218998      -2.18617010    
 Ni   6.76315022      -8.83530045      -6.55850983    
 Ni   6.76315022      -11.3596697      -10.9308395    
 Ni   6.76315022      -6.31092978      -2.18617010    
 Ni   9.04018974      -16.4084091      -8.01595020    
 Ni   9.04018974      -18.9327793      -12.3882904    
 Ni   9.04018974      -13.8840399      -3.64361000    
 Ni   9.04018974      -6.31092978      -8.01595020    
 Ni   9.04018974      -8.83530045      -12.3882904    
 Ni   9.04018974      -3.78656006      -3.64361000    
 Ni   9.04018974      -11.3596697      -8.01595020    
 Ni   9.04018974      -13.8840399      -12.3882904    
 Ni   9.04018974      -8.83530045      -3.64361000    
 Ni   11.3172302      -18.9327793      -9.47340012    
 Ni   11.3172302      -13.8840399     -0.728720009    
 Ni   11.3172302      -16.4084091      -5.10105991    
 Ni   11.3172302      -8.83530045      -9.47340012    
 Ni   11.3172302      -3.78656006     -0.728720009    
 Ni   11.3172302      -6.31092978      -5.10105991    
 Ni   11.3172302      -13.8840399      -9.47340012    
 Ni   11.3172302      -8.83530045     -0.728720009    
 Ni   11.3172302      -11.3596697      -5.10105991    
 Ni   13.5395002      -6.31092978      -10.9308395    
 Ni   13.5395002      -1.26218998      -2.18617010    
 Ni   13.5395002      -3.78656006      -6.55850983    
 Ni   13.5395002      -11.3596697      -10.9308395    
 Ni   13.5395002      -6.31092978      -2.18617010    
 Ni   13.5395002      -8.83530045      -6.55850983    
 Ni   13.5395002      -16.4084091      -10.9308395    
 Ni   13.5395002      -11.3596697      -2.18617010    
 Ni   13.5395002      -13.8840399      -6.55850983    
 Ni   15.8032703      -8.83530045      -12.3882904    
 Ni   15.8032703      -3.78656006      -3.64361000    
 Ni   15.8032703      -6.31092978      -8.01595020    
 Ni   15.8032703      -13.8840399      -12.3882904    
 Ni   15.8032703      -8.83530045      -3.64361000    
 Ni   15.8032703      -11.3596697      -8.01595020    
 Ni   15.8032703      -18.9327793      -12.3882904    
 Ni   15.8032703      -13.8840399      -3.64361000    
 Ni   15.8032703      -16.4084091      -8.01595020    
         260
 Energy:  -1260.7219525000000     
 X   0.00000000       0.00000000       0.00000000    
 X   0.00000000      -15.1462221       0.00000000    
 X   0.00000000      -7.57311106      -13.1170130    
 X   29.0000000       0.00000000       0.00000000    
 X   0.00000000      -22.7193336      -13.1170130    
 X   29.0000000      -15.1462221       0.00000000    
 X   29.0000000      -7.57311106      -13.1170130    
 X   29.0000000      -22.7193336      -13.1170130    
 Ni   2.33924007      -10.0974798      -5.82978010    
 Ni   2.33924007      -12.6218500      -10.2021198    
 Ni   2.33924007      -7.57311010      -1.45745003    
 Ni   2.33924007      -15.1462202      -5.82978010    
 Ni   2.33924007      -17.6705894      -10.2021198    
 Ni   2.33924007      -12.6218500      -1.45745003    
 Ni   2.33924007      -5.04873991      -5.82978010    
 Ni   2.33924007      -7.57311010      -10.2021198    
 Ni   2.33924007      -2.52436996      -1.45745003    
 Ni   4.52731991      -12.6218500      -7.28723001    
 Ni   4.52731991      -15.1462202      -11.6595697    
 Ni   4.52731991      -10.0974798      -2.91489005    
 Ni   4.52731991      -17.6705894      -7.28723001    
 Ni   4.52731991      -20.1949596      -11.6595697    
 Ni   4.52731991      -15.1462202      -2.91489005    