         260
 Energy:  -1254.89751720000     
 X  0.0000000E+00  0.0000000E+00  0.0000000E+00
 X  0.0000000E+00  -15.14622      0.0000000E+00
 X  0.0000000E+00  -7.573111      -13.11701    
 X   29.00000      0.0000000E+00  0.0000000E+00
 X  0.0000000E+00  -22.71933      -13.11701    
 X   29.00000      -15.14622      0.0000000E+00
 X   29.00000      -7.573111      -13.11701    
 X   29.00000      -22.71933      -13.11701    
 Ni   2.256400      -10.09748      -5.829780    
 Ni   2.256400      -12.62185      -10.20212    
 Ni   2.256400      -7.573110      -1.457450    
 Ni   2.256400      -15.14622      -5.829780    
 Ni   2.256400      -17.67059      -10.20212    
 Ni   2.256400      -12.62185      -1.457450    
 Ni   2.256400      -5.048740      -5.829780    
 Ni   2.256400      -7.573110      -10.20212    
 Ni   2.256400      -2.524370      -1.457450    
 Ni   4.545390      -12.62185      -7.287230    
 Ni   4.545390      -15.14622      -11.65957    
 Ni   4.545390      -10.09748      -2.914890    
 Ni   4.545390      -17.67059      -7.287230    
 Ni   4.545390      -20.19496      -11.65957    
 Ni   4.545390      -15.14622      -2.914890    
 Ni   4.545390      -7.573110      -7.287230    
 Ni   4.545390      -10.09748      -11.65957    
 Ni   4.545390      -5.048740      -2.914890    
 Ni   6.760440      -15.14622      -8.744680    
 Ni   6.760440      -10.09748      0.0000000E+00
 Ni   6.760440      -12.62185      -4.372340    
 Ni   6.760440      -5.048740      -8.744680    
 Ni   6.760440      0.0000000E+00  0.0000000E+00
 Ni   6.760440      -2.524370      -4.372340    
 Ni   6.760440      -10.09748      -8.744680    
 Ni   6.760440      -5.048740      0.0000000E+00
 Ni   6.760440      -7.573110      -4.372340    
 Ni   9.040190      -17.67059      -10.20212    
 Ni   9.040190      -12.62185      -1.457450    
 Ni   9.040190      -15.14622      -5.829780    
 Ni   9.040190      -7.573110      -10.20212    
 Ni   9.040190      -2.524370      -1.457450    
 Ni   9.040190      -5.048740      -5.829780    
 Ni   9.040190      -12.62185      -10.20212    
 Ni   9.040190      -7.573110      -1.457450    
 Ni   9.040190      -10.09748      -5.829780    
 Ni   11.31994      -20.19496      -11.65957    
 Ni   11.31994      -15.14622      -2.914890    
 Ni   11.31994      -17.67059      -7.287230    
 Ni   11.31994      -10.09748      -11.65957    
 Ni   11.31994      -5.048740      -2.914890    
 Ni   11.31994      -7.573110      -7.287230    
 Ni   11.31994      -15.14622      -11.65957    
 Ni   11.31994      -10.09748      -2.914890    
 Ni   11.31994      -12.62185      -7.287230    
 Ni   13.53499      0.0000000E+00  0.0000000E+00
 Ni   13.53499      -2.524370      -4.372340    
 Ni   13.53499      -5.048740      -8.744680    
 Ni   13.53499      -5.048740      0.0000000E+00
 Ni   13.53499      -7.573110      -4.372340    
 Ni   13.53499      -10.09748      -8.744680    
 Ni   13.53499      -10.09748      0.0000000E+00
 Ni   13.53499      -12.62185      -4.372340    
 Ni   13.53499      -15.14622      -8.744680    
 Ni   15.82398      -2.524370      -1.457450    
 Ni   15.82398      -5.048740      -5.829780    
 Ni   15.82398      -7.573110      -10.20212    
 Ni   15.82398      -7.573110      -1.457450    
 Ni   15.82398      -10.09748      -5.829780    
 Ni   15.82398      -12.62185      -10.20212    
 Ni   15.82398      -12.62185      -1.457450    
 Ni   15.82398      -15.14622      -5.829780    
 Ni   15.82398      -17.67059      -10.20212    
 Ni   2.256400      -6.310930      -3.643610    
 Ni   2.256400      -8.835300      -8.015950    
 Ni   2.256400      -11.35967      -12.38829    
 Ni   2.256400      -11.35967      -3.643610    
 Ni   2.256400      -13.88404      -8.015950    
 Ni   2.256400      -16.40841      -12.38829    
 Ni   2.256400      -16.40841      -3.643610    
 Ni   2.256400      -18.93278      -8.015950    
 Ni   2.256400      -21.45715      -12.38829    
 Ni   4.545390      -8.835300      -5.101060    
 Ni   4.545390      -11.35967      -9.473400    
 Ni   4.545390      -6.310930     -0.7287200    
 Ni   4.545390      -13.88404      -5.101060    
 Ni   4.545390      -16.40841      -9.473400    
 Ni   4.545390      -11.35967     -0.7287200    
 Ni   4.545390      -3.786560      -5.101060    
 Ni   4.545390      -6.310930      -9.473400    
 Ni   4.545390      -1.262190     -0.7287200    
 Ni   6.760440      -11.35967      -6.558510    
 Ni   6.760440      -13.88404      -10.93084    
 Ni   6.760440      -8.835300      -2.186170    
 Ni   6.760440      -16.40841      -6.558510    
 Ni   6.760440      -18.93278      -10.93084    
 Ni   6.760440      -13.88404      -2.186170    
 Ni   6.760440      -6.310930      -6.558510    
 Ni   6.760440      -8.835300      -10.93084    
 Ni   6.760440      -3.786560      -2.186170    
 Ni   9.040190      -13.88404      -8.015950    
 Ni   9.040190      -16.40841      -12.38829    
 Ni   9.040190      -11.35967      -3.643610    
 Ni   9.040190      -18.93278      -8.015950    
 Ni   9.040190      -21.45715      -12.38829    
 Ni   9.040190      -16.40841      -3.643610    
 Ni   9.040190      -8.835300      -8.015950    
 Ni   9.040190      -11.35967      -12.38829    
 Ni   9.040190      -6.310930      -3.643610    
 Ni   11.31994      -16.40841      -9.473400    
 Ni   11.31994      -11.35967     -0.7287200    
 Ni   11.31994      -13.88404      -5.101060    
 Ni   11.31994      -6.310930      -9.473400    
 Ni   11.31994      -1.262190     -0.7287200    
 Ni   11.31994      -3.786560      -5.101060    
 Ni   11.31994      -11.35967      -9.473400    
 Ni   11.31994      -6.310930     -0.7287200    
 Ni   11.31994      -8.835300      -5.101060    
 Ni   13.53499      -18.93278      -10.93084    
 Ni   13.53499      -13.88404      -2.186170    
 Ni   13.53499      -16.40841      -6.558510    
 Ni   13.53499      -8.835300      -10.93084    
 Ni   13.53499      -3.786560      -2.186170    
 Ni   13.53499      -6.310930      -6.558510    
 Ni   13.53499      -13.88404      -10.93084    
 Ni   13.53499      -8.835300      -2.186170    
 Ni   13.53499      -11.35967      -6.558510    
 Ni   15.82398      -21.45715      -12.38829    
 Ni   15.82398      -16.40841      -3.643610    
 Ni   15.82398      -18.93278      -8.015950    
 Ni   15.82398      -11.35967      -12.38829    
 Ni   15.82398      -6.310930      -3.643610    
 Ni   15.82398      -8.835300      -8.015950    
 Ni   15.82398      -16.40841      -12.38829    
 Ni   15.82398      -11.35967      -3.643610    
 Ni   15.82398      -13.88404      -8.015950    
 Ni   2.256400      -7.573110      -5.829780    
 Ni   2.256400      -10.09748      -10.20212    
 Ni   2.256400      -5.048740      -1.457450    
 Ni   2.256400      -12.62185      -5.829780    
 Ni   2.256400      -15.14622      -10.20212    
 Ni   2.256400      -10.09748      -1.457450    
 Ni   2.256400      -17.67059      -5.829780    
 Ni   2.256400      -20.19496      -10.20212    
 Ni   2.256400      -15.14622      -1.457450    
 Ni   4.545390      -10.09748      -7.287230    
 Ni   4.545390      -12.62185      -11.65957    
 Ni   4.545390      -7.573110      -2.914890    
 Ni   4.545390      -15.14622      -7.287230    
 Ni   4.545390      -17.67059      -11.65957    
 Ni   4.545390      -12.62185      -2.914890    
 Ni   4.545390      -5.048740      -7.287230    
 Ni   4.545390      -7.573110      -11.65957    
 Ni   4.545390      -2.524370      -2.914890    
 Ni   6.760440      -12.62185      -8.744680    
 Ni   6.760440      -7.573110      0.0000000E+00
 Ni   6.760440      -10.09748      -4.372340    
 Ni   6.760440      -17.67059      -8.744680    
 Ni   6.760440      -12.62185      0.0000000E+00
 Ni   6.760440      -15.14622      -4.372340    
 Ni   6.760440      -7.573110      -8.744680    
 Ni   6.760440      -2.524370      0.0000000E+00
 Ni   6.760440      -5.048740      -4.372340    
 Ni   9.040190      -15.14622      -10.20212    
 Ni   9.040190      -10.09748      -1.457450    
 Ni   9.040190      -12.62185      -5.829780    
 Ni   9.040190      -20.19496      -10.20212    
 Ni   9.040190      -15.14622      -1.457450    
 Ni   9.040190      -17.67059      -5.829780    
 Ni   9.040190      -10.09748      -10.20212    
 Ni   9.040190      -5.048740      -1.457450    
 Ni   9.040190      -7.573110      -5.829780    
 Ni   11.31994      -17.67059      -11.65957    
 Ni   11.31994      -12.62185      -2.914890    
 Ni   11.31994      -15.14622      -7.287230    
 Ni   11.31994      -7.573110      -11.65957    
 Ni   11.31994      -2.524370      -2.914890    
 Ni   11.31994      -5.048740      -7.287230    
 Ni   11.31994      -12.62185      -11.65957    
 Ni   11.31994      -7.573110      -2.914890    
 Ni   11.31994      -10.09748      -7.287230    
 Ni   13.53499      -12.62185      0.0000000E+00
 Ni   13.53499      -15.14622      -4.372340    
 Ni   13.53499      -17.67059      -8.744680    
 Ni   13.53499      -2.524370      0.0000000E+00
 Ni   13.53499      -5.048740      -4.372340    
 Ni   13.53499      -7.573110      -8.744680    
 Ni   13.53499      -7.573110      0.0000000E+00
 Ni   13.53499      -10.09748      -4.372340    
 Ni   13.53499      -12.62185      -8.744680    
 Ni   15.82398      -15.14622      -1.457450    
 Ni   15.82398      -17.67059      -5.829780    
 Ni   15.82398      -20.19496      -10.20212    
 Ni   15.82398      -5.048740      -1.457450    
 Ni   15.82398      -7.573110      -5.829780    
 Ni   15.82398      -10.09748      -10.20212    
 Ni   15.82398      -10.09748      -1.457450    
 Ni   15.82398      -12.62185      -5.829780    
 Ni   15.82398      -15.14622      -10.20212    
 Ni   2.256400      -8.835300      -3.643610    
 Ni   2.256400      -11.35967      -8.015950    
 Ni   2.256400      -13.88404      -12.38829    
 Ni   2.256400      -13.88404      -3.643610    
 Ni   2.256400      -16.40841      -8.015950    
 Ni   2.256400      -18.93278      -12.38829    
 Ni   2.256400      -3.786560      -3.643610    
 Ni   2.256400      -6.310930      -8.015950    
 Ni   2.256400      -8.835300      -12.38829    
 Ni   4.545390      -11.35967      -5.101060    
 Ni   4.545390      -13.88404      -9.473400    
 Ni   4.545390      -8.835300     -0.7287200    
 Ni   4.545390      -16.40841      -5.101060    
 Ni   4.545390      -18.93278      -9.473400    
 Ni   4.545390      -13.88404     -0.7287200    
 Ni   4.545390      -6.310930      -5.101060    
 Ni   4.545390      -8.835300      -9.473400    
 Ni   4.545390      -3.786560     -0.7287200    
 Ni   6.760440      -13.88404      -6.558510    
 Ni   6.760440      -16.40841      -10.93084    
 Ni   6.760440      -11.35967      -2.186170    
 Ni   6.760440      -3.786560      -6.558510    
 Ni   6.760440      -6.310930      -10.93084    
 Ni   6.760440      -1.262190      -2.186170    
 Ni   6.760440      -8.835300      -6.558510    
 Ni   6.760440      -11.35967      -10.93084    
 Ni   6.760440      -6.310930      -2.186170    
 Ni   9.040190      -16.40841      -8.015950    
 Ni   9.040190      -18.93278      -12.38829    
 Ni   9.040190      -13.88404      -3.643610    
 Ni   9.040190      -6.310930      -8.015950    
 Ni   9.040190      -8.835300      -12.38829    
 Ni   9.040190      -3.786560      -3.643610    
 Ni   9.040190      -11.35967      -8.015950    
 Ni   9.040190      -13.88404      -12.38829    
 Ni   9.040190      -8.835300      -3.643610    
 Ni   11.31994      -18.93278      -9.473400    
 Ni   11.31994      -13.88404     -0.7287200    
 Ni   11.31994      -16.40841      -5.101060    
 Ni   11.31994      -8.835300      -9.473400    
 Ni   11.31994      -3.786560     -0.7287200    
 Ni   11.31994      -6.310930      -5.101060    
 Ni   11.31994      -13.88404      -9.473400    
 Ni   11.31994      -8.835300     -0.7287200    
 Ni   11.31994      -11.35967      -5.101060    
 Ni   13.53499      -6.310930      -10.93084    
 Ni   13.53499      -1.262190      -2.186170    
 Ni   13.53499      -3.786560      -6.558510    
 Ni   13.53499      -11.35967      -10.93084    
 Ni   13.53499      -6.310930      -2.186170    
 Ni   13.53499      -8.835300      -6.558510    
 Ni   13.53499      -16.40841      -10.93084    
 Ni   13.53499      -11.35967      -2.186170    
 Ni   13.53499      -13.88404      -6.558510    
 Ni   15.82398      -8.835300      -12.38829    
 Ni   15.82398      -3.786560      -3.643610    
 Ni   15.82398      -6.310930      -8.015950    
 Ni   15.82398      -13.88404      -12.38829    
 Ni   15.82398      -8.835300      -3.643610    
 Ni   15.82398      -11.35967      -8.015950    
 Ni   15.82398      -18.93278      -12.38829    
 Ni   15.82398      -13.88404      -3.643610    
 Ni   15.82398      -16.40841      -8.015950    
         260
 Energy:  -1256.55284720000     
 X  0.0000000E+00  0.0000000E+00  0.0000000E+00
 X  0.0000000E+00  -15.14622      0.0000000E+00
 X  0.0000000E+00  -7.573111      -13.11701    
 X   29.00000      0.0000000E+00  0.0000000E+00
 X  0.0000000E+00  -22.71933      -13.11701    
 X   29.00000      -15.14622      0.0000000E+00
 X   29.00000      -7.573111      -13.11701    
 X   29.00000      -22.71933      -13.11701    
 Ni   2.277110      -10.09748      -5.829780    
 Ni   2.277110      -12.62185      -10.20212    
 Ni   2.277110      -7.573110      -1.457450    
 Ni   2.277110      -15.14622      -5.829780    
 Ni   2.277110      -17.67059      -10.20212    
 Ni   2.277110      -12.62185      -1.457450    
 Ni   2.277110      -5.048740      -5.829780    
 Ni   2.277110      -7.573110      -10.20212    
 Ni   2.277110      -2.524370      -1.457450    
 Ni   4.540870      -12.62185      -7.287230    
 Ni   4.540870      -15.14622      -11.65957    
 Ni   4.540870      -10.09748      -2.914890    
 Ni   4.540870      -17.67059      -7.287230    
 Ni   4.540870      -20.19496      -11.65957    
 Ni   4.540870      -15.14622      -2.914890    
 Ni   4.540870      -7.573110      -7.287230    
 Ni   4.540870      -10.09748      -11.65957    
 Ni   4.540870      -5.048740      -2.914890    
 Ni   6.763150      -15.14622      -8.744680    
 Ni   6.763150      -10.09748      0.0000000E+00
 Ni   6.763150      -12.62185      -4.372340    
 Ni   6.763150      -5.048740      -8.744680    
 Ni   6.763150      0.0000000E+00  0.0000000E+00
 Ni   6.763150      -2.524370      -4.372340    
 Ni   6.763150      -10.09748      -8.744680    
 Ni   6.763150      -5.048740      0.0000000E+00
 Ni   6.763150      -7.573110      -4.372340    
 Ni   9.040190      -17.67059      -10.20212    
 Ni   9.040190      -12.62185      -1.457450    
 Ni   9.040190      -15.14622      -5.829780    
 Ni   9.040190      -7.573110      -10.20212    
 Ni   9.040190      -2.524370      -1.457450    
 Ni   9.040190      -5.048740      -5.829780    
 Ni   9.040190      -12.62185      -10.20212    
 Ni   9.040190      -7.573110      -1.457450    
 Ni   9.040190      -10.09748      -5.829780    
 Ni   11.31723      -20.19496      -11.65957    
 Ni   11.31723      -15.14622      -2.914890    
 Ni   11.31723      -17.67059      -7.287230    
 Ni   11.31723      -10.09748      -11.65957    
 Ni   11.31723      -5.048740      -2.914890    
 Ni   11.31723      -7.573110      -7.287230    
 Ni   11.31723      -15.14622      -11.65957    
 Ni   11.31723      -10.09748      -2.914890    
 Ni   11.31723      -12.62185      -7.287230    
 Ni   13.53950      0.0000000E+00  0.0000000E+00
 Ni   13.53950      -2.524370      -4.372340    
 Ni   13.53950      -5.048740      -8.744680    
 Ni   13.53950      -5.048740      0.0000000E+00
 Ni   13.53950      -7.573110      -4.372340    
 Ni   13.53950      -10.09748      -8.744680    
 Ni   13.53950      -10.09748      0.0000000E+00
 Ni   13.53950      -12.62185      -4.372340    
 Ni   13.53950      -15.14622      -8.744680    
 Ni   15.80327      -2.524370      -1.457450    
 Ni   15.80327      -5.048740      -5.829780    
 Ni   15.80327      -7.573110      -10.20212    
 Ni   15.80327      -7.573110      -1.457450    
 Ni   15.80327      -10.09748      -5.829780    
 Ni   15.80327      -12.62185      -10.20212    
 Ni   15.80327      -12.62185      -1.457450    
 Ni   15.80327      -15.14622      -5.829780    
 Ni   15.80327      -17.67059      -10.20212    
 Ni   2.277110      -6.310930      -3.643610    
 Ni   2.277110      -8.835300      -8.015950    
 Ni   2.277110      -11.35967      -12.38829    
 Ni   2.277110      -11.35967      -3.643610    
 Ni   2.277110      -13.88404      -8.015950    
 Ni   2.277110      -16.40841      -12.38829    
 Ni   2.277110      -16.40841      -3.643610    
 Ni   2.277110      -18.93278      -8.015950    
 Ni   2.277110      -21.45715      -12.38829    
 Ni   4.540870      -8.835300      -5.101060    
 Ni   4.540870      -11.35967      -9.473400    
 Ni   4.540870      -6.310930     -0.7287200    
 Ni   4.540870      -13.88404      -5.101060    
 Ni   4.540870      -16.40841      -9.473400    
 Ni   4.540870      -11.35967     -0.7287200    
 Ni   4.540870      -3.786560      -5.101060    
 Ni   4.540870      -6.310930      -9.473400    
 Ni   4.540870      -1.262190     -0.7287200    
 Ni   6.763150      -11.35967      -6.558510    
 Ni   6.763150      -13.88404      -10.93084    
 Ni   6.763150      -8.835300      -2.186170    
 Ni   6.763150      -16.40841      -6.558510    
 Ni   6.763150      -18.93278      -10.93084    
 Ni   6.763150      -13.88404      -2.186170    
 Ni   6.763150      -6.310930      -6.558510    
 Ni   6.763150      -8.835300      -10.93084    
 Ni   6.763150      -3.786560      -2.186170    
 Ni   9.040190      -13.88404      -8.015950    
 Ni   9.040190      -16.40841      -12.38829    
 Ni   9.040190      -11.35967      -3.643610    
 Ni   9.040190      -18.93278      -8.015950    
 Ni   9.040190      -21.45715      -12.38829    
 Ni   9.040190      -16.40841      -3.643610    
 Ni   9.040190      -8.835300      -8.015950    
 Ni   9.040190      -11.35967      -12.38829    
 Ni   9.040190      -6.310930      -3.643610    
 Ni   11.31723      -16.40841      -9.473400    
 Ni   11.31723      -11.35967     -0.7287200    
 Ni   11.31723      -13.88404      -5.101060    
 Ni   11.31723      -6.310930      -9.473400    
 Ni   11.31723      -1.262190     -0.7287200    
 Ni   11.31723      -3.786560      -5.101060    
 Ni   11.31723      -11.35967      -9.473400    
 Ni   11.31723      -6.310930     -0.7287200    
 Ni   11.31723      -8.835300      -5.101060    
 Ni   13.53950      -18.93278      -10.93084    
 Ni   13.53950      -13.88404      -2.186170    
 Ni   13.53950      -16.40841      -6.558510    
 Ni   13.53950      -8.835300      -10.93084    
 Ni   13.53950      -3.786560      -2.186170    
 Ni   13.53950      -6.310930      -6.558510    
 Ni   13.53950      -13.88404      -10.93084    
 Ni   13.53950      -8.835300      -2.186170    
 Ni   13.53950      -11.35967      -6.558510    
 Ni   15.80327      -21.45715      -12.38829    
 Ni   15.80327      -16.40841      -3.643610    
 Ni   15.80327      -18.93278      -8.015950    
 Ni   15.80327      -11.35967      -12.38829    
 Ni   15.80327      -6.310930      -3.643610    
 Ni   15.80327      -8.835300      -8.015950    
 Ni   15.80327      -16.40841      -12.38829    
 Ni   15.80327      -11.35967      -3.643610    
 Ni   15.80327      -13.88404      -8.015950    
 Ni   2.277110      -7.573110      -5.829780    
 Ni   2.277110      -10.09748      -10.20212    
 Ni   2.277110      -5.048740      -1.457450    
 Ni   2.277110      -12.62185      -5.829780    
 Ni   2.277110      -15.14622      -10.20212    
 Ni   2.277110      -10.09748      -1.457450    
 Ni   2.277110      -17.67059      -5.829780    
 Ni   2.277110      -20.19496      -10.20212    
 Ni   2.277110      -15.14622      -1.457450    
 Ni   4.540870      -10.09748      -7.287230    
 Ni   4.540870      -12.62185      -11.65957    
 Ni   4.540870      -7.573110      -2.914890    
 Ni   4.540870      -15.14622      -7.287230    
 Ni   4.540870      -17.67059      -11.65957    
 Ni   4.540870      -12.62185      -2.914890    
 Ni   4.540870      -5.048740      -7.287230    
 Ni   4.540870      -7.573110      -11.65957    
 Ni   4.540870      -2.524370      -2.914890    
 Ni   6.763150      -12.62185      -8.744680    
 Ni   6.763150      -7.573110      0.0000000E+00
 Ni   6.763150      -10.09748      -4.372340    
 Ni   6.763150      -17.67059      -8.744680    
 Ni   6.763150      -12.62185      0.0000000E+00
 Ni   6.763150      -15.14622      -4.372340    
 Ni   6.763150      -7.573110      -8.744680    
 Ni   6.763150      -2.524370      0.0000000E+00
 Ni   6.763150      -5.048740      -4.372340    
 Ni   9.040190      -15.14622      -10.20212    
 Ni   9.040190      -10.09748      -1.457450    
 Ni   9.040190      -12.62185      -5.829780    
 Ni   9.040190      -20.19496      -10.20212    
 Ni   9.040190      -15.14622      -1.457450    
 Ni   9.040190      -17.67059      -5.829780    
 Ni   9.040190      -10.09748      -10.20212    
 Ni   9.040190      -5.048740      -1.457450    
 Ni   9.040190      -7.573110      -5.829780    
 Ni   11.31723      -17.67059      -11.65957    
 Ni   11.31723      -12.62185      -2.914890    
 Ni   11.31723      -15.14622      -7.287230    
 Ni   11.31723      -7.573110      -11.65957    
 Ni   11.31723      -2.524370      -2.914890    
 Ni   11.31723      -5.048740      -7.287230    
 Ni   11.31723      -12.62185      -11.65957    
 Ni   11.31723      -7.573110      -2.914890    
 Ni   11.31723      -10.09748      -7.287230    
 Ni   13.53950      -12.62185      0.0000000E+00
 Ni   13.53950      -15.14622      -4.372340    
 Ni   13.53950      -17.67059      -8.744680    
 Ni   13.53950      -2.524370      0.0000000E+00
 Ni   13.53950      -5.048740      -4.372340    
 Ni   13.53950      -7.573110      -8.744680    
 Ni   13.53950      -7.573110      0.0000000E+00
 Ni   13.53950      -10.09748      -4.372340    
 Ni   13.53950      -12.62185      -8.744680    
 Ni   15.80327      -15.14622      -1.457450    
 Ni   15.80327      -17.67059      -5.829780    
 Ni   15.80327      -20.19496      -10.20212    
 Ni   15.80327      -5.048740      -1.457450    
 Ni   15.80327      -7.573110      -5.829780    
 Ni   15.80327      -10.09748      -10.20212    
 Ni   15.80327      -10.09748      -1.457450    
 Ni   15.80327      -12.62185      -5.829780    
 Ni   15.80327      -15.14622      -10.20212    
 Ni   2.277110      -8.835300      -3.643610    
 Ni   2.277110      -11.35967      -8.015950    
 Ni   2.277110      -13.88404      -12.38829    
 Ni   2.277110      -13.88404      -3.643610    
 Ni   2.277110      -16.40841      -8.015950    
 Ni   2.277110      -18.93278      -12.38829    
 Ni   2.277110      -3.786560      -3.643610    
 Ni   2.277110      -6.310930      -8.015950    
 Ni   2.277110      -8.835300      -12.38829    
 Ni   4.540870      -11.35967      -5.101060    
 Ni   4.540870      -13.88404      -9.473400    
 Ni   4.540870      -8.835300     -0.7287200    
 Ni   4.540870      -16.40841      -5.101060    
 Ni   4.540870      -18.93278      -9.473400    
 Ni   4.540870      -13.88404     -0.7287200    
 Ni   4.540870      -6.310930      -5.101060    
 Ni   4.540870      -8.835300      -9.473400    
 Ni   4.540870      -3.786560     -0.7287200    
 Ni   6.763150      -13.88404      -6.558510    
 Ni   6.763150      -16.40841      -10.93084    
 Ni   6.763150      -11.35967      -2.186170    
 Ni   6.763150      -3.786560      -6.558510    
 Ni   6.763150      -6.310930      -10.93084    
 Ni   6.763150      -1.262190      -2.186170    
 Ni   6.763150      -8.835300      -6.558510    
 Ni   6.763150      -11.35967      -10.93084    
 Ni   6.763150      -6.310930      -2.186170    
 Ni   9.040190      -16.40841      -8.015950    
 Ni   9.040190      -18.93278      -12.38829    
 Ni   9.040190      -13.88404      -3.643610    
 Ni   9.040190      -6.310930      -8.015950    
 Ni   9.040190      -8.835300      -12.38829    
 Ni   9.040190      -3.786560      -3.643610    
 Ni   9.040190      -11.35967      -8.015950    
 Ni   9.040190      -13.88404      -12.38829    
 Ni   9.040190      -8.835300      -3.643610    
 Ni   11.31723      -18.93278      -9.473400    
 Ni   11.31723      -13.88404     -0.7287200    
 Ni   11.31723      -16.40841      -5.101060    
 Ni   11.31723      -8.835300      -9.473400    
 Ni   11.31723      -3.786560     -0.7287200    
 Ni   11.31723      -6.310930      -5.101060    
 Ni   11.31723      -13.88404      -9.473400    
 Ni   11.31723      -8.835300     -0.7287200    
 Ni   11.31723      -11.35967      -5.101060    
 Ni   13.53950      -6.310930      -10.93084    
 Ni   13.53950      -1.262190      -2.186170    
 Ni   13.53950      -3.786560      -6.558510    
 Ni   13.53950      -11.35967      -10.93084    
 Ni   13.53950      -6.310930      -2.186170    
 Ni   13.53950      -8.835300      -6.558510    
 Ni   13.53950      -16.40841      -10.93084    
 Ni   13.53950      -11.35967      -2.186170    
 Ni   13.53950      -13.88404      -6.558510    
 Ni   15.80327      -8.835300      -12.38829    
 Ni   15.80327      -3.786560      -3.643610    
 Ni   15.80327      -6.310930      -8.015950    
 Ni   15.80327      -13.88404      -12.38829    
 Ni   15.80327      -8.835300      -3.643610    
 Ni   15.80327      -11.35967      -8.015950    
 Ni   15.80327      -18.93278      -12.38829    
 Ni   15.80327      -13.88404      -3.643610    
 Ni   15.80327      -16.40841      -8.015950    
         260
 Energy:  -1260.72195250000     
 X  0.0000000E+00  0.0000000E+00  0.0000000E+00
 X  0.0000000E+00  -15.14622      0.0000000E+00
 X  0.0000000E+00  -7.573111      -13.11701    
 X   29.00000      0.0000000E+00  0.0000000E+00
 X  0.0000000E+00  -22.71933      -13.11701    
 X   29.00000      -15.14622      0.0000000E+00
 X   29.00000      -7.573111      -13.11701    
 X   29.00000      -22.71933      -13.11701    
 Ni   2.339240      -10.09748      -5.829780    
 Ni   2.339240      -12.62185      -10.20212    
 Ni   2.339240      -7.573110      -1.457450    
 Ni   2.339240      -15.14622      -5.829780    
 Ni   2.339240      -17.67059      -10.20212    
 Ni   2.339240      -12.62185      -1.457450    
 Ni   2.339240      -5.048740      -5.829780    
 Ni   2.339240      -7.573110      -10.20212    
 Ni   2.339240      -2.524370      -1.457450    
 Ni   4.527320      -12.62185      -7.287230    
 Ni   4.527320      -15.14622      -11.65957    
 Ni   4.527320      -10.09748      -2.914890    
 Ni   4.527320      -17.67059      -7.287230    
 Ni   4.527320      -20.19496      -11.65957    
 Ni   4.527320      -15.14622      -2.914890    
 Ni   4.527320      -7.573110      -7.287230    
 Ni   4.527320      -10.09748      -11.65957    
 Ni   4.527320      -5.048740      -2.914890    
 Ni   6.771290      -15.14622      -8.744680    
 Ni   6.771290      -10.09748      0.0000000E+00
 Ni   6.771290      -12.62185      -4.372340    
 Ni   6.771290      -5.048740      -8.744680    
 Ni   6.771290      0.0000000E+00  0.0000000E+00
 Ni   6.771290      -2.524370      -4.372340    
 Ni   6.771290      -10.09748      -8.744680    
 Ni   6.771290      -5.048740      0.0000000E+00
 Ni   6.771290      -7.573110      -4.372340    
 Ni   9.040190      -17.67059      -10.20212    
 Ni   9.040190      -12.62185      -1.457450    
 Ni   9.040190      -15.14622      -5.829780    
 Ni   9.040190      -7.573110      -10.20212    
 Ni   9.040190      -2.524370      -1.457450    
 Ni   9.040190      -5.048740      -5.829780    
 Ni   9.040190      -12.62185      -10.20212    
 Ni   9.040190      -7.573110      -1.457450    
 Ni   9.040190      -10.09748      -5.829780    
 Ni   11.30909      -20.19496      -11.65957    
 Ni   11.30909      -15.14622      -2.914890    
 Ni   11.30909      -17.67059      -7.287230    
 Ni   11.30909      -10.09748      -11.65957    
 Ni   11.30909      -5.048740      -2.914890    
 Ni   11.30909      -7.573110      -7.287230    
 Ni   11.30909      -15.14622      -11.65957    
 Ni   11.30909      -10.09748      -2.914890    
 Ni   11.30909      -12.62185      -7.287230    
 Ni   13.55306      0.0000000E+00  0.0000000E+00
 Ni   13.55306      -2.524370      -4.372340    
 Ni   13.55306      -5.048740      -8.744680    
 Ni   13.55306      -5.048740      0.0000000E+00
 Ni   13.55306      -7.573110      -4.372340    
 Ni   13.55306      -10.09748      -8.744680    
 Ni   13.55306      -10.09748      0.0000000E+00
 Ni   13.55306      -12.62185      -4.372340    
 Ni   13.55306      -15.14622      -8.744680    
 Ni   15.74114      -2.524370      -1.457450    
 Ni   15.74114      -5.048740      -5.829780    
 Ni   15.74114      -7.573110      -10.20212    
 Ni   15.74114      -7.573110      -1.457450    
 Ni   15.74114      -10.09748      -5.829780    
 Ni   15.74114      -12.62185      -10.20212    
 Ni   15.74114      -12.62185      -1.457450    
 Ni   15.74114      -15.14622      -5.829780    
 Ni   15.74114      -17.67059      -10.20212    
 Ni   2.339240      -6.310930      -3.643610    
 Ni   2.339240      -8.835300      -8.015950    
 Ni   2.339240      -11.35967      -12.38829    
 Ni   2.339240      -11.35967      -3.643610    
 Ni   2.339240      -13.88404      -8.015950    
 Ni   2.339240      -16.40841      -12.38829    
 Ni   2.339240      -16.40841      -3.643610    
 Ni   2.339240      -18.93278      -8.015950    
 Ni   2.339240      -21.45715      -12.38829    
 Ni   4.527320      -8.835300      -5.101060    
 Ni   4.527320      -11.35967      -9.473400    
 Ni   4.527320      -6.310930     -0.7287200    
 Ni   4.527320      -13.88404      -5.101060    
 Ni   4.527320      -16.40841      -9.473400    
 Ni   4.527320      -11.35967     -0.7287200    
 Ni   4.527320      -3.786560      -5.101060    
 Ni   4.527320      -6.310930      -9.473400    
 Ni   4.527320      -1.262190     -0.7287200    