NiAl                                    
           1
     0.000000  -15.146222    0.000000
     0.000000   -7.573111  -13.117013
    29.000000    0.000000    0.000000
   Ni
 252
Direct configuration=     1
   0.44444444  0.44444444  0.07780690
   0.44444444  0.77777778  0.07780690
   0.44444444  0.11111111  0.07780690
   0.77777778  0.44444444  0.07780690
   0.77777778  0.77777778  0.07780690
   0.77777778  0.11111111  0.07780690
   0.11111111  0.44444444  0.07780690
   0.11111111  0.77777778  0.07780690
   0.11111111  0.11111111  0.07780690
   0.55555556  0.55555556  0.15673765
   0.55555556  0.88888889  0.15673765
   0.55555556  0.22222222  0.15673765
   0.88888889  0.55555556  0.15673765
   0.88888889  0.88888889  0.15673765
   0.88888889  0.22222222  0.15673765
   0.22222222  0.55555556  0.15673765
   0.22222222  0.88888889  0.15673765
   0.22222222  0.22222222  0.15673765
   0.66666667  0.66666667  0.23311859
   0.66666667  0.00000000  0.23311859
   0.66666667  0.33333333  0.23311859
   0.00000000  0.66666667  0.23311859
   0.00000000  0.00000000  0.23311859
   0.00000000  0.33333333  0.23311859
   0.33333333  0.66666667  0.23311859
   0.33333333  0.00000000  0.23311859
   0.33333333  0.33333333  0.23311859
   0.77777778  0.77777778  0.31173066
   0.77777778  0.11111111  0.31173066
   0.77777778  0.44444444  0.31173066
   0.11111111  0.77777778  0.31173066
   0.11111111  0.11111111  0.31173066
   0.11111111  0.44444444  0.31173066
   0.44444444  0.77777778  0.31173066
   0.44444444  0.11111111  0.31173066
   0.44444444  0.44444444  0.31173066
   0.88888889  0.88888889  0.39034272
   0.88888889  0.22222222  0.39034272
   0.88888889  0.55555556  0.39034272
   0.22222222  0.88888889  0.39034272
   0.22222222  0.22222222  0.39034272
   0.22222222  0.55555556  0.39034272
   0.55555556  0.88888889  0.39034272
   0.55555556  0.22222222  0.39034272
   0.55555556  0.55555556  0.39034272
   0.00000000  0.00000000  0.46672366
   0.00000000  0.33333333  0.46672366
   0.00000000  0.66666667  0.46672366
   0.33333333  0.00000000  0.46672366
   0.33333333  0.33333333  0.46672366
   0.33333333  0.66666667  0.46672366
   0.66666667  0.00000000  0.46672366
   0.66666667  0.33333333  0.46672366
   0.66666667  0.66666667  0.46672366
   0.11111111  0.11111111  0.54565441
   0.11111111  0.44444444  0.54565441
   0.11111111  0.77777778  0.54565441
   0.44444444  0.11111111  0.54565441
   0.44444444  0.44444444  0.54565441
   0.44444444  0.77777778  0.54565441
   0.77777778  0.11111111  0.54565441
   0.77777778  0.44444444  0.54565441
   0.77777778  0.77777778  0.54565441
   0.27777778  0.27777778  0.07780690
   0.27777778  0.61111111  0.07780690
   0.27777778  0.94444444  0.07780690
   0.61111111  0.27777778  0.07780690
   0.61111111  0.61111111  0.07780690
   0.61111111  0.94444444  0.07780690
   0.94444444  0.27777778  0.07780690
   0.94444444  0.61111111  0.07780690
   0.94444444  0.94444444  0.07780690
   0.38888889  0.38888889  0.15673765
   0.38888889  0.72222222  0.15673765
   0.38888889  0.05555556  0.15673765
   0.72222222  0.38888889  0.15673765
   0.72222222  0.72222222  0.15673765
   0.72222222  0.05555556  0.15673765
   0.05555556  0.38888889  0.15673765
   0.05555556  0.72222222  0.15673765
   0.05555556  0.05555556  0.15673765
   0.50000000  0.50000000  0.23311859
   0.50000000  0.83333333  0.23311859
   0.50000000  0.16666667  0.23311859
   0.83333333  0.50000000  0.23311859
   0.83333333  0.83333333  0.23311859
   0.83333333  0.16666667  0.23311859
   0.16666667  0.50000000  0.23311859
   0.16666667  0.83333333  0.23311859
   0.16666667  0.16666667  0.23311859
   0.61111111  0.61111111  0.31173066
   0.61111111  0.94444444  0.31173066
   0.61111111  0.27777778  0.31173066
   0.94444444  0.61111111  0.31173066
   0.94444444  0.94444444  0.31173066
   0.94444444  0.27777778  0.31173066
   0.27777778  0.61111111  0.31173066
   0.27777778  0.94444444  0.31173066
   0.27777778  0.27777778  0.31173066
   0.72222222  0.72222222  0.39034272
   0.72222222  0.05555556  0.39034272
   0.72222222  0.38888889  0.39034272
   0.05555556  0.72222222  0.39034272
   0.05555556  0.05555556  0.39034272
   0.05555556  0.38888889  0.39034272
   0.38888889  0.72222222  0.39034272
   0.38888889  0.05555556  0.39034272
   0.38888889  0.38888889  0.39034272
   0.83333333  0.83333333  0.46672366
   0.83333333  0.16666667  0.46672366
   0.83333333  0.50000000  0.46672366
   0.16666667  0.83333333  0.46672366
   0.16666667  0.16666667  0.46672366
   0.16666667  0.50000000  0.46672366
   0.50000000  0.83333333  0.46672366
   0.50000000  0.16666667  0.46672366
   0.50000000  0.50000000  0.46672366
   0.94444444  0.94444444  0.54565441
   0.94444444  0.27777778  0.54565441
   0.94444444  0.61111111  0.54565441
   0.27777778  0.94444444  0.54565441
   0.27777778  0.27777778  0.54565441
   0.27777778  0.61111111  0.54565441
   0.61111111  0.94444444  0.54565441
   0.61111111  0.27777778  0.54565441
   0.61111111  0.61111111  0.54565441
   0.27777778  0.44444444  0.07780690
   0.27777778  0.77777778  0.07780690
   0.27777778  0.11111111  0.07780690
   0.61111111  0.44444444  0.07780690
   0.61111111  0.77777778  0.07780690
   0.61111111  0.11111111  0.07780690
   0.94444444  0.44444444  0.07780690
   0.94444444  0.77777778  0.07780690
   0.94444444  0.11111111  0.07780690
   0.38888889  0.55555556  0.15673765
   0.38888889  0.88888889  0.15673765
   0.38888889  0.22222222  0.15673765
   0.72222222  0.55555556  0.15673765
   0.72222222  0.88888889  0.15673765
   0.72222222  0.22222222  0.15673765
   0.05555556  0.55555556  0.15673765
   0.05555556  0.88888889  0.15673765
   0.05555556  0.22222222  0.15673765
   0.50000000  0.66666667  0.23311859
   0.50000000  0.00000000  0.23311859
   0.50000000  0.33333333  0.23311859
   0.83333333  0.66666667  0.23311859
   0.83333333  0.00000000  0.23311859
   0.83333333  0.33333333  0.23311859
   0.16666667  0.66666667  0.23311859
   0.16666667  0.00000000  0.23311859
   0.16666667  0.33333333  0.23311859
   0.61111111  0.77777778  0.31173066
   0.61111111  0.11111111  0.31173066
   0.61111111  0.44444444  0.31173066
   0.94444444  0.77777778  0.31173066
   0.94444444  0.11111111  0.31173066
   0.94444444  0.44444444  0.31173066
   0.27777778  0.77777778  0.31173066
   0.27777778  0.11111111  0.31173066
   0.27777778  0.44444444  0.31173066
   0.72222222  0.88888889  0.39034272
   0.72222222  0.22222222  0.39034272
   0.72222222  0.55555556  0.39034272
   0.05555556  0.88888889  0.39034272
   0.05555556  0.22222222  0.39034272
   0.05555556  0.55555556  0.39034272
   0.38888889  0.88888889  0.39034272
   0.38888889  0.22222222  0.39034272
   0.38888889  0.55555556  0.39034272
   0.83333333  0.00000000  0.46672366
   0.83333333  0.33333333  0.46672366
   0.83333333  0.66666667  0.46672366
   0.16666667  0.00000000  0.46672366
   0.16666667  0.33333333  0.46672366
   0.16666667  0.66666667  0.46672366
   0.50000000  0.00000000  0.46672366
   0.50000000  0.33333333  0.46672366
   0.50000000  0.66666667  0.46672366
   0.94444444  0.11111111  0.54565441
   0.94444444  0.44444444  0.54565441
   0.94444444  0.77777778  0.54565441
   0.27777778  0.11111111  0.54565441
   0.27777778  0.44444444  0.54565441
   0.27777778  0.77777778  0.54565441
   0.61111111  0.11111111  0.54565441
   0.61111111  0.44444444  0.54565441
   0.61111111  0.77777778  0.54565441
   0.44444444  0.27777778  0.07780690
   0.44444444  0.61111111  0.07780690
   0.44444444  0.94444444  0.07780690
   0.77777778  0.27777778  0.07780690
   0.77777778  0.61111111  0.07780690
   0.77777778  0.94444444  0.07780690
   0.11111111  0.27777778  0.07780690
   0.11111111  0.61111111  0.07780690
   0.11111111  0.94444444  0.07780690
   0.55555556  0.38888889  0.15673765
   0.55555556  0.72222222  0.15673765
   0.55555556  0.05555556  0.15673765
   0.88888889  0.38888889  0.15673765
   0.88888889  0.72222222  0.15673765
   0.88888889  0.05555556  0.15673765
   0.22222222  0.38888889  0.15673765
   0.22222222  0.72222222  0.15673765
   0.22222222  0.05555556  0.15673765
   0.66666667  0.50000000  0.23311859
   0.66666667  0.83333333  0.23311859
   0.66666667  0.16666667  0.23311859
   0.00000000  0.50000000  0.23311859
   0.00000000  0.83333333  0.23311859
   0.00000000  0.16666667  0.23311859
   0.33333333  0.50000000  0.23311859
   0.33333333  0.83333333  0.23311859
   0.33333333  0.16666667  0.23311859
   0.77777778  0.61111111  0.31173066
   0.77777778  0.94444444  0.31173066
   0.77777778  0.27777778  0.31173066
   0.11111111  0.61111111  0.31173066
   0.11111111  0.94444444  0.31173066
   0.11111111  0.27777778  0.31173066
   0.44444444  0.61111111  0.31173066
   0.44444444  0.94444444  0.31173066
   0.44444444  0.27777778  0.31173066
   0.88888889  0.72222222  0.39034272
   0.88888889  0.05555556  0.39034272
   0.88888889  0.38888889  0.39034272
   0.22222222  0.72222222  0.39034272
   0.22222222  0.05555556  0.39034272
   0.22222222  0.38888889  0.39034272
   0.55555556  0.72222222  0.39034272
   0.55555556  0.05555556  0.39034272
   0.55555556  0.38888889  0.39034272
   0.00000000  0.83333333  0.46672366
   0.00000000  0.16666667  0.46672366
   0.00000000  0.50000000  0.46672366
   0.33333333  0.83333333  0.46672366
   0.33333333  0.16666667  0.46672366
   0.33333333  0.50000000  0.46672366
   0.66666667  0.83333333  0.46672366
   0.66666667  0.16666667  0.46672366
   0.66666667  0.50000000  0.46672366
   0.11111111  0.94444444  0.54565441
   0.11111111  0.27777778  0.54565441
   0.11111111  0.61111111  0.54565441
   0.44444444  0.94444444  0.54565441
   0.44444444  0.27777778  0.54565441
   0.44444444  0.61111111  0.54565441
   0.77777778  0.94444444  0.54565441
   0.77777778  0.27777778  0.54565441
   0.77777778  0.61111111  0.54565441
Direct configuration=     2
   0.44444444  0.44444444  0.07852102
   0.44444444  0.77777778  0.07852102
   0.44444444  0.11111111  0.07852102
   0.77777778  0.44444444  0.07852102
   0.77777778  0.77777778  0.07852102
   0.77777778  0.11111111  0.07852102
   0.11111111  0.44444444  0.07852102
   0.11111111  0.77777778  0.07852102
   0.11111111  0.11111111  0.07852102
   0.55555556  0.55555556  0.15658189
   0.55555556  0.88888889  0.15658189
   0.55555556  0.22222222  0.15658189
   0.88888889  0.55555556  0.15658189
   0.88888889  0.88888889  0.15658189
   0.88888889  0.22222222  0.15658189
   0.22222222  0.55555556  0.15658189
   0.22222222  0.88888889  0.15658189
   0.22222222  0.22222222  0.15658189
   0.66666667  0.66666667  0.23321213
   0.66666667  0.00000000  0.23321213
   0.66666667  0.33333333  0.23321213
   0.00000000  0.66666667  0.23321213
   0.00000000  0.00000000  0.23321213
   0.00000000  0.33333333  0.23321213
   0.33333333  0.66666667  0.23321213
   0.33333333 -0.00000000  0.23321213
   0.33333333  0.33333333  0.23321213
   0.77777778  0.77777778  0.31173066
   0.77777778  0.11111111  0.31173066
   0.77777778  0.44444444  0.31173066
   0.11111111  0.77777778  0.31173066
   0.11111111  0.11111111  0.31173066
   0.11111111  0.44444444  0.31173066
   0.44444444  0.77777778  0.31173066
   0.44444444  0.11111111  0.31173066
   0.44444444  0.44444444  0.31173066
   0.88888889  0.88888889  0.39024918
   0.88888889  0.22222222  0.39024918
   0.88888889  0.55555556  0.39024918
   0.22222222  0.88888889  0.39024918
   0.22222222  0.22222222  0.39024918
   0.22222222  0.55555556  0.39024918
   0.55555556  0.88888889  0.39024918
   0.55555556  0.22222222  0.39024918
   0.55555556  0.55555556  0.39024918
   0.00000000  0.00000000  0.46687943
  -0.00000000  0.33333333  0.46687943
   0.00000000  0.66666667  0.46687943
   0.33333333  0.00000000  0.46687943
   0.33333333  0.33333333  0.46687943
   0.33333333  0.66666667  0.46687943
   0.66666667  0.00000000  0.46687943
   0.66666667  0.33333333  0.46687943
   0.66666667  0.66666667  0.46687943
   0.11111111  0.11111111  0.54494029
   0.11111111  0.44444444  0.54494029
   0.11111111  0.77777778  0.54494029
   0.44444444  0.11111111  0.54494029
   0.44444444  0.44444444  0.54494029
   0.44444444  0.77777778  0.54494029
   0.77777778  0.11111111  0.54494029
   0.77777778  0.44444444  0.54494029
   0.77777778  0.77777778  0.54494029
   0.27777778  0.27777778  0.07852102
   0.27777778  0.61111111  0.07852102
   0.27777778  0.94444444  0.07852102
   0.61111111  0.27777778  0.07852102
   0.61111111  0.61111111  0.07852102
   0.61111111  0.94444444  0.07852102
   0.94444444  0.27777778  0.07852102
   0.94444444  0.61111111  0.07852102
   0.94444444  0.94444444  0.07852102
   0.38888889  0.38888889  0.15658189
   0.38888889  0.72222222  0.15658189
   0.38888889  0.05555556  0.15658189
   0.72222222  0.38888889  0.15658189
   0.72222222  0.72222222  0.15658189
   0.72222222  0.05555556  0.15658189
   0.05555556  0.38888889  0.15658189
   0.05555556  0.72222222  0.15658189
   0.05555556  0.05555556  0.15658189
   0.50000000  0.50000000  0.23321213
   0.50000000  0.83333333  0.23321213
   0.50000000  0.16666667  0.23321213
   0.83333333  0.50000000  0.23321213
   0.83333333  0.83333333  0.23321213
   0.83333333  0.16666667  0.23321213
   0.16666667  0.50000000  0.23321213
   0.16666667  0.83333333  0.23321213
   0.16666667  0.16666667  0.23321213
   0.61111111  0.61111111  0.31173066
   0.61111111  0.94444444  0.31173066
   0.61111111  0.27777778  0.31173066
   0.94444444  0.61111111  0.31173066
   0.94444444  0.94444444  0.31173066
   0.94444444  0.27777778  0.31173066
   0.27777778  0.61111111  0.31173066
   0.27777778  0.94444444  0.31173066
   0.27777778  0.27777778  0.31173066
   0.72222222  0.72222222  0.39024918
   0.72222222  0.05555556  0.39024918
   0.72222222  0.38888889  0.39024918
   0.05555556  0.72222222  0.39024918
   0.05555556  0.05555556  0.39024918
   0.05555556  0.38888889  0.39024918
   0.38888889  0.72222222  0.39024918
   0.38888889  0.05555556  0.39024918
   0.38888889  0.38888889  0.39024918
   0.83333333  0.83333333  0.46687943
   0.83333333  0.16666667  0.46687943
   0.83333333  0.50000000  0.46687943
   0.16666667  0.83333333  0.46687943
   0.16666667  0.16666667  0.46687943
   0.16666667  0.50000000  0.46687943
   0.50000000  0.83333333  0.46687943
   0.50000000  0.16666667  0.46687943
   0.50000000  0.50000000  0.46687943
   0.94444444  0.94444444  0.54494029
   0.94444444  0.27777778  0.54494029
   0.94444444  0.61111111  0.54494029
   0.27777778  0.94444444  0.54494029
   0.27777778  0.27777778  0.54494029
   0.27777778  0.61111111  0.54494029
   0.61111111  0.94444444  0.54494029
   0.61111111  0.27777778  0.54494029
   0.61111111  0.61111111  0.54494029
   0.27777778  0.44444444  0.07852102
   0.27777778  0.77777778  0.07852102
   0.27777778  0.11111111  0.07852102
   0.61111111  0.44444444  0.07852102
   0.61111111  0.77777778  0.07852102
   0.61111111  0.11111111  0.07852102
   0.94444444  0.44444444  0.07852102
   0.94444444  0.77777778  0.07852102
   0.94444444  0.11111111  0.07852102
   0.38888889  0.55555556  0.15658189
   0.38888889  0.88888889  0.15658189
   0.38888889  0.22222222  0.15658189
   0.72222222  0.55555556  0.15658189
   0.72222222  0.88888889  0.15658189
   0.72222222  0.22222222  0.15658189
   0.05555556  0.55555556  0.15658189
   0.05555556  0.88888889  0.15658189
   0.05555556  0.22222222  0.15658189
   0.50000000  0.66666667  0.23321213
   0.50000000  0.00000000  0.23321213
   0.50000000  0.33333333  0.23321213
   0.83333333  0.66666667  0.23321213
   0.83333333  0.00000000  0.23321213
   0.83333333  0.33333333  0.23321213
   0.16666667  0.66666667  0.23321213
   0.16666667  0.00000000  0.23321213
   0.16666667  0.33333333  0.23321213
   0.61111111  0.77777778  0.31173066
   0.61111111  0.11111111  0.31173066
   0.61111111  0.44444444  0.31173066
   0.94444444  0.77777778  0.31173066
   0.94444444  0.11111111  0.31173066
   0.94444444  0.44444444  0.31173066
   0.27777778  0.77777778  0.31173066
   0.27777778  0.11111111  0.31173066
   0.27777778  0.44444444  0.31173066
   0.72222222  0.88888889  0.39024918
   0.72222222  0.22222222  0.39024918
   0.72222222  0.55555556  0.39024918
   0.05555556  0.88888889  0.39024918
   0.05555556  0.22222222  0.39024918
   0.05555556  0.55555556  0.39024918
   0.38888889  0.88888889  0.39024918
   0.38888889  0.22222222  0.39024918
   0.38888889  0.55555556  0.39024918
   0.83333333  0.00000000  0.46687943
   0.83333333  0.33333333  0.46687943
   0.83333333  0.66666667  0.46687943
   0.16666667 -0.00000000  0.46687943
   0.16666667  0.33333333  0.46687943
   0.16666667  0.66666667  0.46687943
   0.50000000 -0.00000000  0.46687943
   0.50000000  0.33333333  0.46687943
   0.50000000  0.66666667  0.46687943
   0.94444444  0.11111111  0.54494029
   0.94444444  0.44444444  0.54494029
   0.94444444  0.77777778  0.54494029
   0.27777778  0.11111111  0.54494029
   0.27777778  0.44444444  0.54494029
   0.27777778  0.77777778  0.54494029
   0.61111111  0.11111111  0.54494029
   0.61111111  0.44444444  0.54494029
   0.61111111  0.77777778  0.54494029
   0.44444444  0.27777778  0.07852102
   0.44444444  0.61111111  0.07852102
   0.44444444  0.94444444  0.07852102
   0.77777778  0.27777778  0.07852102
   0.77777778  0.61111111  0.07852102
   0.77777778  0.94444444  0.07852102
   0.11111111  0.27777778  0.07852102
   0.11111111  0.61111111  0.07852102
   0.11111111  0.94444444  0.07852102
   0.55555556  0.38888889  0.15658189
   0.55555556  0.72222222  0.15658189
   0.55555556  0.05555556  0.15658189
   0.88888889  0.38888889  0.15658189
   0.88888889  0.72222222  0.15658189
   0.88888889  0.05555556  0.15658189
   0.22222222  0.38888889  0.15658189
   0.22222222  0.72222222  0.15658189
   0.22222222  0.05555556  0.15658189
   0.66666667  0.50000000  0.23321213
   0.66666667  0.83333333  0.23321213
   0.66666667  0.16666667  0.23321213
   0.00000000  0.50000000  0.23321213
   0.00000000  0.83333333  0.23321213
   0.00000000  0.16666667  0.23321213
   0.33333333  0.50000000  0.23321213
   0.33333333  0.83333333  0.23321213
   0.33333333  0.16666667  0.23321213
   0.77777778  0.61111111  0.31173066
   0.77777778  0.94444444  0.31173066
   0.77777778  0.27777778  0.31173066
   0.11111111  0.61111111  0.31173066
   0.11111111  0.94444444  0.31173066
   0.11111111  0.27777778  0.31173066
   0.44444444  0.61111111  0.31173066
   0.44444444  0.94444444  0.31173066
   0.44444444  0.27777778  0.31173066
   0.88888889  0.72222222  0.39024918
   0.88888889  0.05555556  0.39024918
   0.88888889  0.38888889  0.39024918
   0.22222222  0.72222222  0.39024918
   0.22222222  0.05555556  0.39024918
   0.22222222  0.38888889  0.39024918
   0.55555556  0.72222222  0.39024918
   0.55555556  0.05555556  0.39024918
   0.55555556  0.38888889  0.39024918
   0.00000000  0.83333333  0.46687943
   0.00000000  0.16666667  0.46687943
   0.00000000  0.50000000  0.46687943
   0.33333333  0.83333333  0.46687943
   0.33333333  0.16666667  0.46687943
   0.33333333  0.50000000  0.46687943
   0.66666667  0.83333333  0.46687943
   0.66666667  0.16666667  0.46687943
   0.66666667  0.50000000  0.46687943
   0.11111111  0.94444444  0.54494029
   0.11111111  0.27777778  0.54494029
   0.11111111  0.61111111  0.54494029
   0.44444444  0.94444444  0.54494029
   0.44444444  0.27777778  0.54494029
   0.44444444  0.61111111  0.54494029
   0.77777778  0.94444444  0.54494029
   0.77777778  0.27777778  0.54494029
   0.77777778  0.61111111  0.54494029
Direct configuration=     3
   0.44444444  0.44444444  0.08066339
   0.44444444  0.77777778  0.08066339
   0.44444444  0.11111111  0.08066339
   0.77777778  0.44444444  0.08066339
   0.77777778  0.77777778  0.08066339
   0.77777778  0.11111111  0.08066339
   0.11111111  0.44444444  0.08066339
   0.11111111  0.77777778  0.08066339
   0.11111111  0.11111111  0.08066339
   0.55555556  0.55555556  0.15611459
   0.55555556  0.88888889  0.15611459
   0.55555556  0.22222222  0.15611459
   0.88888889  0.55555556  0.15611459
   0.88888889  0.88888889  0.15611459
   0.88888889  0.22222222  0.15611459
   0.22222222  0.55555556  0.15611459
   0.22222222  0.88888889  0.15611459
   0.22222222  0.22222222  0.15611459
   0.66666667  0.66666667  0.23349272
   0.66666667  0.00000000  0.23349272
   0.66666667  0.33333333  0.23349272
   0.00000000  0.66666667  0.23349272
   0.00000000  0.00000000  0.23349272
   0.00000000  0.33333333  0.23349272
   0.33333333  0.66666667  0.23349272
   0.33333333 -0.00000000  0.23349272
   0.33333333  0.33333333  0.23349272
   0.77777778  0.77777778  0.31173066
   0.77777778  0.11111111  0.31173066
   0.77777778  0.44444444  0.31173066
   0.11111111  0.77777778  0.31173066
   0.11111111  0.11111111  0.31173066
   0.11111111  0.44444444  0.31173066
   0.44444444  0.77777778  0.31173066
   0.44444444  0.11111111  0.31173066
   0.44444444  0.44444444  0.31173066
   0.88888889  0.88888889  0.38996859
   0.88888889  0.22222222  0.38996859
   0.88888889  0.55555556  0.38996859
   0.22222222  0.88888889  0.38996859
   0.22222222  0.22222222  0.38996859
   0.22222222  0.55555556  0.38996859
   0.55555556  0.88888889  0.38996859
   0.55555556  0.22222222  0.38996859
   0.55555556  0.55555556  0.38996859
   0.00000000  0.00000000  0.46734673
  -0.00000000  0.33333333  0.46734673
   0.00000000  0.66666667  0.46734673
   0.33333333  0.00000000  0.46734673
   0.33333333  0.33333333  0.46734673
   0.33333333  0.66666667  0.46734673
   0.66666667  0.00000000  0.46734673
   0.66666667  0.33333333  0.46734673
   0.66666667  0.66666667  0.46734673
   0.11111111  0.11111111  0.54279792
   0.11111111  0.44444444  0.54279792
   0.11111111  0.77777778  0.54279792
   0.44444444  0.11111111  0.54279792
   0.44444444  0.44444444  0.54279792
   0.44444444  0.77777778  0.54279792
   0.77777778  0.11111111  0.54279792
   0.77777778  0.44444444  0.54279792
   0.77777778  0.77777778  0.54279792
   0.27777778  0.27777778  0.08066339
   0.27777778  0.61111111  0.08066339
   0.27777778  0.94444444  0.08066339
   0.61111111  0.27777778  0.08066339
   0.61111111  0.61111111  0.08066339
   0.61111111  0.94444444  0.08066339
   0.94444444  0.27777778  0.08066339
   0.94444444  0.61111111  0.08066339
   0.94444444  0.94444444  0.08066339
   0.38888889  0.38888889  0.15611459
   0.38888889  0.72222222  0.15611459
   0.38888889  0.05555556  0.15611459
   0.72222222  0.38888889  0.15611459
   0.72222222  0.72222222  0.15611459
   0.72222222  0.05555556  0.15611459
   0.05555556  0.38888889  0.15611459
   0.05555556  0.72222222  0.15611459
   0.05555556  0.05555556  0.15611459
   0.50000000  0.50000000  0.23349272
   0.50000000  0.83333333  0.23349272
   0.50000000  0.16666667  0.23349272
   0.83333333  0.50000000  0.23349272
   0.83333333  0.83333333  0.23349272
   0.83333333  0.16666667  0.23349272
   0.16666667  0.50000000  0.23349272
   0.16666667  0.83333333  0.23349272
   0.16666667  0.16666667  0.23349272
   0.61111111  0.61111111  0.31173066
   0.61111111  0.94444444  0.31173066
   0.61111111  0.27777778  0.31173066
   0.94444444  0.61111111  0.31173066
   0.94444444  0.94444444  0.31173066
   0.94444444  0.27777778  0.31173066
   0.27777778  0.61111111  0.31173066
   0.27777778  0.94444444  0.31173066
   0.27777778  0.27777778  0.31173066
   0.72222222  0.72222222  0.38996859
   0.72222222  0.05555556  0.38996859
   0.72222222  0.38888889  0.38996859
   0.05555556  0.72222222  0.38996859
   0.05555556  0.05555556  0.38996859
   0.05555556  0.38888889  0.38996859
   0.38888889  0.72222222  0.38996859
   0.38888889  0.05555556  0.38996859
   0.38888889  0.38888889  0.38996859
   0.83333333  0.83333333  0.46734673
   0.83333333  0.16666667  0.46734673
   0.83333333  0.50000000  0.46734673
   0.16666667  0.83333333  0.46734673
   0.16666667  0.16666667  0.46734673
   0.16666667  0.50000000  0.46734673
   0.50000000  0.83333333  0.46734673
   0.50000000  0.16666667  0.46734673
   0.50000000  0.50000000  0.46734673
   0.94444444  0.94444444  0.54279792
   0.94444444  0.27777778  0.54279792
   0.94444444  0.61111111  0.54279792
   0.27777778  0.94444444  0.54279792
   0.27777778  0.27777778  0.54279792
   0.27777778  0.61111111  0.54279792
   0.61111111  0.94444444  0.54279792
   0.61111111  0.27777778  0.54279792
   0.61111111  0.61111111  0.54279792
   0.27777778  0.44444444  0.08066339
   0.27777778  0.77777778  0.08066339
   0.27777778  0.11111111  0.08066339
   0.61111111  0.44444444  0.08066339
   0.61111111  0.77777778  0.08066339
   0.61111111  0.11111111  0.08066339
   0.94444444  0.44444444  0.08066339
   0.94444444  0.77777778  0.08066339
   0.94444444  0.11111111  0.08066339
   0.38888889  0.55555556  0.15611459
   0.38888889  0.88888889  0.15611459
   0.38888889  0.22222222  0.15611459
   0.72222222  0.55555556  0.15611459
   0.72222222  0.88888889  0.15611459
   0.72222222  0.22222222  0.15611459
   0.05555556  0.55555556  0.15611459
   0.05555556  0.88888889  0.15611459
   0.05555556  0.22222222  0.15611459
   0.50000000  0.66666667  0.23349272
   0.50000000  0.00000000  0.23349272
   0.50000000  0.33333333  0.23349272
   0.83333333  0.66666667  0.23349272
   0.83333333  0.00000000  0.23349272
   0.83333333  0.33333333  0.23349272
   0.16666667  0.66666667  0.23349272
   0.16666667  0.00000000  0.23349272
   0.16666667  0.33333333  0.23349272
   0.61111111  0.77777778  0.31173066
   0.61111111  0.11111111  0.31173066
   0.61111111  0.44444444  0.31173066
   0.94444444  0.77777778  0.31173066
   0.94444444  0.11111111  0.31173066
   0.94444444  0.44444444  0.31173066
   0.27777778  0.77777778  0.31173066
   0.27777778  0.11111111  0.31173066
   0.27777778  0.44444444  0.31173066
   0.72222222  0.88888889  0.38996859
   0.72222222  0.22222222  0.38996859
   0.72222222  0.55555556  0.38996859
   0.05555556  0.88888889  0.38996859
   0.05555556  0.22222222  0.38996859
   0.05555556  0.55555556  0.38996859
   0.38888889  0.88888889  0.38996859
   0.38888889  0.22222222  0.38996859
   0.38888889  0.55555556  0.38996859
   0.83333333  0.00000000  0.46734673
   0.83333333  0.33333333  0.46734673
   0.83333333  0.66666667  0.46734673
   0.16666667 -0.00000000  0.46734673
   0.16666667  0.33333333  0.46734673
   0.16666667  0.66666667  0.46734673
   0.50000000 -0.00000000  0.46734673
   0.50000000  0.33333333  0.46734673
   0.50000000  0.66666667  0.46734673
   0.94444444  0.11111111  0.54279792
   0.94444444  0.44444444  0.54279792
   0.94444444  0.77777778  0.54279792
   0.27777778  0.11111111  0.54279792
   0.27777778  0.44444444  0.54279792
   0.27777778  0.77777778  0.54279792
   0.61111111  0.11111111  0.54279792
   0.61111111  0.44444444  0.54279792
   0.61111111  0.77777778  0.54279792
   0.44444444  0.27777778  0.08066339
   0.44444444  0.61111111  0.08066339
   0.44444444  0.94444444  0.08066339
   0.77777778  0.27777778  0.08066339
   0.77777778  0.61111111  0.08066339
   0.77777778  0.94444444  0.08066339
   0.11111111  0.27777778  0.08066339
   0.11111111  0.61111111  0.08066339
   0.11111111  0.94444444  0.08066339
   0.55555556  0.38888889  0.15611459
   0.55555556  0.72222222  0.15611459
   0.55555556  0.05555556  0.15611459
   0.88888889  0.38888889  0.15611459
   0.88888889  0.72222222  0.15611459
   0.88888889  0.05555556  0.15611459
   0.22222222  0.38888889  0.15611459
   0.22222222  0.72222222  0.15611459
   0.22222222  0.05555556  0.15611459
   0.66666667  0.50000000  0.23349272
   0.66666667  0.83333333  0.23349272
   0.66666667  0.16666667  0.23349272
   0.00000000  0.50000000  0.23349272
   0.00000000  0.83333333  0.23349272
   0.00000000  0.16666667  0.23349272
   0.33333333  0.50000000  0.23349272
   0.33333333  0.83333333  0.23349272
   0.33333333  0.16666667  0.23349272
   0.77777778  0.61111111  0.31173066
   0.77777778  0.94444444  0.31173066
   0.77777778  0.27777778  0.31173066
   0.11111111  0.61111111  0.31173066
   0.11111111  0.94444444  0.31173066
   0.11111111  0.27777778  0.31173066
   0.44444444  0.61111111  0.31173066
   0.44444444  0.94444444  0.31173066
   0.44444444  0.27777778  0.31173066
   0.88888889  0.72222222  0.38996859
   0.88888889  0.05555556  0.38996859
   0.88888889  0.38888889  0.38996859
   0.22222222  0.72222222  0.38996859
   0.22222222  0.05555556  0.38996859
   0.22222222  0.38888889  0.38996859
   0.55555556  0.72222222  0.38996859
   0.55555556  0.05555556  0.38996859
   0.55555556  0.38888889  0.38996859
   0.00000000  0.83333333  0.46734673
   0.00000000  0.16666667  0.46734673
   0.00000000  0.50000000  0.46734673
   0.33333333  0.83333333  0.46734673
   0.33333333  0.16666667  0.46734673
   0.33333333  0.50000000  0.46734673
   0.66666667  0.83333333  0.46734673
   0.66666667  0.16666667  0.46734673
   0.66666667  0.50000000  0.46734673
   0.11111111  0.94444444  0.54279792
   0.11111111  0.27777778  0.54279792
   0.11111111  0.61111111  0.54279792
   0.44444444  0.94444444  0.54279792
   0.44444444  0.27777778  0.54279792
   0.44444444  0.61111111  0.54279792
   0.77777778  0.94444444  0.54279792
   0.77777778  0.27777778  0.54279792
   0.77777778  0.61111111  0.54279792
Direct configuration=     4
   0.44444444  0.44444444  0.08494812
   0.44444444  0.77777778  0.08494812
   0.44444444  0.11111111  0.08494812
   0.77777778  0.44444444  0.08494812
   0.77777778  0.77777778  0.08494812
   0.77777778  0.11111111  0.08494812
   0.11111111  0.44444444  0.08494812
   0.11111111  0.77777778  0.08494812
   0.11111111  0.11111111  0.08494812
   0.55555556  0.55555556  0.15517999
   0.55555556  0.88888889  0.15517999
   0.55555556  0.22222222  0.15517999
   0.88888889  0.55555556  0.15517999
   0.88888889  0.88888889  0.15517999
   0.88888889  0.22222222  0.15517999
   0.22222222  0.55555556  0.15517999
   0.22222222  0.88888889  0.15517999
   0.22222222  0.22222222  0.15517999
   0.66666667  0.66666667  0.23405392
   0.66666667  0.00000000  0.23405392
   0.66666667  0.33333333  0.23405392
   0.00000000  0.66666667  0.23405392
   0.00000000  0.00000000  0.23405392
   0.00000000  0.33333333  0.23405392
   0.33333333  0.66666667  0.23405392