   4   4   0   0
  0.7621562E+03  0.1450000E-08  0.1450000E-08  0.1450000E-08  0.5000000E-15
  1.000000000000000E-004
  CAR 
 NiAl                                    
      2.01435128    -31.67628367  301     -9.42642683      1.00000000
    -31.676  0.0000E+00  0.0000E+00
    -31.564  0.0000E+00  0.0000E+00
    -31.452  0.0000E+00  0.0000E+00
    -31.339  0.0000E+00  0.0000E+00
    -31.227  0.0000E+00  0.0000E+00
    -31.115  0.0000E+00  0.0000E+00
    -31.002  0.0000E+00  0.0000E+00
    -30.890  0.0000E+00  0.0000E+00
    -30.778  0.0000E+00  0.0000E+00
    -30.666  0.0000E+00  0.0000E+00
    -30.553  0.0000E+00  0.0000E+00
    -30.441  0.9886E-15  0.1110E-15
    -30.329  0.1796E-05  0.2017E-06
    -30.216  0.3851E+00  0.4325E-01
    -30.104  0.1522E+02  0.1752E+01
    -29.992  0.2209E+01  0.2000E+01
    -29.879  0.1319E-03  0.2000E+01
    -29.767  0.5358E-12  0.2000E+01
    -29.655  0.0000E+00  0.2000E+01
    -29.543  0.0000E+00  0.2000E+01
    -29.430  0.0000E+00  0.2000E+01
    -29.318  0.0000E+00  0.2000E+01
    -29.206  0.0000E+00  0.2000E+01
    -29.093  0.0000E+00  0.2000E+01
    -28.981  0.0000E+00  0.2000E+01
    -28.869  0.0000E+00  0.2000E+01
    -28.756  0.1993E-07  0.2000E+01
    -28.644  0.4507E-01  0.2005E+01
    -28.532  0.1145E+02  0.3291E+01
    -28.420  0.6309E+01  0.4000E+01
    -28.307  0.3435E-02  0.4000E+01
    -28.195  0.1552E-09  0.4000E+01
    -28.083  0.0000E+00  0.4000E+01
    -27.970  0.0000E+00  0.4000E+01
    -27.858  0.0000E+00  0.4000E+01
    -27.746  0.0000E+00  0.4000E+01
    -27.633  0.0000E+00  0.4000E+01
    -27.521  0.0000E+00  0.4000E+01
    -27.409  0.0000E+00  0.4000E+01
    -27.297  0.0000E+00  0.4000E+01
    -27.184  0.0000E+00  0.4000E+01
    -27.072  0.0000E+00  0.4000E+01
    -26.960  0.0000E+00  0.4000E+01
    -26.847  0.0000E+00  0.4000E+01
    -26.735  0.0000E+00  0.4000E+01
    -26.623  0.0000E+00  0.4000E+01
    -26.510  0.0000E+00  0.4000E+01
    -26.398  0.0000E+00  0.4000E+01
    -26.286  0.0000E+00  0.4000E+01
    -26.173  0.0000E+00  0.4000E+01
    -26.061  0.0000E+00  0.4000E+01
    -25.949  0.0000E+00  0.4000E+01
    -25.837  0.0000E+00  0.4000E+01
    -25.724  0.0000E+00  0.4000E+01
    -25.612  0.0000E+00  0.4000E+01
    -25.500  0.0000E+00  0.4000E+01
    -25.387  0.0000E+00  0.4000E+01
    -25.275  0.0000E+00  0.4000E+01
    -25.163  0.0000E+00  0.4000E+01
    -25.050  0.0000E+00  0.4000E+01
    -24.938  0.0000E+00  0.4000E+01
    -24.826  0.0000E+00  0.4000E+01
    -24.714  0.0000E+00  0.4000E+01
    -24.601  0.0000E+00  0.4000E+01
    -24.489  0.0000E+00  0.4000E+01
    -24.377  0.0000E+00  0.4000E+01
    -24.264  0.0000E+00  0.4000E+01
    -24.152  0.0000E+00  0.4000E+01
    -24.040  0.0000E+00  0.4000E+01
    -23.927  0.0000E+00  0.4000E+01
    -23.815  0.0000E+00  0.4000E+01
    -23.703  0.0000E+00  0.4000E+01
    -23.591  0.0000E+00  0.4000E+01
    -23.478  0.0000E+00  0.4000E+01
    -23.366  0.0000E+00  0.4000E+01
    -23.254  0.0000E+00  0.4000E+01
    -23.141  0.0000E+00  0.4000E+01
    -23.029  0.0000E+00  0.4000E+01
    -22.917  0.0000E+00  0.4000E+01
    -22.804  0.0000E+00  0.4000E+01
    -22.692  0.0000E+00  0.4000E+01
    -22.580  0.0000E+00  0.4000E+01
    -22.468  0.0000E+00  0.4000E+01
    -22.355  0.0000E+00  0.4000E+01
    -22.243  0.0000E+00  0.4000E+01
    -22.131  0.0000E+00  0.4000E+01
    -22.018  0.0000E+00  0.4000E+01
    -21.906  0.0000E+00  0.4000E+01
    -21.794  0.0000E+00  0.4000E+01
    -21.681  0.0000E+00  0.4000E+01
    -21.569  0.0000E+00  0.4000E+01
    -21.457  0.0000E+00  0.4000E+01
    -21.344  0.0000E+00  0.4000E+01
    -21.232  0.0000E+00  0.4000E+01
    -21.120  0.0000E+00  0.4000E+01
    -21.008  0.0000E+00  0.4000E+01
    -20.895  0.0000E+00  0.4000E+01
    -20.783  0.0000E+00  0.4000E+01
    -20.671  0.0000E+00  0.4000E+01
    -20.558  0.0000E+00  0.4000E+01
    -20.446  0.0000E+00  0.4000E+01
    -20.334  0.0000E+00  0.4000E+01
    -20.221  0.0000E+00  0.4000E+01
    -20.109  0.0000E+00  0.4000E+01
    -19.997  0.0000E+00  0.4000E+01
    -19.885  0.0000E+00  0.4000E+01
    -19.772  0.0000E+00  0.4000E+01
    -19.660  0.0000E+00  0.4000E+01
    -19.548  0.0000E+00  0.4000E+01
    -19.435  0.0000E+00  0.4000E+01
    -19.323  0.0000E+00  0.4000E+01
    -19.211  0.0000E+00  0.4000E+01
    -19.098  0.0000E+00  0.4000E+01
    -18.986  0.0000E+00  0.4000E+01
    -18.874  0.0000E+00  0.4000E+01
    -18.762  0.0000E+00  0.4000E+01
    -18.649  0.0000E+00  0.4000E+01
    -18.537  0.0000E+00  0.4000E+01
    -18.425  0.0000E+00  0.4000E+01
    -18.312  0.0000E+00  0.4000E+01
    -18.200  0.0000E+00  0.4000E+01
    -18.088  0.0000E+00  0.4000E+01
    -17.975  0.0000E+00  0.4000E+01
    -17.863  0.0000E+00  0.4000E+01
    -17.751  0.0000E+00  0.4000E+01
    -17.639  0.0000E+00  0.4000E+01
    -17.526  0.0000E+00  0.4000E+01
    -17.414  0.0000E+00  0.4000E+01
    -17.302  0.0000E+00  0.4000E+01
    -17.189  0.0000E+00  0.4000E+01
    -17.077  0.0000E+00  0.4000E+01
    -16.965  0.0000E+00  0.4000E+01
    -16.852  0.0000E+00  0.4000E+01
    -16.740  0.0000E+00  0.4000E+01
    -16.628  0.0000E+00  0.4000E+01
    -16.515  0.0000E+00  0.4000E+01
    -16.403  0.0000E+00  0.4000E+01
    -16.291  0.0000E+00  0.4000E+01
    -16.179  0.0000E+00  0.4000E+01
    -16.066  0.0000E+00  0.4000E+01
    -15.954  0.0000E+00  0.4000E+01
    -15.842  0.0000E+00  0.4000E+01
    -15.729  0.0000E+00  0.4000E+01
    -15.617  0.0000E+00  0.4000E+01
    -15.505  0.0000E+00  0.4000E+01
    -15.392  0.0000E+00  0.4000E+01
    -15.280  0.0000E+00  0.4000E+01
    -15.168  0.0000E+00  0.4000E+01
    -15.056  0.0000E+00  0.4000E+01
    -14.943  0.0000E+00  0.4000E+01
    -14.831  0.0000E+00  0.4000E+01
    -14.719  0.0000E+00  0.4000E+01
    -14.606  0.0000E+00  0.4000E+01
    -14.494  0.0000E+00  0.4000E+01
    -14.382  0.0000E+00  0.4000E+01
    -14.269  0.0000E+00  0.4000E+01
    -14.157  0.0000E+00  0.4000E+01
    -14.045  0.0000E+00  0.4000E+01
    -13.933  0.1977E-14  0.4000E+01
    -13.820  0.4650E-05  0.4000E+01
    -13.708  0.5836E+00  0.4066E+01
    -13.596  0.1561E+02  0.5818E+01
    -13.483  0.1620E+01  0.6000E+01
    -13.371  0.5758E-04  0.6000E+01
    -13.259  0.1315E+00  0.6015E+01
    -13.146  0.1358E+02  0.7540E+01
    -13.034  0.4098E+01  0.8000E+01
    -12.922  0.1310E+01  0.8147E+01
    -12.810  0.1575E+02  0.9916E+01
    -12.697  0.7508E+00  0.1000E+02
    -12.585  0.3098E+00  0.1003E+02
    -12.473  0.1495E+02  0.1171E+02
    -12.360  0.2552E+01  0.1200E+02
    -12.248  0.1973E-03  0.1200E+02
    -12.136  0.1056E-11  0.1200E+02
    -12.023  0.0000E+00  0.1200E+02
    -11.911  0.0000E+00  0.1200E+02
    -11.799  0.2581E-07  0.1200E+02
    -11.687  0.5133E-01  0.1201E+02
    -11.574  0.1172E+02  0.1332E+02
    -11.462  0.6032E+01  0.1400E+02
    -11.350  0.3233E-02  0.1400E+02
    -11.237  0.2986E+01  0.1434E+02
    -11.125  0.1458E+02  0.1597E+02
    -11.013  0.2395E+00  0.1600E+02
    -10.900  0.6297E-06  0.1600E+02
    -10.788  0.0000E+00  0.1600E+02
    -10.676  0.0000E+00  0.1600E+02
    -10.563  0.0000E+00  0.1600E+02
    -10.451  0.3226E-07  0.1600E+02
    -10.339  0.5741E-01  0.1601E+02
    -10.227  0.1195E+02  0.1735E+02
    -10.114  0.5795E+01  0.1800E+02
    -10.002  0.2537E-02  0.1800E+02
     -9.890  0.8660E-06  0.1800E+02
     -9.777  0.2772E+00  0.1803E+02
     -9.665  0.1480E+02  0.1969E+02
     -9.553  0.2736E+01  0.2000E+02
     -9.440  0.2405E-03  0.2000E+02
     -9.328  0.1477E-11  0.2000E+02
     -9.216  0.0000E+00  0.2000E+02
     -9.104  0.0000E+00  0.2000E+02
     -8.991  0.0000E+00  0.2000E+02
     -8.879  0.0000E+00  0.2000E+02
     -8.767  0.0000E+00  0.2000E+02
     -8.654  0.0000E+00  0.2000E+02
     -8.542  0.0000E+00  0.2000E+02
     -8.430  0.0000E+00  0.2000E+02
     -8.317  0.0000E+00  0.2000E+02
     -8.205  0.0000E+00  0.2000E+02
     -8.093  0.0000E+00  0.2000E+02
     -7.981  0.0000E+00  0.2000E+02
     -7.868  0.0000E+00  0.2000E+02
     -7.756  0.0000E+00  0.2000E+02
     -7.644  0.0000E+00  0.2000E+02
     -7.531  0.0000E+00  0.2000E+02
     -7.419  0.0000E+00  0.2000E+02
     -7.307  0.0000E+00  0.2000E+02
     -7.194  0.0000E+00  0.2000E+02
     -7.082  0.0000E+00  0.2000E+02
     -6.970  0.0000E+00  0.2000E+02
     -6.858  0.0000E+00  0.2000E+02
     -6.745  0.0000E+00  0.2000E+02
     -6.633  0.0000E+00  0.2000E+02
     -6.521  0.0000E+00  0.2000E+02
     -6.408  0.0000E+00  0.2000E+02
     -6.296  0.0000E+00  0.2000E+02
     -6.184  0.0000E+00  0.2000E+02
     -6.071  0.0000E+00  0.2000E+02
     -5.959  0.0000E+00  0.2000E+02
     -5.847  0.0000E+00  0.2000E+02
     -5.734  0.0000E+00  0.2000E+02
     -5.622  0.0000E+00  0.2000E+02
     -5.510  0.0000E+00  0.2000E+02
     -5.398  0.0000E+00  0.2000E+02
     -5.285  0.0000E+00  0.2000E+02
     -5.173  0.0000E+00  0.2000E+02
     -5.061  0.0000E+00  0.2000E+02
     -4.948  0.0000E+00  0.2000E+02
     -4.836  0.0000E+00  0.2000E+02
     -4.724  0.0000E+00  0.2000E+02
     -4.611  0.0000E+00  0.2000E+02
     -4.499  0.0000E+00  0.2000E+02
     -4.387  0.0000E+00  0.2000E+02
     -4.275  0.0000E+00  0.2000E+02
     -4.162  0.0000E+00  0.2000E+02
     -4.050  0.0000E+00  0.2000E+02
     -3.938  0.0000E+00  0.2000E+02
     -3.825  0.0000E+00  0.2000E+02
     -3.713  0.0000E+00  0.2000E+02
     -3.601  0.0000E+00  0.2000E+02
     -3.488  0.0000E+00  0.2000E+02
     -3.376  0.0000E+00  0.2000E+02
     -3.264  0.0000E+00  0.2000E+02
     -3.152  0.0000E+00  0.2000E+02
     -3.039  0.0000E+00  0.2000E+02
     -2.927  0.0000E+00  0.2000E+02
     -2.815  0.0000E+00  0.2000E+02
     -2.702  0.0000E+00  0.2000E+02
     -2.590  0.0000E+00  0.2000E+02
     -2.478  0.0000E+00  0.2000E+02
     -2.365  0.0000E+00  0.2000E+02
     -2.253  0.6920E-14  0.2000E+02
     -2.141  0.9676E-05  0.2000E+02
     -2.029  0.9471E+00  0.2011E+02
     -1.916  0.2970E+02  0.2344E+02
     -1.804  0.4967E+01  0.2400E+02
     -1.692  0.6225E-03  0.2400E+02
     -1.579  0.6991E-11  0.2400E+02
     -1.467  0.0000E+00  0.2400E+02
     -1.355  0.0000E+00  0.2400E+02
     -1.242  0.0000E+00  0.2400E+02
     -1.130  0.0000E+00  0.2400E+02
     -1.018  0.0000E+00  0.2400E+02
     -0.906  0.6827E-08  0.2400E+02
     -0.793  0.2606E-01  0.2400E+02
     -0.681  0.1031E+02  0.2516E+02
     -0.569  0.1541E+02  0.2689E+02
     -0.456  0.9858E+01  0.2800E+02
     -0.344  0.2110E-01  0.2800E+02
     -0.232  0.9308E+00  0.2810E+02
     -0.119  0.1581E+02  0.2988E+02
     -0.007  0.1072E+01  0.3000E+02
      0.105  0.2004E-04  0.3000E+02
      0.218  0.7174E-09  0.3000E+02
      0.330  0.8869E-02  0.3000E+02
      0.442  0.1429E+02  0.3161E+02
      0.554  0.3860E+02  0.3594E+02
      0.667  0.5291E+00  0.3600E+02
      0.779  0.1952E-05  0.3600E+02
      0.891  0.0000E+00  0.3600E+02
      1.004  0.0000E+00  0.3600E+02
      1.116  0.0000E+00  0.3600E+02
      1.228  0.0000E+00  0.3600E+02
      1.341  0.0000E+00  0.3600E+02
      1.453  0.0000E+00  0.3600E+02
      1.565  0.0000E+00  0.3600E+02
      1.677  0.0000E+00  0.3600E+02
      1.790  0.0000E+00  0.3600E+02
      1.902  0.0000E+00  0.3600E+02
      2.014  0.0000E+00  0.3600E+02
