    4    4    1    1
  0.7621562E+03  0.1450000E-08  0.1450000E-08  0.1450000E-08  0.5000000E-15
  1.000000000000000E-004
  CAR 
 NiAl                                    
     20      1     18
 
  0.0000000E+00  0.0000000E+00  0.0000000E+00  0.1000000E+01
    1      -30.144891   1.000000
    2      -28.545022   1.000000
    3      -13.642835   1.000000
    4      -13.172536   1.000000
    5      -12.870558   1.000000
    6      -12.510297   1.000000
    7      -11.588896   1.000000
    8      -11.203236   1.000000
    9      -10.242568   1.000000
   10       -9.701166   1.000000
   11       -1.968265   0.000000
   12       -1.944926   0.000000
   13       -0.688009   0.000000
   14       -0.563764   0.000000
   15       -0.174299   0.000000
   16        0.447423   0.000000
   17        0.467271   0.000000
   18        0.482959   0.000000
