       N       E                     dE             d eps       ncg     rms          rms(c)
DAV:   1     0.100659223057E+03    0.10066E+03   -0.42702E+03    60   0.378E+02
DAV:   2    -0.259886908804E+02   -0.12665E+03   -0.12640E+03    60   0.140E+02
DAV:   3    -0.333023643687E+02   -0.73137E+01   -0.73117E+01    48   0.425E+01
DAV:   4    -0.333890661287E+02   -0.86702E-01   -0.86674E-01    72   0.463E+00
DAV:   5    -0.333891695532E+02   -0.10342E-03   -0.10313E-03    36   0.148E-01    0.134E+01
DAV:   6    -0.314779474364E+02    0.19112E+01   -0.24733E+00    72   0.101E+01    0.807E+00
DAV:   7    -0.311131720340E+02    0.36478E+00   -0.21805E+00    48   0.904E+00    0.211E+00
DAV:   8    -0.310941144001E+02    0.19058E-01   -0.19827E-01    60   0.265E+00    0.316E-01
DAV:   9    -0.310936349754E+02    0.47942E-03   -0.68846E-03    60   0.473E-01    0.117E-01
DAV:  10    -0.310957389669E+02   -0.21040E-02   -0.58085E-04    60   0.136E-01    0.712E-02
DAV:  11    -0.310961338136E+02   -0.39485E-03   -0.15216E-04    66   0.736E-02    0.186E-02
DAV:  12    -0.310972003364E+02   -0.10665E-02   -0.94643E-05    48   0.418E-02    0.235E-02
DAV:  13    -0.310978478575E+02   -0.64752E-03   -0.15990E-04    54   0.459E-02    0.145E-02
DAV:  14    -0.310982847529E+02   -0.43690E-03   -0.20829E-05    54   0.254E-02    0.848E-03
DAV:  15    -0.310985922032E+02   -0.30745E-03   -0.12577E-05    48   0.155E-02    0.366E-03
DAV:  16    -0.310988247289E+02   -0.23253E-03   -0.10749E-05    60   0.151E-02    0.151E-03
DAV:  17    -0.310988741005E+02   -0.49372E-04   -0.11294E-06    72   0.574E-03    0.164E-03
DAV:  18    -0.310989283553E+02   -0.54255E-04   -0.99777E-07    60   0.522E-03    0.737E-04
DAV:  19    -0.310989410542E+02   -0.12699E-04   -0.10276E-07    60   0.232E-03    0.344E-04
DAV:  20    -0.310989508205E+02   -0.97663E-05   -0.39280E-08    24   0.165E-03    0.275E-04
DAV:  21    -0.310989519971E+02   -0.11767E-05   -0.98366E-09    36   0.651E-04
   1 F= -.31098952E+02 E0= -.31098952E+02  d E =-.217739E-14
