 254 254   0   0
  0.3019211E+02  0.1718057E-08  0.1718057E-08  0.3000000E-08  0.5000000E-15
  1.000000000000000E-004
  CAR 
 NiAl                                    
      5.56175701    -24.71764281  301      1.83305265      1.00000000
    -24.718  0.0000E+00  0.0000E+00
    -24.617  0.0000E+00  0.0000E+00
    -24.516  0.0000E+00  0.0000E+00
    -24.415  0.0000E+00  0.0000E+00
    -24.314  0.0000E+00  0.0000E+00
    -24.213  0.0000E+00  0.0000E+00
    -24.112  0.0000E+00  0.0000E+00
    -24.011  0.0000E+00  0.0000E+00
    -23.910  0.0000E+00  0.0000E+00
    -23.809  0.0000E+00  0.0000E+00
    -23.708  0.0000E+00  0.0000E+00
    -23.607  0.5076E-12  0.5124E-13
    -23.506  0.2928E-04  0.2956E-05
    -23.406  0.6825E+00  0.6889E-01
    -23.305  0.1616E+02  0.1700E+01
    -23.204  0.2975E+01  0.2000E+01
    -23.103  0.9916E-03  0.2000E+01
    -23.002  0.1515E-09  0.2000E+01
    -22.901  0.0000E+00  0.2000E+01
    -22.800  0.0000E+00  0.2000E+01
    -22.699  0.0000E+00  0.2000E+01
    -22.598  0.0000E+00  0.2000E+01
    -22.497  0.0000E+00  0.2000E+01
    -22.396  0.0000E+00  0.2000E+01
    -22.295  0.0000E+00  0.2000E+01
    -22.194  0.0000E+00  0.2000E+01
    -22.093  0.0000E+00  0.2000E+01
    -21.992  0.0000E+00  0.2000E+01
    -21.892  0.0000E+00  0.2000E+01
    -21.791  0.0000E+00  0.2000E+01
    -21.690  0.0000E+00  0.2000E+01
    -21.589  0.0000E+00  0.2000E+01
    -21.488  0.0000E+00  0.2000E+01
    -21.387  0.0000E+00  0.2000E+01
    -21.286  0.0000E+00  0.2000E+01
    -21.185  0.0000E+00  0.2000E+01
    -21.084  0.0000E+00  0.2000E+01
    -20.983  0.0000E+00  0.2000E+01
    -20.882  0.0000E+00  0.2000E+01
    -20.781  0.0000E+00  0.2000E+01
    -20.680  0.0000E+00  0.2000E+01
    -20.579  0.0000E+00  0.2000E+01
    -20.479  0.0000E+00  0.2000E+01
    -20.378  0.0000E+00  0.2000E+01
    -20.277  0.0000E+00  0.2000E+01
    -20.176  0.0000E+00  0.2000E+01
    -20.075  0.0000E+00  0.2000E+01
    -19.974  0.0000E+00  0.2000E+01
    -19.873  0.0000E+00  0.2000E+01
    -19.772  0.0000E+00  0.2000E+01
    -19.671  0.0000E+00  0.2000E+01
    -19.570  0.0000E+00  0.2000E+01
    -19.469  0.0000E+00  0.2000E+01
    -19.368  0.0000E+00  0.2000E+01
    -19.267  0.0000E+00  0.2000E+01
    -19.166  0.0000E+00  0.2000E+01
    -19.065  0.0000E+00  0.2000E+01
    -18.965  0.0000E+00  0.2000E+01
    -18.864  0.0000E+00  0.2000E+01
    -18.763  0.0000E+00  0.2000E+01
    -18.662  0.0000E+00  0.2000E+01
    -18.561  0.0000E+00  0.2000E+01
    -18.460  0.0000E+00  0.2000E+01
    -18.359  0.0000E+00  0.2000E+01
    -18.258  0.0000E+00  0.2000E+01
    -18.157  0.0000E+00  0.2000E+01
    -18.056  0.0000E+00  0.2000E+01
    -17.955  0.0000E+00  0.2000E+01
    -17.854  0.0000E+00  0.2000E+01
    -17.753  0.0000E+00  0.2000E+01
    -17.652  0.0000E+00  0.2000E+01
    -17.552  0.0000E+00  0.2000E+01
    -17.451  0.0000E+00  0.2000E+01
    -17.350  0.0000E+00  0.2000E+01
    -17.249  0.0000E+00  0.2000E+01
    -17.148  0.0000E+00  0.2000E+01
    -17.047  0.0000E+00  0.2000E+01
    -16.946  0.0000E+00  0.2000E+01
    -16.845  0.0000E+00  0.2000E+01
    -16.744  0.0000E+00  0.2000E+01
    -16.643  0.0000E+00  0.2000E+01
    -16.542  0.0000E+00  0.2000E+01
    -16.441  0.0000E+00  0.2000E+01
    -16.340  0.0000E+00  0.2000E+01
    -16.239  0.0000E+00  0.2000E+01
    -16.138  0.0000E+00  0.2000E+01
    -16.038  0.0000E+00  0.2000E+01
    -15.937  0.0000E+00  0.2000E+01
    -15.836  0.0000E+00  0.2000E+01
    -15.735  0.0000E+00  0.2000E+01
    -15.634  0.0000E+00  0.2000E+01
    -15.533  0.0000E+00  0.2000E+01
    -15.432  0.0000E+00  0.2000E+01
    -15.331  0.0000E+00  0.2000E+01
    -15.230  0.0000E+00  0.2000E+01
    -15.129  0.0000E+00  0.2000E+01
    -15.028  0.0000E+00  0.2000E+01
    -14.927  0.0000E+00  0.2000E+01
    -14.826  0.0000E+00  0.2000E+01
    -14.725  0.0000E+00  0.2000E+01
    -14.625  0.0000E+00  0.2000E+01
    -14.524  0.0000E+00  0.2000E+01
    -14.423  0.0000E+00  0.2000E+01
    -14.322  0.0000E+00  0.2000E+01
    -14.221  0.0000E+00  0.2000E+01
    -14.120  0.0000E+00  0.2000E+01
    -14.019  0.0000E+00  0.2000E+01
    -13.918  0.0000E+00  0.2000E+01
    -13.817  0.0000E+00  0.2000E+01
    -13.716  0.0000E+00  0.2000E+01
    -13.615  0.0000E+00  0.2000E+01
    -13.514  0.0000E+00  0.2000E+01
    -13.413  0.0000E+00  0.2000E+01
    -13.312  0.0000E+00  0.2000E+01
    -13.211  0.0000E+00  0.2000E+01
    -13.111  0.0000E+00  0.2000E+01
    -13.010  0.0000E+00  0.2000E+01
    -12.909  0.0000E+00  0.2000E+01
    -12.808  0.0000E+00  0.2000E+01
    -12.707  0.0000E+00  0.2000E+01
    -12.606  0.0000E+00  0.2000E+01
    -12.505  0.0000E+00  0.2000E+01
    -12.404  0.0000E+00  0.2000E+01
    -12.303  0.0000E+00  0.2000E+01
    -12.202  0.0000E+00  0.2000E+01
    -12.101  0.0000E+00  0.2000E+01
    -12.000  0.0000E+00  0.2000E+01
    -11.899  0.0000E+00  0.2000E+01
    -11.798  0.0000E+00  0.2000E+01
    -11.698  0.0000E+00  0.2000E+01
    -11.597  0.0000E+00  0.2000E+01
    -11.496  0.0000E+00  0.2000E+01
    -11.395  0.0000E+00  0.2000E+01
    -11.294  0.0000E+00  0.2000E+01
    -11.193  0.0000E+00  0.2000E+01
    -11.092  0.0000E+00  0.2000E+01
    -10.991  0.0000E+00  0.2000E+01
    -10.890  0.0000E+00  0.2000E+01
    -10.789  0.0000E+00  0.2000E+01
    -10.688  0.0000E+00  0.2000E+01
    -10.587  0.0000E+00  0.2000E+01
    -10.486  0.0000E+00  0.2000E+01
    -10.385  0.0000E+00  0.2000E+01
    -10.284  0.0000E+00  0.2000E+01
    -10.184  0.0000E+00  0.2000E+01
    -10.083  0.0000E+00  0.2000E+01
     -9.982  0.0000E+00  0.2000E+01
     -9.881  0.0000E+00  0.2000E+01
     -9.780  0.0000E+00  0.2000E+01
     -9.679  0.0000E+00  0.2000E+01
     -9.578  0.0000E+00  0.2000E+01
     -9.477  0.0000E+00  0.2000E+01
     -9.376  0.3300E-14  0.2000E+01
     -9.275  0.7066E-06  0.2000E+01
     -9.174  0.5627E-01  0.2006E+01
     -9.073  0.3501E+01  0.2359E+01
     -8.972  0.4338E+01  0.2797E+01
     -8.871  0.2504E+02  0.5324E+01
     -8.770  0.2761E+01  0.5603E+01
     -8.670  0.4434E+01  0.6051E+01
     -8.569  0.3930E+02  0.1002E+02
     -8.468  0.2389E+02  0.1243E+02
     -8.367  0.3855E+02  0.1632E+02
     -8.266  0.1433E+02  0.1777E+02
     -8.165  0.2214E+02  0.2000E+02
     -8.064  0.2283E+02  0.2230E+02
     -7.963  0.2805E+02  0.2514E+02
     -7.862  0.7014E+02  0.3221E+02
     -7.761  0.2838E+01  0.3250E+02
     -7.660  0.7415E+01  0.3325E+02
     -7.559  0.8850E+02  0.4218E+02
     -7.458  0.3155E+02  0.4537E+02
     -7.357  0.2469E+02  0.4786E+02
     -7.257  0.2431E+02  0.5031E+02
     -7.156  0.2545E+02  0.5288E+02
     -7.055  0.4433E+02  0.5736E+02
     -6.954  0.4655E+02  0.6205E+02
     -6.853  0.8317E+02  0.7045E+02
     -6.752  0.3431E+02  0.7391E+02
     -6.651  0.5003E+02  0.7896E+02
     -6.550  0.9271E+02  0.8832E+02
     -6.449  0.3932E+02  0.9229E+02
     -6.348  0.1688E+02  0.9399E+02
     -6.247  0.7965E+00  0.9407E+02
     -6.146  0.1565E+02  0.9565E+02
     -6.045  0.1131E+03  0.1071E+03
     -5.944  0.8371E+02  0.1155E+03
     -5.843  0.5968E+02  0.1215E+03
     -5.743  0.3154E+02  0.1247E+03
     -5.642  0.5715E+02  0.1305E+03
     -5.541  0.1084E+03  0.1414E+03
     -5.440  0.2832E+02  0.1443E+03
     -5.339  0.1729E+02  0.1460E+03
     -5.238  0.7486E+02  0.1536E+03
     -5.137  0.3699E+02  0.1573E+03
     -5.036  0.8780E+02  0.1662E+03
     -4.935  0.8451E+02  0.1747E+03
     -4.834  0.3017E+02  0.1778E+03
     -4.733  0.3577E+02  0.1814E+03
     -4.632  0.1055E+03  0.1920E+03
     -4.531  0.7643E+02  0.1997E+03
     -4.430  0.5847E+02  0.2056E+03
     -4.330  0.3289E+02  0.2089E+03
     -4.229  0.6885E+02  0.2159E+03
     -4.128  0.1079E+03  0.2268E+03
     -4.027  0.1013E+03  0.2370E+03
     -3.926  0.6795E+02  0.2439E+03
     -3.825  0.4136E+02  0.2480E+03
     -3.724  0.7534E+02  0.2556E+03
     -3.623  0.9660E+02  0.2654E+03
     -3.522  0.4858E+02  0.2703E+03
     -3.421  0.6075E+02  0.2764E+03
     -3.320  0.1075E+02  0.2775E+03
     -3.219  0.3667E+02  0.2812E+03
     -3.118  0.9478E+02  0.2908E+03
     -3.017  0.1069E+03  0.3016E+03
     -2.916  0.7744E+02  0.3094E+03
     -2.816  0.1285E+03  0.3224E+03
     -2.715  0.1756E+03  0.3401E+03
     -2.614  0.9129E+02  0.3493E+03
     -2.513  0.2072E+01  0.3495E+03
     -2.412  0.2082E+02  0.3516E+03
     -2.311  0.7287E+02  0.3590E+03
     -2.210  0.1365E+03  0.3728E+03
     -2.109  0.6367E+02  0.3792E+03
     -2.008  0.9165E+02  0.3884E+03
     -1.907  0.4318E+02  0.3928E+03
     -1.806  0.1014E+03  0.4030E+03
     -1.705  0.1587E+03  0.4190E+03
     -1.604  0.3718E+02  0.4228E+03
     -1.503  0.6771E+02  0.4296E+03
     -1.403  0.6889E+02  0.4366E+03
     -1.302  0.1359E+03  0.4503E+03
     -1.201  0.1221E+03  0.4626E+03
     -1.100  0.1209E+03  0.4748E+03
     -0.999  0.6551E+02  0.4814E+03
     -0.898  0.7059E+02  0.4886E+03
     -0.797  0.1376E+03  0.5024E+03
     -0.696  0.8348E+02  0.5109E+03
     -0.595  0.5324E+02  0.5162E+03
     -0.494  0.4629E+02  0.5209E+03
     -0.393  0.1759E+03  0.5387E+03
     -0.292  0.1324E+03  0.5520E+03
     -0.191  0.1335E+03  0.5655E+03
     -0.090  0.6668E+02  0.5722E+03
      0.011  0.3220E+02  0.5755E+03
      0.111  0.9423E+02  0.5850E+03
      0.212  0.8226E+02  0.5933E+03
      0.313  0.9997E+02  0.6034E+03
      0.414  0.7006E+02  0.6105E+03
      0.515  0.1270E+03  0.6233E+03
      0.616  0.9753E+02  0.6331E+03
      0.717  0.6853E+02  0.6400E+03
      0.818  0.3378E+02  0.6435E+03
      0.919  0.6658E+02  0.6502E+03
      1.020  0.2181E+03  0.6722E+03
      1.121  0.1736E+03  0.6897E+03
      1.222  0.9458E+02  0.6993E+03
      1.323  0.7294E+02  0.7066E+03
      1.424  0.7406E+02  0.7141E+03
      1.525  0.9119E+02  0.7233E+03
      1.625  0.1498E+03  0.7384E+03
      1.726  0.1851E+03  0.7571E+03
      1.827  0.8559E+02  0.7657E+03
      1.928  0.3221E+02  0.7690E+03
      2.029  0.1684E+03  0.7860E+03
      2.130  0.1058E+03  0.7967E+03
      2.231  0.6942E+02  0.8037E+03
      2.332  0.6872E+02  0.8106E+03
      2.433  0.8756E+02  0.8195E+03
      2.534  0.9799E+02  0.8293E+03
      2.635  0.1187E+03  0.8413E+03
      2.736  0.1047E+03  0.8519E+03
      2.837  0.8157E+02  0.8601E+03
      2.938  0.1642E+03  0.8767E+03
      3.038  0.2781E+03  0.9048E+03
      3.139  0.1016E+03  0.9150E+03
      3.240  0.7396E+02  0.9225E+03
      3.341  0.1045E+03  0.9330E+03
      3.442  0.1453E+03  0.9477E+03
      3.543  0.1223E+03  0.9600E+03
      3.644  0.8557E+02  0.9687E+03
      3.745  0.1156E+03  0.9803E+03
      3.846  0.7505E+02  0.9879E+03
      3.947  0.1077E+03  0.9988E+03
      4.048  0.1721E+03  0.1016E+04
      4.149  0.1235E+03  0.1029E+04
      4.250  0.3305E+02  0.1032E+04
      4.351  0.4078E+00  0.1032E+04
      4.452  0.1158E-04  0.1032E+04
      4.552  0.1694E-12  0.1032E+04
      4.653  0.0000E+00  0.1032E+04
      4.754  0.0000E+00  0.1032E+04
      4.855  0.0000E+00  0.1032E+04
      4.956  0.0000E+00  0.1032E+04
      5.057  0.0000E+00  0.1032E+04
      5.158  0.0000E+00  0.1032E+04
      5.259  0.0000E+00  0.1032E+04
      5.360  0.0000E+00  0.1032E+04
      5.461  0.0000E+00  0.1032E+04
      5.562  0.0000E+00  0.1032E+04
