       N       E                     dE             d eps       ncg     rms          rms(c)
DAV:   1     0.213772295099E+04    0.21377E+04   -0.18424E+05  3144   0.734E+02
DAV:   2    -0.743243749648E+03   -0.28810E+04   -0.27168E+04  4224   0.193E+02
DAV:   3    -0.954293666158E+03   -0.21105E+03   -0.20261E+03  4668   0.406E+01
DAV:   4    -0.962583809976E+03   -0.82901E+01   -0.81133E+01  4224   0.808E+00
DAV:   5    -0.962974472755E+03   -0.39066E+00   -0.38887E+00  4800   0.197E+00    0.196E+01
DAV:   6    -0.978172062013E+03   -0.15198E+02   -0.19269E+02  3876   0.165E+01    0.191E+01
DAV:   7    -0.937292449638E+03    0.40880E+02   -0.13482E+02  3984   0.156E+01    0.102E+01
DAV:   8    -0.937521495794E+03   -0.22905E+00   -0.47604E+01  3888   0.600E+00    0.516E+00
DAV:   9    -0.943373101149E+03   -0.58516E+01   -0.39804E+00  4332   0.744E+00    0.680E+00
DAV:  10    -0.934577174043E+03    0.87959E+01   -0.48586E+00  4332   0.560E+00    0.120E+00
DAV:  11    -0.934637602697E+03   -0.60429E-01   -0.34989E+00  3876   0.162E+00    0.790E-01
DAV:  12    -0.934620940979E+03    0.16662E-01   -0.28402E-01  4272   0.681E-01    0.585E-01
DAV:  13    -0.934583097110E+03    0.37844E-01   -0.84956E-02  3828   0.368E-01    0.302E-01
DAV:  14    -0.934574200387E+03    0.88967E-02   -0.44389E-02  3972   0.246E-01    0.241E-01
DAV:  15    -0.934573418004E+03    0.78238E-03   -0.10681E-02  3888   0.141E-01    0.173E-01
DAV:  16    -0.934584391903E+03   -0.10974E-01   -0.13766E-02  3840   0.129E-01    0.849E-02
DAV:  17    -0.934590118853E+03   -0.57270E-02   -0.35221E-03  3660   0.674E-02    0.679E-02
DAV:  18    -0.934592860351E+03   -0.27415E-02   -0.76673E-04  3780   0.398E-02    0.348E-02
DAV:  19    -0.934594969376E+03   -0.21090E-02   -0.89843E-04  3552   0.281E-02    0.340E-02
DAV:  20    -0.934595965511E+03   -0.99614E-03   -0.14306E-04  3996   0.168E-02    0.197E-02
DAV:  21    -0.934597305736E+03   -0.13402E-02   -0.25768E-04  3684   0.164E-02    0.191E-02
DAV:  22    -0.934597757543E+03   -0.45181E-03   -0.14918E-04  3312   0.109E-02    0.118E-02
DAV:  23    -0.934598841295E+03   -0.10838E-02   -0.12545E-04  3528   0.845E-03    0.767E-03
DAV:  24    -0.934600116285E+03   -0.12750E-02   -0.89313E-05  3252   0.629E-03    0.392E-03
DAV:  25    -0.934600671194E+03   -0.55491E-03   -0.38356E-05  3300   0.358E-03    0.234E-03
DAV:  26    -0.934600953030E+03   -0.28184E-03   -0.16404E-05  2652   0.228E-03    0.134E-03
DAV:  27    -0.934601065779E+03   -0.11275E-03   -0.64889E-06  2616   0.152E-03    0.765E-04
DAV:  28    -0.934601091048E+03   -0.25268E-04   -0.91732E-07  2148   0.813E-04    0.601E-04
DAV:  29    -0.934601105349E+03   -0.14301E-04   -0.71628E-07  2076   0.618E-04    0.494E-04
DAV:  30    -0.934601108120E+03   -0.27717E-05   -0.15256E-07  1848   0.406E-04
   1 F= -.93460111E+03 E0= -.93457518E+03  d E =-.518606E-01
