 vasp.5.4.4.18Apr17-6-g9f103f2a35 (build May 02 2017 15:33:50) complex          
  
 executed on Intel-16.0.3.210-OMP date 2018.08.08  21:22:35
 running on    6 total cores
 distrk:  each k-point on    6 cores,    1 groups
 distr:  one band on NCORES_PER_BAND=   1 cores,    6 groups


--------------------------------------------------------------------------------------------------------


 INCAR:
 POTCAR:    PAW Al_GW 19Mar2012                   
 POTCAR:    PAW_PBE N 08Apr2002                   

 ----------------------------------------------------------------------------- 
|                                                                             |
|           W    W    AA    RRRRR   N    N  II  N    N   GGGG   !!!           |
|           W    W   A  A   R    R  NN   N  II  NN   N  G    G  !!!           |
|           W    W  A    A  R    R  N N  N  II  N N  N  G       !!!           |
|           W WW W  AAAAAA  RRRRR   N  N N  II  N  N N  G  GGG   !            |
|           WW  WW  A    A  R   R   N   NN  II  N   NN  G    G                |
|           W    W  A    A  R    R  N    N  II  N    N   GGGG   !!!           |
|                                                                             |
|      For optimal performance we recommend to set                            |
|        NCORE= 4 - approx SQRT( number of cores)                             |
|      NCORE specifies how many cores store one orbital (NPAR=cpu/NCORE).     |
|      This setting can  greatly improve the performance of VASP for DFT.     |
|      The default,   NCORE=1            might be grossly inefficient         |
|      on modern multi-core architectures or massively parallel machines.     |
|      Do your own testing !!!!                                               |
|      Unfortunately you need to use the default for GW and RPA calculations. |
|      (for HF NCORE is supported but not extensively tested yet)             |
|                                                                             |
 ----------------------------------------------------------------------------- 

 POTCAR:    PAW Al_GW 19Mar2012                   
   VRHFIN =Al: s2p1                                                             
   LEXCH  = PE                                                                  
   EATOM  =    53.5387 eV,    3.9350 Ry                                         
                                                                                
   TITEL  = PAW Al_GW 19Mar2012                                                 
   LULTRA =        F    use ultrasoft PP ?                                      
   IUNSCR =        1    unscreen: 0-lin 1-nonlin 2-no                           
   RPACOR =    1.500    partial core radius                                     
   POMASS =   26.982; ZVAL   =    3.000    mass and valenz                      
   RCORE  =    2.000    outmost cutoff radius                                   
   RWIGS  =    2.000; RWIGS  =    1.058    wigner-seitz radius (au A)           
   ENMAX  =  240.300; ENMIN  =  180.225 eV                                      
   ICORE  =        3    local potential                                         
   LCOR   =        T    correct aug charges                                     
   LPAW   =        T    paw PP                                                  
   EAUG   =  482.059                                                            
   DEXC   =    0.000                                                            
   RMAX   =    2.051    core radius for proj-oper                               
   RAUG   =    1.300    factor for augmentation sphere                          
   RDEP   =    2.096    radius for radial grids                                 
   RDEPT  =    1.856    core radius for aug-charge                              
                                                                                
   Atomic configuration                                                         
    7 entries                                                                   
     n  l   j            E        occ.                                          
     1  0  0.50     -1511.1048   2.0000                                         
     2  0  0.50      -108.1629   2.0000                                         
     2  1  1.50       -69.6402   6.0000                                         
     3  0  0.50        -7.7528   2.0000                                         
     3  1  1.50        -2.7121   1.0000                                         
     3  2  2.50        -2.7212   0.0000                                         
     4  3  2.50        -2.7212   0.0000                                         
   Description                                                                  
     l       E           TYP  RCUT    TYP  RCUT                                 
     0     -7.7528455     23  1.900                                             
     0     68.0291300     23  1.900                                             
     1     -2.7120682     23  1.900                                             
     1     68.0291300     23  1.900                                             
     2     -1.3605826     23  1.900                                             
     2     81.6349560     23  1.900                                             
     3     74.8320430     23  2.000                                             
  local pseudopotential read in
  partial core-charges read in
  partial kinetic energy density read in
  kinetic energy density of atom read in
  atomic valenz-charges read in
  non local Contribution for L=           0  read in
    real space projection operators read in
  non local Contribution for L=           0  read in
    real space projection operators read in
  non local Contribution for L=           1  read in
    real space projection operators read in
  non local Contribution for L=           1  read in
    real space projection operators read in
  non local Contribution for L=           2  read in
    real space projection operators read in
  non local Contribution for L=           2  read in
    real space projection operators read in
    PAW grid and wavefunctions read in
 
   number of l-projection  operators is LMAX  =           6
   number of lm-projection operators is LMMAX =          18
 
 POTCAR:    PAW_PBE N 08Apr2002                   
   VRHFIN =N: s2p3                                                              
   LEXCH  = PE                                                                  
   EATOM  =   264.5486 eV,   19.4438 Ry                                         
                                                                                
   TITEL  = PAW_PBE N 08Apr2002                                                 
   LULTRA =        F    use ultrasoft PP ?                                      
   IUNSCR =        1    unscreen: 0-lin 1-nonlin 2-no                           
   RPACOR =    1.200    partial core radius                                     
   POMASS =   14.001; ZVAL   =    5.000    mass and valenz                      
   RCORE  =    1.500    outmost cutoff radius                                   
   RWIGS  =    1.400; RWIGS  =    0.741    wigner-seitz radius (au A)           
   ENMAX  =  400.000; ENMIN  =  300.000 eV                                      
   ICORE  =        2    local potential                                         
   LCOR   =        T    correct aug charges                                     
   LPAW   =        T    paw PP                                                  
   EAUG   =  627.112                                                            
   DEXC   =    0.000                                                            
   RMAX   =    1.529    core radius for proj-oper                               
   RAUG   =    1.300    factor for augmentation sphere                          
   RDEP   =    1.514    radius for radial grids                                 
   RDEPT  =    1.338    core radius for aug-charge                              
                                                                                
   Atomic configuration                                                         
    4 entries                                                                   
     n  l   j            E        occ.                                          
     1  0  0.50      -384.7179   2.0000                                         
     2  0  0.50       -18.5828   2.0000                                         
     2  1  0.50        -7.0898   3.0000                                         
     3  2  1.50        -6.8029   0.0000                                         
   Description                                                                  
     l       E           TYP  RCUT    TYP  RCUT                                 
     0    -18.5828119     23  1.200                                             
     0    -13.5018863     23  1.200                                             
     1     -7.0897853     23  1.500                                             
     1      9.5240782     23  1.500                                             
     2     -6.8029130      7  1.500                                             
  local pseudopotential read in
  partial core-charges read in
  partial kinetic energy density read in
  atomic valenz-charges read in
  non local Contribution for L=           0  read in
    real space projection operators read in
  non local Contribution for L=           0  read in
    real space projection operators read in
  non local Contribution for L=           1  read in
    real space projection operators read in
  non local Contribution for L=           1  read in
    real space projection operators read in
    PAW grid and wavefunctions read in
 
   number of l-projection  operators is LMAX  =           4
   number of lm-projection operators is LMMAX =           8
 
 Optimization of the real space projectors (new method)

 maximal supplied QI-value         = 18.90
 optimisation between [QCUT,QGAM] = [  8.69, 17.57] = [ 21.16, 86.49] Ry 
 Optimized for a Real-space Cutoff    1.59 Angstroem

   l    n(q)    QCUT    max X(q) W(low)/X(q) W(high)/X(q)  e(spline) 
   0      8     8.693    11.519    0.12E-03    0.31E-04    0.21E-06
   0      8     8.693     5.834    0.89E-04    0.32E-04    0.16E-06
   1      8     8.693    10.132    0.25E-03    0.39E-03    0.25E-06
   1      8     8.693     3.004    0.16E-03    0.27E-03    0.22E-06
   2      7     8.693     3.169    0.39E-03    0.93E-03    0.44E-06
   2      7     8.693     1.605    0.70E-04    0.91E-04    0.19E-06
 Optimization of the real space projectors (new method)

 maximal supplied QI-value         = 25.13
 optimisation between [QCUT,QGAM] = [  8.80, 17.59] = [ 21.67, 86.68] Ry 
 Optimized for a Real-space Cutoff    2.14 Angstroem

   l    n(q)    QCUT    max X(q) W(low)/X(q) W(high)/X(q)  e(spline) 
   0     11     8.797    79.467    0.70E-04    0.19E-04    0.19E-05
   0     11     8.797    66.151    0.68E-04    0.18E-04    0.19E-05
   1     11     8.797     6.738    0.26E-03    0.11E-02    0.73E-05
   1     11     8.797     5.013    0.25E-03    0.11E-02    0.72E-05
  PAW Al_GW 19Mar2012                   :
 energy of atom  1       EATOM=  -53.5387
 kinetic energy error for atom=    0.0011 (will be added to EATOM!!)
  PAW_PBE N 08Apr2002                   :
 energy of atom  2       EATOM= -264.5486
 kinetic energy error for atom=    0.6882 (will be added to EATOM!!)
 
 
 POSCAR: New structure                           
  positions in cartesian coordinates
  No initial velocities read in
 exchange correlation table for  LEXCH =        8
   RHO(1)=    0.500       N(1)  =     2000
   RHO(2)=  100.500       N(2)  =     4000
 


--------------------------------------------------------------------------------------------------------


 ion  position               nearest neighbor table
   1  0.444  0.444  0.079-
   2  0.444  0.778  0.079-
   3  0.444  0.111  0.079-
   4  0.778  0.444  0.079-
   5  0.778  0.778  0.079-
   6  0.778  0.111  0.079-
   7  0.111  0.444  0.079-
   8  0.111  0.778  0.079-
   9  0.111  0.111  0.079-
  10  0.556  0.556  0.157-
  11  0.556  0.889  0.157-
  12  0.556  0.222  0.157-
  13  0.889  0.556  0.157-
  14  0.889  0.889  0.157-
  15  0.889  0.222  0.157-
  16  0.222  0.556  0.157-
  17  0.222  0.889  0.157-
  18  0.222  0.222  0.157-
  19  0.667  0.667  0.234-
  20  0.667  0.000  0.234-
  21  0.667  0.333  0.234-
  22  0.000  0.667  0.234-
  23  0.000  0.000  0.234-
  24  0.000  0.333  0.234-
  25  0.333  0.667  0.234-
  26  0.333  0.000  0.234-
  27  0.333  0.333  0.234-
  28  0.778  0.778  0.312-
  29  0.778  0.111  0.312-
  30  0.778  0.444  0.312-
  31  0.111  0.778  0.312-
  32  0.111  0.111  0.312-
  33  0.111  0.444  0.312-
  34  0.444  0.778  0.312-
  35  0.444  0.111  0.312-
  36  0.444  0.444  0.312-
  37  0.889  0.889  0.390-
  38  0.889  0.222  0.390-
  39  0.889  0.556  0.390-
  40  0.222  0.889  0.390-
  41  0.222  0.222  0.390-
  42  0.222  0.556  0.390-
  43  0.556  0.889  0.390-
  44  0.556  0.222  0.390-
  45  0.556  0.556  0.390-
  46  0.000  0.000  0.466-
  47  0.000  0.333  0.466-
  48  0.000  0.667  0.466-
  49  0.333  0.000  0.466-
  50  0.333  0.333  0.466-
  51  0.333  0.667  0.466-
  52  0.667  0.000  0.466-
  53  0.667  0.333  0.466-
  54  0.667  0.667  0.466-
  55  0.111  0.111  0.545-
  56  0.111  0.444  0.545-
  57  0.111  0.778  0.545-
  58  0.444  0.111  0.545-
  59  0.444  0.444  0.545-
  60  0.444  0.778  0.545-
  61  0.778  0.111  0.545-
  62  0.778  0.444  0.545-
  63  0.778  0.778  0.545-
  64  0.278  0.278  0.079-
  65  0.278  0.611  0.079-
  66  0.278  0.944  0.079-
  67  0.611  0.278  0.079-
  68  0.611  0.611  0.079-
  69  0.611  0.944  0.079-
  70  0.944  0.278  0.079-
  71  0.944  0.611  0.079-
  72  0.944  0.944  0.079-
  73  0.389  0.389  0.157-
  74  0.389  0.722  0.157-
  75  0.389  0.056  0.157-
  76  0.722  0.389  0.157-
  77  0.722  0.722  0.157-
  78  0.722  0.056  0.157-
  79  0.056  0.389  0.157-
  80  0.056  0.722  0.157-
  81  0.056  0.056  0.157-
  82  0.500  0.500  0.234-
  83  0.500  0.833  0.234-
  84  0.500  0.167  0.234-
  85  0.833  0.500  0.234-
  86  0.833  0.833  0.234-
  87  0.833  0.167  0.234-
  88  0.167  0.500  0.234-
  89  0.167  0.833  0.234-
  90  0.167  0.167  0.234-
  91  0.611  0.611  0.312-
  92  0.611  0.944  0.312-
  93  0.611  0.278  0.312-
  94  0.944  0.611  0.312-
  95  0.944  0.944  0.312-
  96  0.944  0.278  0.312-
  97  0.278  0.611  0.312-
  98  0.278  0.944  0.312-
  99  0.278  0.278  0.312-
 100  0.722  0.722  0.390-
 101  0.722  0.056  0.390-
 102  0.722  0.389  0.390-
 103  0.056  0.722  0.390-
 104  0.056  0.056  0.390-
 105  0.056  0.389  0.390-
 106  0.389  0.722  0.390-
 107  0.389  0.056  0.390-
 108  0.389  0.389  0.390-
 109  0.833  0.833  0.466-
 110  0.833  0.167  0.466-
 111  0.833  0.500  0.466-
 112  0.167  0.833  0.466-
 113  0.167  0.167  0.466-
 114  0.167  0.500  0.466-
 115  0.500  0.833  0.466-
 116  0.500  0.167  0.466-
 117  0.500  0.500  0.466-
 118  0.944  0.944  0.545-
 119  0.944  0.278  0.545-
 120  0.944  0.611  0.545-
 121  0.278  0.944  0.545-
 122  0.278  0.278  0.545-
 123  0.278  0.611  0.545-
 124  0.611  0.944  0.545-
 125  0.611  0.278  0.545-
 126  0.611  0.611  0.545-
 127  0.278  0.444  0.079-
 128  0.278  0.778  0.079-
 129  0.278  0.111  0.079-
 130  0.611  0.444  0.079-
 131  0.611  0.778  0.079-
 132  0.611  0.111  0.079-
 133  0.944  0.444  0.079-
 134  0.944  0.778  0.079-
 135  0.944  0.111  0.079-
 136  0.389  0.556  0.157-
 137  0.389  0.889  0.157-
 138  0.389  0.222  0.157-
 139  0.722  0.556  0.157-
 140  0.722  0.889  0.157-
 141  0.722  0.222  0.157-
 142  0.056  0.556  0.157-
 143  0.056  0.889  0.157-
 144  0.056  0.222  0.157-
 145  0.500  0.667  0.234-
 146  0.500  0.000  0.234-
 147  0.500  0.333  0.234-
 148  0.833  0.667  0.234-
 149  0.833  0.000  0.234-
 150  0.833  0.333  0.234-
 151  0.167  0.667  0.234-
 152  0.167  0.000  0.234-
 153  0.167  0.333  0.234-
 154  0.611  0.778  0.312-
 155  0.611  0.111  0.312-
 156  0.611  0.444  0.312-
 157  0.944  0.778  0.312-
 158  0.944  0.111  0.312-
 159  0.944  0.444  0.312-
 160  0.278  0.778  0.312-
 161  0.278  0.111  0.312-
 162  0.278  0.444  0.312-
 163  0.722  0.889  0.390-
 164  0.722  0.222  0.390-
 165  0.722  0.556  0.390-
 166  0.056  0.889  0.390-
 167  0.056  0.222  0.390-
 168  0.056  0.556  0.390-
 169  0.389  0.889  0.390-
 170  0.389  0.222  0.390-
 171  0.389  0.556  0.390-
 172  0.833  0.000  0.466-
 173  0.833  0.333  0.466-
 174  0.833  0.667  0.466-
 175  0.167  0.000  0.466-
 176  0.167  0.333  0.466-
 177  0.167  0.667  0.466-
 178  0.500  0.000  0.466-
 179  0.500  0.333  0.466-
 180  0.500  0.667  0.466-
 181  0.944  0.111  0.545-
 182  0.944  0.444  0.545-
 183  0.944  0.778  0.545-
 184  0.278  0.111  0.545-
 185  0.278  0.444  0.545-
 186  0.278  0.778  0.545-
 187  0.611  0.111  0.545-
 188  0.611  0.444  0.545-
 189  0.611  0.778  0.545-
 190  0.444  0.278  0.079-
 191  0.444  0.611  0.079-
 192  0.444  0.944  0.079-
 193  0.778  0.278  0.079-
 194  0.778  0.611  0.079-
 195  0.778  0.944  0.079-
 196  0.111  0.278  0.079-
 197  0.111  0.611  0.079-
 198  0.111  0.944  0.079-
 199  0.556  0.389  0.157-
 200  0.556  0.722  0.157-
 201  0.556  0.056  0.157-
 202  0.889  0.389  0.157-
 203  0.889  0.722  0.157-
 204  0.889  0.056  0.157-
 205  0.222  0.389  0.157-
 206  0.222  0.722  0.157-
 207  0.222  0.056  0.157-
 208  0.667  0.500  0.234-
 209  0.667  0.833  0.234-
 210  0.667  0.167  0.234-
 211  1.000  0.500  0.234-
 212  1.000  0.833  0.234-
 213  1.000  0.167  0.234-
 214  0.333  0.500  0.234-
 215  0.333  0.833  0.234-
 216  0.333  0.167  0.234-
 217  0.778  0.611  0.312-
 218  0.778  0.944  0.312-
 219  0.778  0.278  0.312-
 220  0.111  0.611  0.312-
 221  0.111  0.944  0.312-
 222  0.111  0.278  0.312-
 223  0.444  0.611  0.312-
 224  0.444  0.944  0.312-
 225  0.444  0.278  0.312-
 226  0.889  0.722  0.390-
 227  0.889  0.056  0.390-
 228  0.889  0.389  0.390-
 229  0.222  0.722  0.390-
 230  0.222  0.056  0.390-
 231  0.222  0.389  0.390-
 232  0.556  0.722  0.390-
 233  0.556  0.056  0.390-
 234  0.556  0.389  0.390-
 235  1.000  0.833  0.466-
 236  1.000  0.167  0.466-
 237  1.000  0.500  0.466-
 238  0.333  0.833  0.466-
 239  0.333  0.167  0.466-
 240  0.333  0.500  0.466-
 241  0.667  0.833  0.466-
 242  0.667  0.167  0.466-
 243  0.667  0.500  0.466-
 244  0.111  0.944  0.545-
 245  0.111  0.278  0.545-
 246  0.111  0.611  0.545-
 247  0.444  0.944  0.545-
 248  0.444  0.278  0.545-
 249  0.444  0.611  0.545-
 250  0.778  0.944  0.545-
 251  0.778  0.278  0.545-
 252  0.778  0.611  0.545-
 253  0.343  0.481  0.618- 254 1.10
 254  0.380  0.407  0.618- 253 1.10
 
  LATTYP: Found a hexagonal cell.
 ALAT       =    17.1805734625
 C/A-ratio  =     1.7461582447
  
  Lattice vectors:
  
 A1 = (   0.0000000000,  -8.5902867312,  14.8788130701)
 A2 = (   0.0000000000,  17.1805734625,   0.0000000000)
 A3 = ( -30.0000000000,   0.0000000000,   0.0000000000)


Analysis of symmetry for initial positions (statically):
=====================================================================
 Subroutine PRICEL returns:
 Original cell was already a primitive cell.
 

 Routine SETGRP: Setting up the symmetry group for a 
 hexagonal supercell.


 Subroutine GETGRP returns: Found  2 space group operations
 (whereof  1 operations were pure point group operations)
 out of a pool of 24 trial point group operations.


The static configuration has the point symmetry C_1 .
 The point group associated with its full space group is C_1h.


Analysis of symmetry for dynamics (positions and initial velocities):
=====================================================================
 Subroutine PRICEL returns:
 Original cell was already a primitive cell.
 

 Routine SETGRP: Setting up the symmetry group for a 
 hexagonal supercell.


 Subroutine GETGRP returns: Found  2 space group operations
 (whereof  1 operations were pure point group operations)
 out of a pool of 24 trial point group operations.


The dynamic configuration has the point symmetry C_1 .
 The point group associated with its full space group is C_1h.


 Subroutine INISYM returns: Found  2 space group operations
 (whereof  1 operations are pure point group operations),
 and found     1 'primitive' translations

 
 
 KPOINTS: Automatic generation                    

Automatic generation of k-mesh.
Space group operators:
 irot       det(A)        alpha          n_x          n_y          n_z        tau_x        tau_y        tau_z
    1     1.000000     0.000000     1.000000     0.000000     0.000000     0.000000     0.000000     0.000000
    2    -1.000000   180.000000     0.000000     1.000000     0.000000    -0.833333     0.000000     0.000000
 
 Subroutine IBZKPT returns following result:
 ===========================================
 
 Found      3 irreducible k-points:
 
 Following reciprocal coordinates:
            Coordinates               Weight
  0.000000  0.000000  0.000000      1.000000
  0.500000  0.000000  0.000000      2.000000
  0.000000  0.500000  0.000000      1.000000
 
 Following cartesian coordinates:
            Coordinates               Weight
  0.000000  0.000000  0.000000      1.000000
  0.000000 -0.029103  0.016802      2.000000
  0.000000  0.000000 -0.033605      1.000000
 


--------------------------------------------------------------------------------------------------------




 Dimension of arrays:
   k-points           NKPTS =      3   k-points in BZ     NKDIM =      3   number of bands    NBANDS=    516
   number of dos      NEDOS =    301   number of ions     NIONS =    254
   non local maximal  LDIM  =      6   non local SUM 2l+1 LMDIM =     18
   total plane-waves  NPLWV = 819200
   max r-space proj   IRMAX =   4449   max aug-charges    IRDMAX=   4357
   dimension x,y,z NGX =    80 NGY =   80 NGZ =  128
   dimension x,y,z NGXF=   160 NGYF=  160 NGZF=  256
   support grid    NGXF=   160 NGYF=  160 NGZF=  256
   ions per type =             252   2
   NGX,Y,Z   is equivalent  to a cutoff of   7.74,  7.74,  7.09 a.u.
   NGXF,Y,Z  is equivalent  to a cutoff of  15.48, 15.48, 14.19 a.u.

 SYSTEM =  NiAl                                    
 POSCAR =  New structure                           

 Startparameter for this run:
   NWRITE =      2    write-flag & timer
   PREC   = normal    normal or accurate (medium, high low for compatibility)
   ISTART =      0    job   : 0-new  1-cont  2-samecut
   ICHARG =      2    charge: 1-file 2-atom 10-const
   ISPIN  =      1    spin polarized calculation?
   LNONCOLLINEAR =      F non collinear calculations
   LSORBIT =      F    spin-orbit coupling
   INIWAV =      1    electr: 0-lowe 1-rand  2-diag
   LASPH  =      F    aspherical Exc in radial PAW
   METAGGA=      F    non-selfconsistent MetaGGA calc.

 Electronic Relaxation 1
   ENCUT  =  300.0 eV  22.05 Ry    4.70 a.u.  24.26 24.26 42.37*2*pi/ulx,y,z
   ENINI  =  300.0     initial cutoff
   ENAUG  =  627.1 eV  augmentation charge cutoff
   NELM   =     60;   NELMIN=  6; NELMDL= -5     # of ELM steps 
   EDIFF  = 0.5E-05   stopping-criterion for ELM
   LREAL  =      T    real-space projection
   NLSPLINE    = F    spline interpolate recip. space projectors
   LCOMPAT=      F    compatible to vasp.4.4
   GGA_COMPAT  = T    GGA compatible to vasp.4.4-vasp.4.6
   LMAXPAW     = -100 max onsite density
   LMAXMIX     =    2 max onsite mixed and CHGCAR
   VOSKOWN=      0    Vosko Wilk Nusair interpolation
   ROPT   =   -0.00050  -0.00050
 Ionic relaxation
   EDIFFG = 0.5E-04   stopping-criterion for IOM
   NSW    =      0    number of steps for IOM
   NBLOCK =      1;   KBLOCK =      1    inner block; outer block 
   IBRION =     -1    ionic relax: 0-MD 1-quasi-New 2-CG
   NFREE  =      0    steps in history (QN), initial steepest desc. (CG)
   ISIF   =      0    stress and relaxation
   IWAVPR =     10    prediction:  0-non 1-charg 2-wave 3-comb
   ISYM   =      2    0-nonsym 1-usesym 2-fastsym
   LCORR  =      T    Harris-Foulkes like correction to forces

   POTIM  = 0.5000    time-step for ionic-motion
   TEIN   =    0.0    initial temperature
   TEBEG  =    0.0;   TEEND  =   0.0 temperature during run
   SMASS  =  -3.00    Nose mass-parameter (am)
   estimated Nose-frequenzy (Omega)   =  0.10E-29 period in steps =****** mass=  -0.675E-26a.u.
   SCALEE = 1.0000    scale energy and forces
   NPACO  =    256;   APACO  = 16.0  distance and # of slots for P.C.
   PSTRESS=    0.0 pullay stress

  Mass of Ions in am
   POMASS =  26.98 14.00
  Ionic Valenz
   ZVAL   =   3.00  5.00
  Atomic Wigner-Seitz radii
   RWIGS  =  -1.00 -1.00
  virtual crystal weights 
   VCA    =   1.00  1.00
   NELECT =     766.0000    total number of electrons
   NUPDOWN=      -1.0000    fix difference up-down

 DOS related values:
   EMIN   =  10.00;   EMAX   =-10.00  energy-range for DOS
   EFERMI =   0.00
   ISMEAR =     0;   SIGMA  =   0.05  broadening in eV -4-tet -1-fermi 0-gaus

 Electronic relaxation 2 (details)
   IALGO  =     38    algorithm
   LDIAG  =      T    sub-space diagonalisation (order eigenvalues)
   LSUBROT=      F    optimize rotation matrix (better conditioning)
   TURBO    =      0    0=normal 1=particle mesh
   IRESTART =      0    0=no restart 2=restart with 2 vectors
   NREBOOT  =      0    no. of reboots
   NMIN     =      0    reboot dimension
   EREF     =   0.00    reference energy to select bands
   IMIX   =      4    mixing-type and parameters
     AMIX     =   0.40;   BMIX     =  1.00
     AMIX_MAG =   1.60;   BMIX_MAG =  1.00
     AMIN     =   0.10
     WC   =   100.;   INIMIX=   1;  MIXPRE=   1;  MAXMIX= -45

 Intra band minimization:
   WEIMIN = 0.0000     energy-eigenvalue tresh-hold
   EBREAK =  0.24E-08  absolut break condition
   DEPER  =   0.30     relativ break condition  

   TIME   =   0.40     timestep for ELM

  volume/ion in A,a.u.               =      30.19       203.75
  Fermi-wavevector in a.u.,A,eV,Ry     =   0.759583  1.435404  7.850108  0.576967
  Thomas-Fermi vector in A             =   1.858410
 
 Write flags
   LWAVE        =      F    write WAVECAR
   LDOWNSAMPLE  =      F    k-point downsampling of WAVECAR
   LCHARG       =      F    write CHGCAR
   LVTOT        =      F    write LOCPOT, total local potential
   LVHAR        =      F    write LOCPOT, Hartree potential only
   LELF         =      F    write electronic localiz. function (ELF)
   LORBIT       =      0    0 simple, 1 ext, 2 COOP (PROOUT), +10 PAW based schemes


 Dipole corrections
   LMONO  =      F    monopole corrections only (constant potential shift)
   LDIPOL =      F    correct potential (dipole corrections)
   IDIPOL =      0    1-x, 2-y, 3-z, 4-all directions 
   EPSILON=  1.0000000 bulk dielectric constant

 Exchange correlation treatment:
   GGA     =    --    GGA type
   LEXCH   =     8    internal setting for exchange type
   VOSKOWN=      0    Vosko Wilk Nusair interpolation
   LHFCALC =     F    Hartree Fock is set to
   LHFONE  =     F    Hartree Fock one center treatment
   AEXX    =    0.0000 exact exchange contribution

 Linear response parameters
   LEPSILON=     F    determine dielectric tensor
   LRPA    =     F    only Hartree local field effects (RPA)
   LNABLA  =     F    use nabla operator in PAW spheres
   LVEL    =     F    velocity operator in full k-point grid
   LINTERFAST=   F  fast interpolation
   KINTER  =     0    interpolate to denser k-point grid
   CSHIFT  =0.1000    complex shift for real part using Kramers Kronig
   OMEGAMAX=  -1.0    maximum frequency
   DEG_THRESHOLD= 0.2000000E-02 threshold for treating states as degnerate
   RTIME   =   -0.100 relaxation time in fs
  (WPLASMAI=    0.000 imaginary part of plasma frequency in eV, 0.658/RTIME)
   DFIELD  = 0.0000000 0.0000000 0.0000000 field for delta impulse in time
 
 Orbital magnetization related:
   ORBITALMAG=     F  switch on orbital magnetization
   LCHIMAG   =     F  perturbation theory with respect to B field
   DQ        =  0.001000  dq finite difference perturbation B field
   LLRAUG    =     F  two centre corrections for induced B field



--------------------------------------------------------------------------------------------------------


 Static calculation
 charge density and potential will be updated during run
 non-spin polarized calculation
 Variant of blocked Davidson
 Davidson routine will perform the subspace rotation
 perform sub-space diagonalisation
    after iterative eigenvector-optimisation
 modified Broyden-mixing scheme, WC =      100.0
 initial mixing is a Kerker type mixing with AMIX =  0.4000 and BMIX =      1.0000
 Hartree-type preconditioning will be used
 using additional bands          133
 real space projection scheme for non local part
 use partial core corrections
 calculate Harris-corrections to forces 
   (improved forces if not selfconsistent)
 use gradient corrections 
 use of overlap-Matrix (Vanderbilt PP)
 Gauss-broadening in eV      SIGMA  =   0.05


--------------------------------------------------------------------------------------------------------


  energy-cutoff  :      300.00
  volume of cell :     7668.80
      direct lattice vectors                 reciprocal lattice vectors
     0.000000000-17.180573462  0.000000000     0.000000000 -0.058205275  0.033604831
     0.000000000 -8.590286731-14.878813070     0.000000000  0.000000000 -0.067209662
    30.000000000  0.000000000  0.000000000     0.033333333  0.000000000  0.000000000

  length of vectors
    17.180573462 17.180573462 30.000000000     0.067209662  0.067209662  0.033333333


 
 k-points in units of 2pi/SCALE and weight: Automatic generation                    
   0.00000000  0.00000000  0.00000000       0.250
   0.00000000 -0.02910264  0.01680242       0.500
   0.00000000  0.00000000 -0.03360483       0.250
 
 k-points in reciprocal lattice and weights: Automatic generation                    
   0.00000000  0.00000000  0.00000000       0.250
   0.50000000  0.00000000  0.00000000       0.500
   0.00000000  0.50000000  0.00000000       0.250
 
 position of ions in fractional coordinates (direct lattice) 
   0.44444456  0.44444473  0.07873467
   0.44444419  0.77777777  0.07873467
   0.44444468  0.11111101  0.07873467
   0.77777744  0.44444473  0.07873467
   0.77777765  0.77777777  0.07873467
   0.77777756  0.11111101  0.07873467
   0.11111110  0.44444473  0.07873467
   0.11111131  0.77777777  0.07873467
   0.11111122  0.11111101  0.07873467
   0.55555520  0.55555574  0.15702600
   0.55555541  0.88888878  0.15702600
   0.55555591  0.22222203  0.15702600
   0.88888866  0.55555574  0.15702600
   0.88888887  0.88888878  0.15702600
   0.88888878  0.22222203  0.15702600
   0.22222232  0.55555574  0.15702600
   0.22222253  0.88888878  0.15702600
   0.22222245  0.22222203  0.15702600
   0.66666642  0.66666675  0.23375733
   0.66666692  0.00000000  0.23375733
   0.66666655  0.33333304  0.23375733
   0.00000008  0.66666675  0.23375733
   0.00000000  0.00000000  0.23375733
   0.00000021  0.33333304  0.23375733
   0.33333354  0.66666675  0.23375733
   0.33333346  0.00000000  0.23375733
   0.33333367  0.33333304  0.23375733
   0.77777765  0.77777777  0.31173067
   0.77777756  0.11111101  0.31173067
   0.77777744  0.44444473  0.31173067
   0.11111131  0.77777777  0.31173067
   0.11111122  0.11111101  0.31173067
   0.11111110  0.44444473  0.31173067
   0.44444419  0.77777777  0.31173067
   0.44444468  0.11111101  0.31173067
   0.44444456  0.44444473  0.31173067
   0.88888887  0.88888878  0.38970400
   0.88888878  0.22222203  0.38970400
   0.88888866  0.55555574  0.38970400
   0.22222253  0.88888878  0.38970400
   0.22222245  0.22222203  0.38970400
   0.22222232  0.55555574  0.38970400
   0.55555541  0.88888878  0.38970400
   0.55555591  0.22222203  0.38970400
   0.55555520  0.55555574  0.38970400
   0.00000000  0.00000000  0.46643533
   0.00000021  0.33333304  0.46643533
   0.00000008  0.66666675  0.46643533
   0.33333346  0.00000000  0.46643533
   0.33333367  0.33333304  0.46643533
   0.33333354  0.66666675  0.46643533
   0.66666692  0.00000000  0.46643533
   0.66666655  0.33333304  0.46643533
   0.66666642  0.66666675  0.46643533
   0.11111122  0.11111101  0.54472667
   0.11111110  0.44444473  0.54472667
   0.11111131  0.77777777  0.54472667
   0.44444468  0.11111101  0.54472667
   0.44444456  0.44444473  0.54472667
   0.44444419  0.77777777  0.54472667
   0.77777756  0.11111101  0.54472667
   0.77777744  0.44444473  0.54472667
   0.77777765  0.77777777  0.54472667
   0.27777777  0.27777753  0.07873467
   0.27777764  0.61111125  0.07873467
   0.27777785  0.94444429  0.07873467
   0.61111123  0.27777753  0.07873467
   0.61111110  0.61111125  0.07873467
   0.61111131  0.94444429  0.07873467
   0.94444469  0.27777753  0.07873467
   0.94444456  0.61111125  0.07873467
   0.94444477  0.94444429  0.07873467
   0.38888865  0.38888922  0.15702600
   0.38888886  0.72222226  0.15702600
   0.38888878  0.05555551  0.15702600
   0.72222211  0.38888922  0.15702600
   0.72222232  0.72222226  0.15702600
   0.72222224  0.05555551  0.15702600
   0.05555519  0.38888922  0.15702600
   0.05555540  0.72222226  0.15702600
   0.05555532  0.05555551  0.15702600
   0.49999988  0.50000023  0.23375733
   0.50000009  0.83333327  0.23375733
   0.50000000  0.16666652  0.23375733
   0.83333334  0.50000023  0.23375733
   0.83333355  0.83333327  0.23375733
   0.83333346  0.16666652  0.23375733
   0.16666642  0.50000023  0.23375733
   0.16666663  0.83333327  0.23375733
   0.16666654  0.16666652  0.23375733
   0.61111110  0.61111125  0.31173067
   0.61111131  0.94444429  0.31173067
   0.61111123  0.27777753  0.31173067
   0.94444456  0.61111125  0.31173067
   0.94444477  0.94444429  0.31173067
   0.94444469  0.27777753  0.31173067
   0.27777764  0.61111125  0.31173067
   0.27777785  0.94444429  0.31173067
   0.27777777  0.27777753  0.31173067
   0.72222232  0.72222226  0.38970400
   0.72222224  0.05555551  0.38970400
   0.72222211  0.38888922  0.38970400
   0.05555540  0.72222226  0.38970400
   0.05555532  0.05555551  0.38970400
   0.05555519  0.38888922  0.38970400
   0.38888886  0.72222226  0.38970400
   0.38888878  0.05555551  0.38970400
   0.38888865  0.38888922  0.38970400
   0.83333355  0.83333327  0.46643533
   0.83333346  0.16666652  0.46643533
   0.83333334  0.50000023  0.46643533
   0.16666663  0.83333327  0.46643533
   0.16666654  0.16666652  0.46643533
   0.16666642  0.50000023  0.46643533
   0.50000009  0.83333327  0.46643533
   0.50000000  0.16666652  0.46643533
   0.49999988  0.50000023  0.46643533
   0.94444477  0.94444429  0.54472667
   0.94444469  0.27777753  0.54472667
   0.94444456  0.61111125  0.54472667
   0.27777785  0.94444429  0.54472667
   0.27777777  0.27777753  0.54472667
   0.27777764  0.61111125  0.54472667
   0.61111131  0.94444429  0.54472667
   0.61111123  0.27777753  0.54472667
   0.61111110  0.61111125  0.54472667
   0.27777783  0.44444473  0.07873467
   0.27777804  0.77777777  0.07873467
   0.27777795  0.11111101  0.07873467
   0.61111071  0.44444473  0.07873467
   0.61111092  0.77777777  0.07873467
   0.61111141  0.11111101  0.07873467
   0.94444417  0.44444473  0.07873467
   0.94444438  0.77777777  0.07873467
   0.94444429  0.11111101  0.07873467
   0.38888905  0.55555574  0.15702600
   0.38888868  0.88888878  0.15702600
   0.38888918  0.22222203  0.15702600
   0.72222193  0.55555574  0.15702600
   0.72222214  0.88888878  0.15702600
   0.72222205  0.22222203  0.15702600
   0.05555559  0.55555574  0.15702600
   0.05555580  0.88888878  0.15702600
   0.05555572  0.22222203  0.15702600
   0.49999969  0.66666675  0.23375733
   0.50000019  0.00000000  0.23375733
   0.50000040  0.33333304  0.23375733
   0.83333315  0.66666675  0.23375733
   0.83333307  0.00000000  0.23375733
   0.83333328  0.33333304  0.23375733
   0.16666681  0.66666675  0.23375733
   0.16666673  0.00000000  0.23375733
   0.16666694  0.33333304  0.23375733
   0.61111092  0.77777777  0.31173067
   0.61111141  0.11111101  0.31173067
   0.61111071  0.44444473  0.31173067
   0.94444438  0.77777777  0.31173067
   0.94444429  0.11111101  0.31173067
   0.94444417  0.44444473  0.31173067
   0.27777804  0.77777777  0.31173067
   0.27777795  0.11111101  0.31173067
   0.27777783  0.44444473  0.31173067
   0.72222214  0.88888878  0.38970400
   0.72222205  0.22222203  0.38970400
   0.72222193  0.55555574  0.38970400
   0.05555580  0.88888878  0.38970400
   0.05555572  0.22222203  0.38970400
   0.05555559  0.55555574  0.38970400
   0.38888868  0.88888878  0.38970400
   0.38888918  0.22222203  0.38970400
   0.38888905  0.55555574  0.38970400
   0.83333307  0.00000000  0.46643533
   0.83333328  0.33333304  0.46643533
   0.83333315  0.66666675  0.46643533
   0.16666673  0.00000000  0.46643533
   0.16666694  0.33333304  0.46643533
   0.16666681  0.66666675  0.46643533
   0.50000019  0.00000000  0.46643533
   0.50000040  0.33333304  0.46643533
   0.49999969  0.66666675  0.46643533
   0.94444429  0.11111101  0.54472667
   0.94444417  0.44444473  0.54472667
   0.94444438  0.77777777  0.54472667
   0.27777795  0.11111101  0.54472667
   0.27777783  0.44444473  0.54472667
   0.27777804  0.77777777  0.54472667
   0.61111141  0.11111101  0.54472667
   0.61111071  0.44444473  0.54472667
   0.61111092  0.77777777  0.54472667
   0.44444450  0.27777753  0.07873467
   0.44444437  0.61111125  0.07873467
   0.44444458  0.94444429  0.07873467
   0.77777796  0.27777753  0.07873467
   0.77777783  0.61111125  0.07873467
   0.77777804  0.94444429  0.07873467
   0.11111104  0.27777753  0.07873467
   0.11111091  0.61111125  0.07873467
   0.11111112  0.94444429  0.07873467
   0.55555538  0.38888922  0.15702600
   0.55555559  0.72222226  0.15702600
   0.55555551  0.05555551  0.15702600
   0.88888884  0.38888922  0.15702600
   0.88888905  0.72222226  0.15702600
   0.88888897  0.05555551  0.15702600
   0.22222192  0.38888922  0.15702600
   0.22222213  0.72222226  0.15702600
   0.22222205  0.05555551  0.15702600
   0.66666661  0.50000023  0.23375733
   0.66666682  0.83333327  0.23375733
   0.66666673  0.16666652  0.23375733
   0.99999969  0.50000023  0.23375733
   0.99999990  0.83333327  0.23375733
   0.99999981  0.16666652  0.23375733
   0.33333315  0.50000023  0.23375733
   0.33333336  0.83333327  0.23375733
   0.33333327  0.16666652  0.23375733
   0.77777783  0.61111125  0.31173067
   0.77777804  0.94444429  0.31173067
   0.77777796  0.27777753  0.31173067
   0.11111091  0.61111125  0.31173067
   0.11111112  0.94444429  0.31173067
   0.11111104  0.27777753  0.31173067
   0.44444437  0.61111125  0.31173067
   0.44444458  0.94444429  0.31173067
   0.44444450  0.27777753  0.31173067
   0.88888905  0.72222226  0.38970400
   0.88888897  0.05555551  0.38970400
   0.88888884  0.38888922  0.38970400
   0.22222213  0.72222226  0.38970400
   0.22222205  0.05555551  0.38970400
   0.22222192  0.38888922  0.38970400
   0.55555559  0.72222226  0.38970400
   0.55555551  0.05555551  0.38970400
   0.55555538  0.38888922  0.38970400
   0.99999990  0.83333327  0.46643533
   0.99999981  0.16666652  0.46643533
   0.99999969  0.50000023  0.46643533
   0.33333336  0.83333327  0.46643533
   0.33333327  0.16666652  0.46643533
   0.33333315  0.50000023  0.46643533
   0.66666682  0.83333327  0.46643533
   0.66666673  0.16666652  0.46643533
   0.66666661  0.50000023  0.46643533
   0.11111112  0.94444429  0.54472667
   0.11111104  0.27777753  0.54472667
   0.11111091  0.61111125  0.54472667
   0.44444458  0.94444429  0.54472667
   0.44444450  0.27777753  0.54472667
   0.44444437  0.61111125  0.54472667
   0.77777804  0.94444429  0.54472667
   0.77777796  0.27777753  0.54472667
   0.77777783  0.61111125  0.54472667
   0.34272267  0.48122118  0.61800000
   0.37958737  0.40749218  0.61800000
 
 position of ions in cartesian coordinates  (Angst):
   2.36204000-11.45372000 -6.61281000
   2.36204000-14.31714000-11.57241000
   2.36204000 -8.59029000 -1.65320000
   2.36204000-17.18057000 -6.61281000
   2.36204000-20.04400000-11.57241000
   2.36204000-14.31714000 -1.65320000
   2.36204000 -5.72686000 -6.61281000
   2.36204000 -8.59029000-11.57241000
   2.36204000 -2.86343000 -1.65320000
   4.71078000-14.31714000 -8.26601000
   4.71078000-17.18057000-13.22561000
   4.71078000-11.45372000 -3.30640000
   4.71078000-20.04400000 -8.26601000
   4.71078000-22.90743000-13.22561000
   4.71078000-17.18057000 -3.30640000
   4.71078000 -8.59029000 -8.26601000
   4.71078000-11.45372000-13.22561000
   4.71078000 -5.72686000 -3.30640000
   7.01272000-17.18057000 -9.91921000
   7.01272000-11.45372000  0.00000000
   7.01272000-14.31714000 -4.95960000
   7.01272000 -5.72686000 -9.91921000
   7.01272000  0.00000000  0.00000000
   7.01272000 -2.86343000 -4.95960000
   7.01272000-11.45372000 -9.91921000
   7.01272000 -5.72686000  0.00000000
   7.01272000 -8.59029000 -4.95960000
   9.35192000-20.04400000-11.57241000
   9.35192000-14.31714000 -1.65320000
   9.35192000-17.18057000 -6.61281000
   9.35192000 -8.59029000-11.57241000
   9.35192000 -2.86343000 -1.65320000
   9.35192000 -5.72686000 -6.61281000
   9.35192000-14.31714000-11.57241000
   9.35192000 -8.59029000 -1.65320000
   9.35192000-11.45372000 -6.61281000
  11.69112000-22.90743000-13.22561000
  11.69112000-17.18057000 -3.30640000
  11.69112000-20.04400000 -8.26601000
  11.69112000-11.45372000-13.22561000
  11.69112000 -5.72686000 -3.30640000
  11.69112000 -8.59029000 -8.26601000
  11.69112000-17.18057000-13.22561000
  11.69112000-11.45372000 -3.30640000
  11.69112000-14.31714000 -8.26601000
  13.99306000  0.00000000  0.00000000
  13.99306000 -2.86343000 -4.95960000
  13.99306000 -5.72686000 -9.91921000
  13.99306000 -5.72686000  0.00000000
  13.99306000 -8.59029000 -4.95960000
  13.99306000-11.45372000 -9.91921000
  13.99306000-11.45372000  0.00000000
  13.99306000-14.31714000 -4.95960000
  13.99306000-17.18057000 -9.91921000
  16.34180000 -2.86343000 -1.65320000
  16.34180000 -5.72686000 -6.61281000
  16.34180000 -8.59029000-11.57241000
  16.34180000 -8.59029000 -1.65320000
  16.34180000-11.45372000 -6.61281000
  16.34180000-14.31714000-11.57241000
  16.34180000-14.31714000 -1.65320000
  16.34180000-17.18057000 -6.61281000
  16.34180000-20.04400000-11.57241000
   2.36204000 -7.15857000 -4.13300000
   2.36204000-10.02200000 -9.09261000
   2.36204000-12.88543000-14.05221000
   2.36204000-12.88543000 -4.13300000
   2.36204000-15.74886000 -9.09261000
   2.36204000-18.61229000-14.05221000
   2.36204000-18.61229000 -4.13300000
   2.36204000-21.47572000 -9.09261000
   2.36204000-24.33915000-14.05221000
   4.71078000-10.02200000 -5.78621000
   4.71078000-12.88543000-10.74581000
   4.71078000 -7.15857000 -0.82660000
   4.71078000-15.74886000 -5.78621000
   4.71078000-18.61229000-10.74581000
   4.71078000-12.88543000 -0.82660000
   4.71078000 -4.29514000 -5.78621000
   4.71078000 -7.15857000-10.74581000
   4.71078000 -1.43171000 -0.82660000
   7.01272000-12.88543000 -7.43941000
   7.01272000-15.74886000-12.39901000
   7.01272000-10.02200000 -2.47980000
   7.01272000-18.61229000 -7.43941000
   7.01272000-21.47572000-12.39901000
   7.01272000-15.74886000 -2.47980000
   7.01272000 -7.15857000 -7.43941000
   7.01272000-10.02200000-12.39901000
   7.01272000 -4.29514000 -2.47980000
   9.35192000-15.74886000 -9.09261000
   9.35192000-18.61229000-14.05221000
   9.35192000-12.88543000 -4.13300000
   9.35192000-21.47572000 -9.09261000
   9.35192000-24.33915000-14.05221000
   9.35192000-18.61229000 -4.13300000
   9.35192000-10.02200000 -9.09261000
   9.35192000-12.88543000-14.05221000
   9.35192000 -7.15857000 -4.13300000
  11.69112000-18.61229000-10.74581000
  11.69112000-12.88543000 -0.82660000
  11.69112000-15.74886000 -5.78621000
  11.69112000 -7.15857000-10.74581000
  11.69112000 -1.43171000 -0.82660000
  11.69112000 -4.29514000 -5.78621000
  11.69112000-12.88543000-10.74581000
  11.69112000 -7.15857000 -0.82660000
  11.69112000-10.02200000 -5.78621000
  13.99306000-21.47572000-12.39901000
  13.99306000-15.74886000 -2.47980000
  13.99306000-18.61229000 -7.43941000
  13.99306000-10.02200000-12.39901000
  13.99306000 -4.29514000 -2.47980000
  13.99306000 -7.15857000 -7.43941000
  13.99306000-15.74886000-12.39901000
  13.99306000-10.02200000 -2.47980000
  13.99306000-12.88543000 -7.43941000
  16.34180000-24.33915000-14.05221000
  16.34180000-18.61229000 -4.13300000
  16.34180000-21.47572000 -9.09261000
  16.34180000-12.88543000-14.05221000
  16.34180000 -7.15857000 -4.13300000
  16.34180000-10.02200000 -9.09261000
  16.34180000-18.61229000-14.05221000
  16.34180000-12.88543000 -4.13300000
  16.34180000-15.74886000 -9.09261000
   2.36204000 -8.59029000 -6.61281000
   2.36204000-11.45372000-11.57241000
   2.36204000 -5.72686000 -1.65320000
   2.36204000-14.31714000 -6.61281000
   2.36204000-17.18057000-11.57241000
   2.36204000-11.45372000 -1.65320000
   2.36204000-20.04400000 -6.61281000
   2.36204000-22.90743000-11.57241000
   2.36204000-17.18057000 -1.65320000
   4.71078000-11.45372000 -8.26601000
   4.71078000-14.31714000-13.22561000
   4.71078000 -8.59029000 -3.30640000
   4.71078000-17.18057000 -8.26601000
   4.71078000-20.04400000-13.22561000
   4.71078000-14.31714000 -3.30640000
   4.71078000 -5.72686000 -8.26601000
   4.71078000 -8.59029000-13.22561000
   4.71078000 -2.86343000 -3.30640000
   7.01272000-14.31714000 -9.91921000
   7.01272000 -8.59029000  0.00000000
   7.01272000-11.45372000 -4.95960000
   7.01272000-20.04400000 -9.91921000
   7.01272000-14.31714000  0.00000000
   7.01272000-17.18057000 -4.95960000
   7.01272000 -8.59029000 -9.91921000
   7.01272000 -2.86343000  0.00000000
   7.01272000 -5.72686000 -4.95960000
   9.35192000-17.18057000-11.57241000
   9.35192000-11.45372000 -1.65320000
   9.35192000-14.31714000 -6.61281000
   9.35192000-22.90743000-11.57241000
   9.35192000-17.18057000 -1.65320000
   9.35192000-20.04400000 -6.61281000
   9.35192000-11.45372000-11.57241000
   9.35192000 -5.72686000 -1.65320000
   9.35192000 -8.59029000 -6.61281000
  11.69112000-20.04400000-13.22561000
  11.69112000-14.31714000 -3.30640000
  11.69112000-17.18057000 -8.26601000
  11.69112000 -8.59029000-13.22561000
  11.69112000 -2.86343000 -3.30640000
  11.69112000 -5.72686000 -8.26601000
  11.69112000-14.31714000-13.22561000
  11.69112000 -8.59029000 -3.30640000
  11.69112000-11.45372000 -8.26601000
  13.99306000-14.31714000  0.00000000
  13.99306000-17.18057000 -4.95960000
  13.99306000-20.04400000 -9.91921000
  13.99306000 -2.86343000  0.00000000
  13.99306000 -5.72686000 -4.95960000
  13.99306000 -8.59029000 -9.91921000
  13.99306000 -8.59029000  0.00000000
  13.99306000-11.45372000 -4.95960000
  13.99306000-14.31714000 -9.91921000
  16.34180000-17.18057000 -1.65320000
  16.34180000-20.04400000 -6.61281000
  16.34180000-22.90743000-11.57241000
  16.34180000 -5.72686000 -1.65320000
  16.34180000 -8.59029000 -6.61281000
  16.34180000-11.45372000-11.57241000
  16.34180000-11.45372000 -1.65320000
  16.34180000-14.31714000 -6.61281000
  16.34180000-17.18057000-11.57241000
   2.36204000-10.02200000 -4.13300000
   2.36204000-12.88543000 -9.09261000
   2.36204000-15.74886000-14.05221000
   2.36204000-15.74886000 -4.13300000
   2.36204000-18.61229000 -9.09261000
   2.36204000-21.47572000-14.05221000
   2.36204000 -4.29514000 -4.13300000
   2.36204000 -7.15857000 -9.09261000
   2.36204000-10.02200000-14.05221000
   4.71078000-12.88543000 -5.78621000
   4.71078000-15.74886000-10.74581000
   4.71078000-10.02200000 -0.82660000
   4.71078000-18.61229000 -5.78621000
   4.71078000-21.47572000-10.74581000
   4.71078000-15.74886000 -0.82660000
   4.71078000 -7.15857000 -5.78621000
   4.71078000-10.02200000-10.74581000
   4.71078000 -4.29514000 -0.82660000
   7.01272000-15.74886000 -7.43941000
   7.01272000-18.61229000-12.39901000
   7.01272000-12.88543000 -2.47980000
   7.01272000-21.47571346 -7.43941000
   7.01272000-24.33914346-12.39901000
   7.01272000-18.61228346 -2.47980000
   7.01272000-10.02200000 -7.43941000
   7.01272000-12.88543000-12.39901000
   7.01272000 -7.15857000 -2.47980000
   9.35192000-18.61229000 -9.09261000
   9.35192000-21.47572000-14.05221000
   9.35192000-15.74886000 -4.13300000
   9.35192000 -7.15857000 -9.09261000
   9.35192000-10.02200000-14.05221000
   9.35192000 -4.29514000 -4.13300000
   9.35192000-12.88543000 -9.09261000
   9.35192000-15.74886000-14.05221000
   9.35192000-10.02200000 -4.13300000
  11.69112000-21.47572000-10.74581000
  11.69112000-15.74886000 -0.82660000
  11.69112000-18.61229000 -5.78621000
  11.69112000-10.02200000-10.74581000
  11.69112000 -4.29514000 -0.82660000
  11.69112000 -7.15857000 -5.78621000
  11.69112000-15.74886000-10.74581000
  11.69112000-10.02200000 -0.82660000
  11.69112000-12.88543000 -5.78621000
  13.99306000-24.33914346-12.39901000
  13.99306000-18.61228346 -2.47980000
  13.99306000-21.47571346 -7.43941000
  13.99306000-12.88543000-12.39901000
  13.99306000 -7.15857000 -2.47980000
  13.99306000-10.02200000 -7.43941000
  13.99306000-18.61229000-12.39901000
  13.99306000-12.88543000 -2.47980000
  13.99306000-15.74886000 -7.43941000
  16.34180000-10.02200000-14.05221000
  16.34180000 -4.29514000 -4.13300000
  16.34180000 -7.15857000 -9.09261000
  16.34180000-15.74886000-14.05221000
  16.34180000-10.02200000 -4.13300000
  16.34180000-12.88543000 -9.09261000
  16.34180000-21.47572000-14.05221000
  16.34180000-15.74886000 -4.13300000
  16.34180000-18.61229000 -9.09261000
  18.54000000-10.02200000 -7.16000000
  18.54000000-10.02200333 -6.06300000
 


--------------------------------------------------------------------------------------------------------


 k-point  1 :   0.0000 0.0000 0.0000  plane waves:   90499
 k-point  2 :   0.5000 0.0000 0.0000  plane waves:   90530
 k-point  3 :   0.0000 0.5000 0.0000  plane waves:   90530

 maximum and minimum number of plane-waves per node :     90530    90499

 maximum number of plane-waves:     90530
 maximum index in each direction: 
   IXMAX=   24   IYMAX=   24   IZMAX=   42
   IXMIN=  -24   IYMIN=  -24   IZMIN=  -42


 serial   3D FFT for wavefunctions
 parallel 3D FFT for charge:
    minimum data exchange during FFTs selected (reduces bandwidth)


 total amount of memory used by VASP MPI-rank0   652090. kBytes
=======================================================================

   base      :      30000. kBytes
   nonlr-proj:      89869. kBytes
   fftplans  :      40601. kBytes
   grid      :      95147. kBytes
   one-center:       3950. kBytes
   wavefun   :     392523. kBytes
 
     INWAV:  cpu time    0.0000: real time    0.0001
 Broyden mixing: mesh for mixing (old mesh)
   NGX = 49   NGY = 49   NGZ = 85
  (NGX  =160   NGY  =160   NGZ  =256)
  gives a total of 204085 points

 initial charge density was supplied:
 charge density of overlapping atoms calculated
 number of electron     766.0000000 magnetization 
 keeping initial charge density in first step


--------------------------------------------------------------------------------------------------------


 Maximum index for non-local projection operator         4264
 Maximum index for augmentation-charges          758 (set IRDMAX)


--------------------------------------------------------------------------------------------------------


 First call to EWALD:  gamma=   0.090
 Maximum number of real-space cells 3x 3x 2
 Maximum number of reciprocal cells 2x 2x 4

    FEWALD:  cpu time    0.0267: real time    0.0340


----------------------------------------- Iteration    1(   1)  ---------------------------------------


    POTLOK:  cpu time    0.6996: real time    0.7332
    SETDIJ:  cpu time    0.0861: real time    0.0895
     EDDAV:  cpu time   18.2772: real time   20.7852
       DOS:  cpu time    0.0011: real time    0.0069
    --------------------------------------------
      LOOP:  cpu time   19.0661: real time   21.6409

 eigenvalue-minimisations  :  3144
 total energy-change (2. order) : 0.2137723E+04  (-0.1842411E+05)
 number of electron     766.0000000 magnetization 
 augmentation part      766.0000000 magnetization 

 Free energy of the ion-electron system (eV)
  ---------------------------------------------------
  alpha Z        PSCENC =       505.22967617
  Ewald energy   TEWEN  =     88090.49616269
  -Hartree energ DENC   =   -102143.55779350
  -exchange      EXHF   =         0.00000000
  -V(xc)+E(xc)   XCENC  =     -6604.79876399
  PAW double counting   =     17092.30507181    -9042.14386232
  entropy T*S    EENTRO =        -0.06508489
  eigenvalues    EBANDS =       221.05556927
  atomic energy  EATOM  =     14019.20197576
  Solvation  Ediel_sol  =         0.00000000
  ---------------------------------------------------
  free energy    TOTEN  =      2137.72295099 eV

  energy without entropy =     2137.78803588  energy(sigma->0) =     2137.75549343


--------------------------------------------------------------------------------------------------------




----------------------------------------- Iteration    1(   2)  ---------------------------------------


     EDDAV:  cpu time   22.9706: real time   25.6538
       DOS:  cpu time    0.0025: real time    0.0025
    --------------------------------------------
      LOOP:  cpu time   22.9744: real time   25.6648

 eigenvalue-minimisations  :  4224
 total energy-change (2. order) :-0.2880967E+04  (-0.2716822E+04)
 number of electron     766.0000000 magnetization 
 augmentation part      766.0000000 magnetization 

 Free energy of the ion-electron system (eV)
  ---------------------------------------------------
  alpha Z        PSCENC =       505.22967617
  Ewald energy   TEWEN  =     88090.49616269
  -Hartree energ DENC   =   -102143.55779350
  -exchange      EXHF   =         0.00000000
  -V(xc)+E(xc)   XCENC  =     -6604.79876399
  PAW double counting   =     17092.30507181    -9042.14386232
  entropy T*S    EENTRO =        -0.11076181
  eigenvalues    EBANDS =     -2659.86545445
  atomic energy  EATOM  =     14019.20197576
  Solvation  Ediel_sol  =         0.00000000
  ---------------------------------------------------
  free energy    TOTEN  =      -743.24374965 eV

  energy without entropy =     -743.13298783  energy(sigma->0) =     -743.18836874


--------------------------------------------------------------------------------------------------------




----------------------------------------- Iteration    1(   3)  ---------------------------------------


     EDDAV:  cpu time   24.7921: real time   27.7689
       DOS:  cpu time    0.0011: real time    0.0011
    --------------------------------------------
      LOOP:  cpu time   24.7944: real time   27.7732

 eigenvalue-minimisations  :  4668
 total energy-change (2. order) :-0.2110499E+03  (-0.2026097E+03)
 number of electron     766.0000000 magnetization 
 augmentation part      766.0000000 magnetization 

 Free energy of the ion-electron system (eV)
  ---------------------------------------------------
  alpha Z        PSCENC =       505.22967617
  Ewald energy   TEWEN  =     88090.49616269
  -Hartree energ DENC   =   -102143.55779350
  -exchange      EXHF   =         0.00000000
  -V(xc)+E(xc)   XCENC  =     -6604.79876399
  PAW double counting   =     17092.30507181    -9042.14386232
  entropy T*S    EENTRO =        -0.23020858
  eigenvalues    EBANDS =     -2870.79592419
  atomic energy  EATOM  =     14019.20197576
  Solvation  Ediel_sol  =         0.00000000
  ---------------------------------------------------
  free energy    TOTEN  =      -954.29366616 eV

  energy without entropy =     -954.06345758  energy(sigma->0) =     -954.17856187


--------------------------------------------------------------------------------------------------------




----------------------------------------- Iteration    1(   4)  ---------------------------------------


     EDDAV:  cpu time   22.9041: real time   25.7522
       DOS:  cpu time    0.0048: real time    0.0048
    --------------------------------------------
      LOOP:  cpu time   22.9101: real time   25.7596

 eigenvalue-minimisations  :  4224
 total energy-change (2. order) :-0.8290144E+01  (-0.8113331E+01)
 number of electron     766.0000000 magnetization 
 augmentation part      766.0000000 magnetization 

 Free energy of the ion-electron system (eV)
  ---------------------------------------------------
  alpha Z        PSCENC =       505.22967617
  Ewald energy   TEWEN  =     88090.49616269
  -Hartree energ DENC   =   -102143.55779350
  -exchange      EXHF   =         0.00000000
  -V(xc)+E(xc)   XCENC  =     -6604.79876399
  PAW double counting   =     17092.30507181    -9042.14386232
  entropy T*S    EENTRO =        -0.25647456
  eigenvalues    EBANDS =     -2879.05980203
  atomic energy  EATOM  =     14019.20197576
  Solvation  Ediel_sol  =         0.00000000
  ---------------------------------------------------
  free energy    TOTEN  =      -962.58380998 eV

  energy without entropy =     -962.32733542  energy(sigma->0) =     -962.45557270


--------------------------------------------------------------------------------------------------------




----------------------------------------- Iteration    1(   5)  ---------------------------------------


     EDDAV:  cpu time   25.4992: real time   28.4623
       DOS:  cpu time    0.0049: real time    0.0049
    CHARGE:  cpu time    1.6413: real time    1.7115
    MIXING:  cpu time    0.0234: real time    0.0235
    --------------------------------------------
      LOOP:  cpu time   27.1702: real time   30.2051

 eigenvalue-minimisations  :  4800
 total energy-change (2. order) :-0.3906628E+00  (-0.3888747E+00)
 number of electron     765.9999973 magnetization 
 augmentation part       -9.9112739 magnetization 

 Broyden mixing:
  rms(total) = 0.19602E+01    rms(broyden)= 0.19585E+01
  rms(prec ) = 0.26964E+01
  weight for this iteration     100.00

 Free energy of the ion-electron system (eV)
  ---------------------------------------------------
  alpha Z        PSCENC =       505.22967617
  Ewald energy   TEWEN  =     88090.49616269
  -Hartree energ DENC   =   -102143.55779350
  -exchange      EXHF   =         0.00000000
  -V(xc)+E(xc)   XCENC  =     -6604.79876399
  PAW double counting   =     17092.30507181    -9042.14386232
  entropy T*S    EENTRO =        -0.25794512
  eigenvalues    EBANDS =     -2879.44899425
  atomic energy  EATOM  =     14019.20197576
  Solvation  Ediel_sol  =         0.00000000
  ---------------------------------------------------
  free energy    TOTEN  =      -962.97447275 eV

  energy without entropy =     -962.71652763  energy(sigma->0) =     -962.84550019


--------------------------------------------------------------------------------------------------------




----------------------------------------- Iteration    1(   6)  ---------------------------------------


    POTLOK:  cpu time    0.6747: real time    0.6770
    SETDIJ:  cpu time    0.0856: real time    0.0858
     EDDAV:  cpu time   21.4501: real time   24.1659
       DOS:  cpu time    0.0013: real time    0.0013
    CHARGE:  cpu time    1.6151: real time    1.6459
    MIXING:  cpu time    0.0242: real time    0.0245
    --------------------------------------------
      LOOP:  cpu time   23.8525: real time   26.6030

 eigenvalue-minimisations  :  3876
 total energy-change (2. order) :-0.1519759E+02  (-0.1926880E+02)
 number of electron     765.9999975 magnetization 
 augmentation part       -9.8580958 magnetization 

 Broyden mixing:
  rms(total) = 0.19142E+01    rms(broyden)= 0.19141E+01
  rms(prec ) = 0.42411E+01
  weight for this iteration     100.00

 eigenvalues of (default mixing * dielectric matrix)
  average eigenvalue GAMMA=   0.7896
  0.7896

 Free energy of the ion-electron system (eV)
  ---------------------------------------------------
  alpha Z        PSCENC =       505.22967617
  Ewald energy   TEWEN  =     88090.49616269
  -Hartree energ DENC   =   -103074.17720028
  -exchange      EXHF   =         0.00000000
  -V(xc)+E(xc)   XCENC  =     -6594.65628472
  PAW double counting   =     19107.02706482   -11058.30529555
  entropy T*S    EENTRO =        -0.13628362
  eigenvalues    EBANDS =     -1972.85187729
  atomic energy  EATOM  =     14019.20197576
  Solvation  Ediel_sol  =         0.00000000
  ---------------------------------------------------
  free energy    TOTEN  =      -978.17206201 eV

  energy without entropy =     -978.03577839  energy(sigma->0) =     -978.10392020


--------------------------------------------------------------------------------------------------------




----------------------------------------- Iteration    1(   7)  ---------------------------------------


    POTLOK:  cpu time    0.6772: real time    0.6779
    SETDIJ:  cpu time    0.0859: real time    0.0860
     EDDAV:  cpu time   21.9751: real time   24.6817
       DOS:  cpu time    0.0011: real time    0.0011
    CHARGE:  cpu time    1.6388: real time    1.6697
    MIXING:  cpu time    0.0254: real time    0.0254
    --------------------------------------------
      LOOP:  cpu time   24.4050: real time   27.1444

 eigenvalue-minimisations  :  3984
 total energy-change (2. order) : 0.4087961E+02  (-0.1348203E+02)
 number of electron     765.9999975 magnetization 
 augmentation part       -9.9077620 magnetization 

 Broyden mixing:
  rms(total) = 0.10198E+01    rms(broyden)= 0.10198E+01
  rms(prec ) = 0.12948E+01
  weight for this iteration     100.00

 eigenvalues of (default mixing * dielectric matrix)
  average eigenvalue GAMMA=   1.2006
  2.0891  0.3122

 Free energy of the ion-electron system (eV)
  ---------------------------------------------------
  alpha Z        PSCENC =       505.22967617
  Ewald energy   TEWEN  =     88090.49616269
  -Hartree energ DENC   =   -102544.55707768
  -exchange      EXHF   =         0.00000000
  -V(xc)+E(xc)   XCENC  =     -6592.47122504
  PAW double counting   =     19509.16663051   -11460.59409734
  entropy T*S    EENTRO =        -0.05062218
  eigenvalues    EBANDS =     -2463.71387253
  atomic energy  EATOM  =     14019.20197576
  Solvation  Ediel_sol  =         0.00000000
  ---------------------------------------------------
  free energy    TOTEN  =      -937.29244964 eV

  energy without entropy =     -937.24182746  energy(sigma->0) =     -937.26713855


--------------------------------------------------------------------------------------------------------




----------------------------------------- Iteration    1(   8)  ---------------------------------------


    POTLOK:  cpu time    0.6826: real time    0.6843
    SETDIJ:  cpu time    0.0852: real time    0.0859
     EDDAV:  cpu time   21.6707: real time   24.2535
       DOS:  cpu time    0.0010: real time    0.0010
    CHARGE:  cpu time    1.6348: real time    1.6656
    MIXING:  cpu time    0.0260: real time    0.0260
    --------------------------------------------
      LOOP:  cpu time   24.1018: real time   26.7191

 eigenvalue-minimisations  :  3888
 total energy-change (2. order) :-0.2290462E+00  (-0.4760402E+01)
 number of electron     765.9999973 magnetization 
 augmentation part      -10.0711455 magnetization 

 Broyden mixing:
  rms(total) = 0.51637E+00    rms(broyden)= 0.51636E+00
  rms(prec ) = 0.94714E+00
  weight for this iteration     100.00

 eigenvalues of (default mixing * dielectric matrix)
  average eigenvalue GAMMA=   1.1441
  2.4725  0.6664  0.2935

 Free energy of the ion-electron system (eV)
  ---------------------------------------------------
  alpha Z        PSCENC =       505.22967617
  Ewald energy   TEWEN  =     88090.49616269
  -Hartree energ DENC   =   -102718.29393260
  -exchange      EXHF   =         0.00000000
  -V(xc)+E(xc)   XCENC  =     -6582.78700890
  PAW double counting   =     21143.57175211   -13095.95814761
  entropy T*S    EENTRO =        -0.04991173
  eigenvalues    EBANDS =     -2298.93206168
  atomic energy  EATOM  =     14019.20197576
  Solvation  Ediel_sol  =         0.00000000
  ---------------------------------------------------
  free energy    TOTEN  =      -937.52149579 eV

  energy without entropy =     -937.47158406  energy(sigma->0) =     -937.49653993


--------------------------------------------------------------------------------------------------------




----------------------------------------- Iteration    1(   9)  ---------------------------------------


    POTLOK:  cpu time    0.6815: real time    0.6830
    SETDIJ:  cpu time    0.0865: real time    0.0867
     EDDAV:  cpu time   23.5667: real time   26.3428
       DOS:  cpu time    0.0016: real time    0.0016
    CHARGE:  cpu time    1.6450: real time    1.6748
    MIXING:  cpu time    0.0277: real time    0.0277
    --------------------------------------------
      LOOP:  cpu time   26.0107: real time   28.8194

 eigenvalue-minimisations  :  4332
 total energy-change (2. order) :-0.5851605E+01  (-0.3980416E+00)
 number of electron     765.9999980 magnetization 
 augmentation part      -10.0806551 magnetization 

 Broyden mixing:
  rms(total) = 0.68044E+00    rms(broyden)= 0.68044E+00
  rms(prec ) = 0.24306E+01
  weight for this iteration     100.00

 eigenvalues of (default mixing * dielectric matrix)
  average eigenvalue GAMMA=   0.9121
  2.4964  0.6958  0.2916  0.1648

 Free energy of the ion-electron system (eV)
  ---------------------------------------------------
  alpha Z        PSCENC =       505.22967617
  Ewald energy   TEWEN  =     88090.49616269
  -Hartree energ DENC   =   -102836.44639250
  -exchange      EXHF   =         0.00000000
  -V(xc)+E(xc)   XCENC  =     -6577.75607230
  PAW double counting   =     21971.44868191   -13924.48974830
  entropy T*S    EENTRO =        -0.09053241
  eigenvalues    EBANDS =     -2190.96685216
  atomic energy  EATOM  =     14019.20197576
  Solvation  Ediel_sol  =         0.00000000
  ---------------------------------------------------
  free energy    TOTEN  =      -943.37310115 eV

  energy without entropy =     -943.28256874  energy(sigma->0) =     -943.32783494


--------------------------------------------------------------------------------------------------------




----------------------------------------- Iteration    1(  10)  ---------------------------------------


    POTLOK:  cpu time    0.6878: real time    0.6895
    SETDIJ:  cpu time    0.0868: real time    0.0870
     EDDAV:  cpu time   23.5360: real time   26.3660
       DOS:  cpu time    0.0013: real time    0.0013
    CHARGE:  cpu time    1.6357: real time    1.6667
    MIXING:  cpu time    0.0294: real time    0.0295
    --------------------------------------------
      LOOP:  cpu time   25.9787: real time   28.8429

 eigenvalue-minimisations  :  4332
 total energy-change (2. order) : 0.8795927E+01  (-0.4858617E+00)
 number of electron     765.9999975 magnetization 
 augmentation part      -10.1127823 magnetization 

 Broyden mixing:
  rms(total) = 0.11955E+00    rms(broyden)= 0.11951E+00
  rms(prec ) = 0.18746E+00
  weight for this iteration     100.00

 eigenvalues of (default mixing * dielectric matrix)
  average eigenvalue GAMMA=   1.0164
  2.4689  1.5076  0.6690  0.2961  0.1404

 Free energy of the ion-electron system (eV)
  ---------------------------------------------------
  alpha Z        PSCENC =       505.22967617
  Ewald energy   TEWEN  =     88090.49616269
  -Hartree energ DENC   =   -102898.76804895
  -exchange      EXHF   =         0.00000000
  -V(xc)+E(xc)   XCENC  =     -6574.79400040
  PAW double counting   =     22442.65679326   -14396.09972999
  entropy T*S    EENTRO =        -0.04960329
  eigenvalues    EBANDS =     -2122.45039930
  atomic energy  EATOM  =     14019.20197576
  Solvation  Ediel_sol  =         0.00000000
  ---------------------------------------------------
  free energy    TOTEN  =      -934.57717404 eV

  energy without entropy =     -934.52757076  energy(sigma->0) =     -934.55237240


--------------------------------------------------------------------------------------------------------




----------------------------------------- Iteration    1(  11)  ---------------------------------------


    POTLOK:  cpu time    0.6880: real time    0.6902
    SETDIJ:  cpu time    0.0869: real time    0.0869
     EDDAV:  cpu time   21.6138: real time   24.3027
       DOS:  cpu time    0.0010: real time    0.0010
    CHARGE:  cpu time    1.6463: real time    1.6778
    MIXING:  cpu time    0.0309: real time    0.0336
    --------------------------------------------
      LOOP:  cpu time   24.0685: real time   26.7949

 eigenvalue-minimisations  :  3876
 total energy-change (2. order) :-0.6042865E-01  (-0.3498885E+00)
 number of electron     765.9999976 magnetization 
 augmentation part      -10.1482500 magnetization 

 Broyden mixing:
  rms(total) = 0.79029E-01    rms(broyden)= 0.79007E-01
  rms(prec ) = 0.11839E+00
  weight for this iteration     100.00

 eigenvalues of (default mixing * dielectric matrix)
  average eigenvalue GAMMA=   0.9741
  2.3197  1.8627  0.6130  0.6130  0.2955  0.1409

 Free energy of the ion-electron system (eV)
  ---------------------------------------------------
  alpha Z        PSCENC =       505.22967617
  Ewald energy   TEWEN  =     88090.49616269
  -Hartree energ DENC   =   -102954.58148837
  -exchange      EXHF   =         0.00000000
  -V(xc)+E(xc)   XCENC  =     -6573.83850301
  PAW double counting   =     22481.70429376   -14435.41837355
  entropy T*S    EENTRO =        -0.04973975
  eigenvalues    EBANDS =     -2067.38160640
  atomic energy  EATOM  =     14019.20197576
  Solvation  Ediel_sol  =         0.00000000
  ---------------------------------------------------
  free energy    TOTEN  =      -934.63760270 eV

  energy without entropy =     -934.58786295  energy(sigma->0) =     -934.61273282


--------------------------------------------------------------------------------------------------------




----------------------------------------- Iteration    1(  12)  ---------------------------------------


    POTLOK:  cpu time    0.6909: real time    0.6931
    SETDIJ:  cpu time    0.0873: real time    0.0873
     EDDAV:  cpu time   23.5032: real time   26.2533
       DOS:  cpu time    0.0148: real time    0.0148
    CHARGE:  cpu time    1.6300: real time    1.6615
    MIXING:  cpu time    0.0317: real time    0.0317
    --------------------------------------------
      LOOP:  cpu time   25.9595: real time   28.7445

 eigenvalue-minimisations  :  4272
 total energy-change (2. order) : 0.1666172E-01  (-0.2840179E-01)
 number of electron     765.9999976 magnetization 
 augmentation part      -10.1486274 magnetization 

 Broyden mixing:
  rms(total) = 0.58458E-01    rms(broyden)= 0.58444E-01
  rms(prec ) = 0.82588E-01
  weight for this iteration     100.00

 eigenvalues of (default mixing * dielectric matrix)
  average eigenvalue GAMMA=   1.0459
  2.2397  2.2397  0.8735  0.8735  0.6585  0.2958  0.1409

 Free energy of the ion-electron system (eV)
  ---------------------------------------------------
  alpha Z        PSCENC =       505.22967617
  Ewald energy   TEWEN  =     88090.49616269
  -Hartree energ DENC   =   -102984.12527968
  -exchange      EXHF   =         0.00000000
  -V(xc)+E(xc)   XCENC  =     -6573.59551509
  PAW double counting   =     22462.86808797   -14416.75465414
  entropy T*S    EENTRO =        -0.05054931
  eigenvalues    EBANDS =     -2037.89084535
  atomic energy  EATOM  =     14019.20197576
  Solvation  Ediel_sol  =         0.00000000
  ---------------------------------------------------
  free energy    TOTEN  =      -934.62094098 eV

  energy without entropy =     -934.57039167  energy(sigma->0) =     -934.59566633


--------------------------------------------------------------------------------------------------------




----------------------------------------- Iteration    1(  13)  ---------------------------------------


    POTLOK:  cpu time    0.6841: real time    0.6853
    SETDIJ:  cpu time    0.0855: real time    0.0859
     EDDAV:  cpu time   21.4121: real time   24.0492
       DOS:  cpu time    0.0010: real time    0.0010
    CHARGE:  cpu time    1.6263: real time    1.6556
    MIXING:  cpu time    0.0327: real time    0.0327
    --------------------------------------------
      LOOP:  cpu time   23.8431: real time   26.5125

 eigenvalue-minimisations  :  3828
 total energy-change (2. order) : 0.3784387E-01  (-0.8495556E-02)
 number of electron     765.9999976 magnetization 
 augmentation part      -10.1478231 magnetization 

 Broyden mixing:
  rms(total) = 0.30199E-01    rms(broyden)= 0.30198E-01
  rms(prec ) = 0.51312E-01
  weight for this iteration     100.00

 eigenvalues of (default mixing * dielectric matrix)
  average eigenvalue GAMMA=   1.1478
  2.6648  2.6648  1.0537  1.0537  0.2958  0.1409  0.6542  0.6542

 Free energy of the ion-electron system (eV)
  ---------------------------------------------------
  alpha Z        PSCENC =       505.22967617
  Ewald energy   TEWEN  =     88090.49616269
  -Hartree energ DENC   =   -103027.48056879
  -exchange      EXHF   =         0.00000000
  -V(xc)+E(xc)   XCENC  =     -6573.04961054
  PAW double counting   =     22477.58399182   -14431.69768541
  entropy T*S    EENTRO =        -0.05068312
  eigenvalues    EBANDS =     -1994.81635569
  atomic energy  EATOM  =     14019.20197576
  Solvation  Ediel_sol  =         0.00000000
  ---------------------------------------------------
  free energy    TOTEN  =      -934.58309711 eV

  energy without entropy =     -934.53241399  energy(sigma->0) =     -934.55775555


--------------------------------------------------------------------------------------------------------




----------------------------------------- Iteration    1(  14)  ---------------------------------------


    POTLOK:  cpu time    0.6834: real time    0.6853
    SETDIJ:  cpu time    0.0867: real time    0.0867
     EDDAV:  cpu time   21.9525: real time   24.6127
       DOS:  cpu time    0.0017: real time    0.0017
    CHARGE:  cpu time    1.6267: real time    1.6579
    MIXING:  cpu time    0.0347: real time    0.0348
    --------------------------------------------
      LOOP:  cpu time   24.3873: real time   27.0818

 eigenvalue-minimisations  :  3972
 total energy-change (2. order) : 0.8896723E-02  (-0.4438874E-02)
 number of electron     765.9999976 magnetization 
 augmentation part      -10.1470483 magnetization 

 Broyden mixing:
  rms(total) = 0.24060E-01    rms(broyden)= 0.24056E-01
  rms(prec ) = 0.43242E-01
  weight for this iteration     100.00

 eigenvalues of (default mixing * dielectric matrix)
  average eigenvalue GAMMA=   1.1081
  2.7397  2.7397  1.0301  1.0301  0.1409  0.2958  0.6692  0.6639  0.6639

 Free energy of the ion-electron system (eV)
  ---------------------------------------------------
  alpha Z        PSCENC =       505.22967617
  Ewald energy   TEWEN  =     88090.49616269
  -Hartree energ DENC   =   -103060.65807744
  -exchange      EXHF   =         0.00000000
  -V(xc)+E(xc)   XCENC  =     -6572.61288963
  PAW double counting   =     22490.69530898   -14444.92928066
  entropy T*S    EENTRO =        -0.05160582
  eigenvalues    EBANDS =     -1961.94547045
  atomic energy  EATOM  =     14019.20197576
  Solvation  Ediel_sol  =         0.00000000
  ---------------------------------------------------
  free energy    TOTEN  =      -934.57420039 eV

  energy without entropy =     -934.52259457  energy(sigma->0) =     -934.54839748


--------------------------------------------------------------------------------------------------------




----------------------------------------- Iteration    1(  15)  ---------------------------------------


    POTLOK:  cpu time    0.6882: real time    0.6905
    SETDIJ:  cpu time    0.0862: real time    0.0864
     EDDAV:  cpu time   21.6325: real time   24.2884
       DOS:  cpu time    0.0145: real time    0.0145
    CHARGE:  cpu time    1.6423: real time    1.6723
    MIXING:  cpu time    0.0358: real time    0.0360
    --------------------------------------------
      LOOP:  cpu time   24.1011: real time   26.7909

 eigenvalue-minimisations  :  3888
 total energy-change (2. order) : 0.7823827E-03  (-0.1068125E-02)
 number of electron     765.9999976 magnetization 
 augmentation part      -10.1463663 magnetization 

 Broyden mixing:
  rms(total) = 0.17343E-01    rms(broyden)= 0.17342E-01
  rms(prec ) = 0.27929E-01
  weight for this iteration     100.00

 eigenvalues of (default mixing * dielectric matrix)
  average eigenvalue GAMMA=   1.2088
  3.1363  2.6555  1.7456  1.1190  1.1190  0.1409  0.2958  0.6987  0.6987  0.4791

 Free energy of the ion-electron system (eV)
  ---------------------------------------------------
  alpha Z        PSCENC =       505.22967617
  Ewald energy   TEWEN  =     88090.49616269
  -Hartree energ DENC   =   -103072.54277136
  -exchange      EXHF   =         0.00000000
  -V(xc)+E(xc)   XCENC  =     -6572.49957800
  PAW double counting   =     22491.36962345   -14445.60169030
  entropy T*S    EENTRO =        -0.05137532
  eigenvalues    EBANDS =     -1950.17544111
  atomic energy  EATOM  =     14019.20197576
  Solvation  Ediel_sol  =         0.00000000
  ---------------------------------------------------
  free energy    TOTEN  =      -934.57341800 eV

  energy without entropy =     -934.52204269  energy(sigma->0) =     -934.54773035


--------------------------------------------------------------------------------------------------------




----------------------------------------- Iteration    1(  16)  ---------------------------------------


    POTLOK:  cpu time    0.6954: real time    0.6972
    SETDIJ:  cpu time    0.0858: real time    0.0859
     EDDAV:  cpu time   21.4464: real time   24.0627
       DOS:  cpu time    0.0133: real time    0.0133
    CHARGE:  cpu time    1.6340: real time    1.6645
    MIXING:  cpu time    0.0380: real time    0.0381
    --------------------------------------------
      LOOP:  cpu time   23.9145: real time   26.5644

 eigenvalue-minimisations  :  3840
 total energy-change (2. order) :-0.1097390E-01  (-0.1376584E-02)
 number of electron     765.9999976 magnetization 
 augmentation part      -10.1445826 magnetization 

 Broyden mixing:
  rms(total) = 0.84908E-02    rms(broyden)= 0.84826E-02
  rms(prec ) = 0.12781E-01
  weight for this iteration     100.00

 eigenvalues of (default mixing * dielectric matrix)
  average eigenvalue GAMMA=   1.3213
  4.2175  2.5005  2.5005  1.0872  1.0872  0.1409  0.2958  0.8207  0.7049  0.7049
  0.4739

 Free energy of the ion-electron system (eV)
  ---------------------------------------------------
  alpha Z        PSCENC =       505.22967617
  Ewald energy   TEWEN  =     88090.49616269
  -Hartree energ DENC   =   -103092.42405074
  -exchange      EXHF   =         0.00000000
  -V(xc)+E(xc)   XCENC  =     -6572.41071554
  PAW double counting   =     22485.05414764   -14439.19699943
  entropy T*S    EENTRO =        -0.05161587
  eigenvalues    EBANDS =     -1930.48297258
  atomic energy  EATOM  =     14019.20197576
  Solvation  Ediel_sol  =         0.00000000
  ---------------------------------------------------
  free energy    TOTEN  =      -934.58439190 eV

  energy without entropy =     -934.53277603  energy(sigma->0) =     -934.55858397


--------------------------------------------------------------------------------------------------------




----------------------------------------- Iteration    1(  17)  ---------------------------------------


    POTLOK:  cpu time    0.6996: real time    0.7006
    SETDIJ:  cpu time    0.0868: real time    0.0869
     EDDAV:  cpu time   20.7115: real time   23.2423
       DOS:  cpu time    0.0020: real time    0.0020
    CHARGE:  cpu time    1.6355: real time    1.6635
    MIXING:  cpu time    0.0395: real time    0.0395
    --------------------------------------------
[...]
     11.69112     -8.59029     -8.26601        -0.020120     -0.011092      0.000875
     11.69112    -17.18057    -13.22561         0.006808      0.002275     -0.007183
     11.69112    -11.45372     -3.30640         0.010355      0.006114     -0.020458
     11.69112    -14.31714     -8.26601         0.000015      0.004865     -0.000431
     13.99306      0.00000      0.00000         0.001804      0.000505      0.005593
     13.99306     -2.86343     -4.95960        -0.002995     -0.008949      0.001997
     13.99306     -5.72686     -9.91921         0.004942      0.008619     -0.004179
     13.99306     -5.72686      0.00000        -0.001438     -0.002085     -0.004409
     13.99306     -8.59029     -4.95960        -0.081188      0.018603     -0.001317
     13.99306    -11.45372     -9.91921         0.004742      0.011677      0.019995
     13.99306    -11.45372      0.00000        -0.000223     -0.001240     -0.000046
     13.99306    -14.31714     -4.95960         0.008068     -0.004581     -0.002085
     13.99306    -17.18057     -9.91921        -0.003738      0.008578      0.006047
     16.34180     -2.86343     -1.65320        -0.006765     -0.006923      0.002167
     16.34180     -5.72686     -6.61281         0.020264      0.005307     -0.006094
     16.34180     -8.59029    -11.57241         0.015271      0.000625      0.000382
     16.34180     -8.59029     -1.65320         0.013316      0.003089     -0.000573
     16.34180    -11.45372     -6.61281        -0.885725     -0.489396     -0.002936
     16.34180    -14.31714    -11.57241         0.004246      0.003674      0.002340
     16.34180    -14.31714     -1.65320         0.003181      0.003155     -0.003481
     16.34180    -17.18057     -6.61281        -0.000708      0.010047     -0.001352
     16.34180    -20.04400    -11.57241        -0.002580     -0.006219     -0.002181
      2.36204     -7.15857     -4.13300        -0.001402     -0.010155     -0.007058
      2.36204    -10.02200     -9.09261        -0.019747      0.000000      0.012881
      2.36204    -12.88543    -14.05221        -0.003696     -0.001360     -0.004940
      2.36204    -12.88543     -4.13300        -0.001402      0.010155     -0.007058
      2.36204    -15.74886     -9.09261         0.009647     -0.012220     -0.008464
      2.36204    -18.61229    -14.05221         0.001421      0.000000      0.000614
      2.36204    -18.61229     -4.13300        -0.004198      0.000000     -0.000270
      2.36204    -21.47572     -9.09261         0.009647      0.012220     -0.008464
      2.36204    -24.33915    -14.05221        -0.003696      0.001360     -0.004940
      4.71078    -10.02200     -5.78621        -0.016270      0.000000     -0.000301
      4.71078    -12.88543    -10.74581         0.003835      0.008975      0.001234
      4.71078     -7.15857     -0.82660        -0.000924      0.002856      0.003727
      4.71078    -15.74886     -5.78621         0.000655     -0.002893      0.002574
      4.71078    -18.61229    -10.74581        -0.001635      0.000000      0.004872
      4.71078    -12.88543     -0.82660        -0.000924     -0.002856      0.003727
      4.71078     -4.29514     -5.78621         0.000655      0.002893      0.002574
      4.71078     -7.15857    -10.74581         0.003835     -0.008975      0.001234
      4.71078     -1.43171     -0.82660        -0.005269      0.000000     -0.000759
      7.01272    -12.88543     -7.43941         0.001460      0.012741      0.000479
      7.01272    -15.74886    -12.39901         0.002484     -0.005183      0.001977
      7.01272    -10.02200     -2.47980        -0.005468      0.000000     -0.013809
      7.01272    -18.61229     -7.43941        -0.000030      0.000000      0.004053
      7.01272    -21.47572    -12.39901         0.002484      0.005183      0.001977
      7.01272    -15.74886     -2.47980        -0.000023     -0.002088      0.003944
      7.01272     -7.15857     -7.43941         0.001460     -0.012741      0.000479
      7.01272    -10.02200    -12.39901         0.000041      0.000000      0.003255
      7.01272     -4.29514     -2.47980        -0.000023      0.002088      0.003944
      9.35192    -15.74886     -9.09261         0.001631     -0.006685      0.002031
      9.35192    -18.61229    -14.05221        -0.004543      0.000000     -0.000715
      9.35192    -12.88543     -4.13300         0.006582      0.019943     -0.012069
      9.35192    -21.47572     -9.09261         0.001631      0.006685      0.002031
      9.35192    -24.33915    -14.05221         0.005733     -0.001770     -0.001547
      9.35192    -18.61229     -4.13300         0.002063      0.000000      0.000872
      9.35192    -10.02200     -9.09261         0.018755      0.000000      0.006509
      9.35192    -12.88543    -14.05221         0.005733      0.001770     -0.001547
      9.35192     -7.15857     -4.13300         0.006582     -0.019943     -0.012069
     11.69112    -18.61229    -10.74581         0.003914      0.000000     -0.000090
     11.69112    -12.88543     -0.82660         0.008173      0.000521     -0.003260
     11.69112    -15.74886     -5.78621         0.000527     -0.008910      0.001039
     11.69112     -7.15857    -10.74581        -0.000719     -0.000971      0.001968
     11.69112     -1.43171     -0.82660         0.002406      0.000000      0.005180
     11.69112     -4.29514     -5.78621         0.000527      0.008910      0.001039
     11.69112    -12.88543    -10.74581        -0.000719      0.000971      0.001968
     11.69112     -7.15857     -0.82660         0.008173     -0.000521     -0.003260
     11.69112    -10.02200     -5.78621        -0.066426      0.000000     -0.000563
     13.99306    -21.47572    -12.39901        -0.002978     -0.003146      0.000905
     13.99306    -15.74886     -2.47980         0.001652      0.001861     -0.004506
     13.99306    -18.61229     -7.43941        -0.004587      0.000000     -0.001467
     13.99306    -10.02200    -12.39901         0.010192      0.000000     -0.002969
     13.99306     -4.29514     -2.47980         0.001652     -0.001861     -0.004506
     13.99306     -7.15857     -7.43941        -0.018036     -0.021863      0.022573
     13.99306    -15.74886    -12.39901        -0.002978      0.003146      0.000905
     13.99306    -10.02200     -2.47980         0.007293      0.000000     -0.002425
     13.99306    -12.88543     -7.43941        -0.018036      0.021863      0.022573
     16.34180    -24.33915    -14.05221        -0.002750     -0.003425      0.002575
     16.34180    -18.61229     -4.13300        -0.003982      0.000000     -0.003373
     16.34180    -21.47572     -9.09261         0.006799     -0.003317      0.003346
     16.34180    -12.88543    -14.05221        -0.002750      0.003425      0.002575
     16.34180     -7.15857     -4.13300         0.023252     -0.009123     -0.000540
     16.34180    -10.02200     -9.09261        -0.150019      0.000000     -0.062552
     16.34180    -18.61229    -14.05221         0.004112      0.000000     -0.007570
     16.34180    -12.88543     -4.13300         0.023252      0.009123     -0.000540
     16.34180    -15.74886     -9.09261         0.006799      0.003317      0.003346
      2.36204     -8.59029     -6.61281        -0.034038     -0.008018      0.002044
      2.36204    -11.45372    -11.57241         0.000784     -0.000852     -0.000873
      2.36204     -5.72686     -1.65320        -0.001902      0.002338      0.004672
      2.36204    -14.31714     -6.61281         0.003789      0.005993      0.008636
      2.36204    -17.18057    -11.57241        -0.006738      0.004043      0.003015
      2.36204    -11.45372     -1.65320         0.007351     -0.007008      0.000425
      2.36204    -20.04400     -6.61281        -0.001004      0.006570      0.002696
      2.36204    -22.90743    -11.57241         0.003444      0.000998     -0.006318
      2.36204    -17.18057     -1.65320        -0.005163      0.001645      0.000112
      4.71078    -11.45372     -8.26601        -0.013921      0.001331      0.006723
      4.71078    -14.31714    -13.22561        -0.005173     -0.002612     -0.004316
      4.71078     -8.59029     -3.30640        -0.003732     -0.005889     -0.012364
      4.71078    -17.18057     -8.26601        -0.001194     -0.010393     -0.001012
      4.71078    -20.04400    -13.22561        -0.008169     -0.001573      0.001208
      4.71078    -14.31714     -3.30640         0.003347     -0.002288      0.000172
      4.71078     -5.72686     -8.26601         0.009191     -0.010982      0.006941
      4.71078     -8.59029    -13.22561        -0.002413     -0.000238     -0.000154
      4.71078     -2.86343     -3.30640        -0.007157      0.000860      0.002287
      7.01272    -14.31714     -9.91921         0.003486      0.001361     -0.000522
      7.01272     -8.59029      0.00000         0.001496     -0.001380      0.003166
      7.01272    -11.45372     -4.95960         0.010834      0.006358     -0.004280
      7.01272    -20.04400     -9.91921        -0.003683     -0.002684     -0.005947
      7.01272    -14.31714      0.00000        -0.001593      0.000618      0.001941
      7.01272    -17.18057     -4.95960         0.001280     -0.004509     -0.002170
      7.01272     -8.59029     -9.91921         0.002776     -0.004530      0.015236
      7.01272     -2.86343      0.00000        -0.001536      0.000178     -0.006557
      7.01272     -5.72686     -4.95960         0.001265     -0.012690     -0.004940
      9.35192    -17.18057    -11.57241        -0.002273      0.003955     -0.000448
      9.35192    -11.45372     -1.65320        -0.005955     -0.002232     -0.002527
      9.35192    -14.31714     -6.61281        -0.000969      0.017081     -0.003827
      9.35192    -22.90743    -11.57241         0.004783     -0.000509     -0.002329
      9.35192    -17.18057     -1.65320         0.001627      0.004397     -0.001245
      9.35192    -20.04400     -6.61281         0.008240      0.000810     -0.000816
      9.35192    -11.45372    -11.57241        -0.005355     -0.003225      0.005620
      9.35192     -5.72686     -1.65320         0.004324      0.001553      0.002633
      9.35192     -8.59029     -6.61281         0.021606      0.010177      0.001654
     11.69112    -20.04400    -13.22561         0.006808     -0.002275     -0.007183
     11.69112    -14.31714     -3.30640        -0.005480     -0.003541      0.003709
     11.69112    -17.18057     -8.26601         0.002278      0.009266      0.001295
     11.69112     -8.59029    -13.22561         0.004083      0.002145      0.004698
     11.69112     -2.86343     -3.30640         0.002957     -0.009169     -0.004102
     11.69112     -5.72686     -8.26601         0.000015     -0.004865     -0.000431
     11.69112    -14.31714    -13.22561        -0.000822      0.005405      0.004430
     11.69112     -8.59029     -3.30640         0.010355     -0.006114     -0.020458
     11.69112    -11.45372     -8.26601        -0.020120      0.011092      0.000875
     13.99306    -14.31714      0.00000        -0.001438      0.002085     -0.004409
     13.99306    -17.18057     -4.95960        -0.002995      0.008949      0.001997
     13.99306    -20.04400     -9.91921        -0.003738     -0.008578      0.006047
     13.99306     -2.86343      0.00000         0.001804     -0.000505      0.005593
     13.99306     -5.72686     -4.95960         0.008068      0.004581     -0.002085
     13.99306     -8.59029     -9.91921         0.004742     -0.011677      0.019995
     13.99306     -8.59029      0.00000        -0.000223      0.001240     -0.000046
     13.99306    -11.45372     -4.95960        -0.081188     -0.018603     -0.001317
     13.99306    -14.31714     -9.91921         0.004942     -0.008619     -0.004179
     16.34180    -17.18057     -1.65320        -0.006765      0.006923      0.002167
     16.34180    -20.04400     -6.61281        -0.000708     -0.010047     -0.001352
     16.34180    -22.90743    -11.57241         0.004246     -0.003674      0.002340
     16.34180     -5.72686     -1.65320         0.003181     -0.003155     -0.003481
     16.34180     -8.59029     -6.61281        -0.885725      0.489396     -0.002936
     16.34180    -11.45372    -11.57241         0.015271     -0.000625      0.000382
     16.34180    -11.45372     -1.65320         0.013316     -0.003089     -0.000573
     16.34180    -14.31714     -6.61281         0.020264     -0.005307     -0.006094
     16.34180    -17.18057    -11.57241        -0.002580      0.006219     -0.002181
      2.36204    -10.02200     -4.13300        -0.018106      0.000000     -0.019477
      2.36204    -12.88543     -9.09261         0.002317      0.020554      0.003661
      2.36204    -15.74886    -14.05221        -0.004002      0.003402      0.002176
      2.36204    -15.74886     -4.13300         0.003079     -0.006267      0.004538
      2.36204    -18.61229     -9.09261        -0.006752      0.000000     -0.002329
      2.36204    -21.47572    -14.05221        -0.004002     -0.003402      0.002176
      2.36204     -4.29514     -4.13300         0.003079      0.006267      0.004538
      2.36204     -7.15857     -9.09261         0.002317     -0.020554      0.003661
      2.36204    -10.02200    -14.05221        -0.001563      0.000000     -0.001088
      4.71078    -12.88543     -5.78621        -0.007083      0.015582     -0.003976
      4.71078    -15.74886    -10.74581        -0.002192     -0.010796     -0.004396
      4.71078    -10.02200     -0.82660         0.009471      0.000000      0.001095
      4.71078    -18.61229     -5.78621        -0.003454      0.000000     -0.002459
      4.71078    -21.47572    -10.74581        -0.002192      0.010796     -0.004396
      4.71078    -15.74886     -0.82660        -0.003513     -0.002756      0.000277
      4.71078     -7.15857     -5.78621        -0.007083     -0.015582     -0.003976
      4.71078    -10.02200    -10.74581         0.001941      0.000000      0.008616
      4.71078     -4.29514     -0.82660        -0.003513      0.002756      0.000277
      7.01272    -15.74886     -7.43941        -0.001575     -0.001379     -0.002417
      7.01272    -18.61229    -12.39901         0.007865      0.000000     -0.002765
      7.01272    -12.88543     -2.47980        -0.000146      0.003641     -0.006196
      7.01272    -21.47571     -7.43941        -0.001575      0.001379     -0.002417
      7.01272    -24.33914    -12.39901        -0.000754      0.001045      0.000465
      7.01272    -18.61228     -2.47980         0.002439      0.000000     -0.000647
      7.01272    -10.02200     -7.43941         0.022242      0.000000     -0.002270
      7.01272    -12.88543    -12.39901        -0.000754     -0.001045      0.000465
      7.01272     -7.15857     -2.47980        -0.000146     -0.003641     -0.006196
      9.35192    -18.61229     -9.09261         0.004747      0.000000      0.004134
      9.35192    -21.47572    -14.05221         0.000746     -0.000255     -0.001130
      9.35192    -15.74886     -4.13300         0.000270     -0.008219      0.002433
      9.35192     -7.15857     -9.09261         0.000380     -0.013584      0.011991
      9.35192    -10.02200    -14.05221         0.003218      0.000000     -0.001565
      9.35192     -4.29514     -4.13300         0.000270      0.008219      0.002433
      9.35192    -12.88543     -9.09261         0.000380      0.013584      0.011991
      9.35192    -15.74886    -14.05221         0.000746      0.000255     -0.001130
      9.35192    -10.02200     -4.13300         0.019227      0.000000     -0.008129
     11.69112    -21.47572    -10.74581         0.006378     -0.004062      0.004459
     11.69112    -15.74886     -0.82660         0.002522      0.002290     -0.002377
     11.69112    -18.61229     -5.78621        -0.002591      0.000000      0.000739
     11.69112    -10.02200    -10.74581        -0.000925      0.000000      0.011779
     11.69112     -4.29514     -0.82660         0.002522     -0.002290     -0.002377
     11.69112     -7.15857     -5.78621         0.003281     -0.010241      0.002524
     11.69112    -15.74886    -10.74581         0.006378      0.004062      0.004459
     11.69112    -10.02200     -0.82660         0.003535      0.000000      0.002329
     11.69112    -12.88543     -5.78621         0.003281      0.010241      0.002524
     13.99306    -24.33914    -12.39901         0.006407     -0.000947     -0.000904
     13.99306    -18.61228     -2.47980        -0.007075      0.000000     -0.000787
     13.99306    -21.47571     -7.43941         0.007854      0.006401      0.000369
     13.99306    -12.88543    -12.39901         0.006407      0.000947     -0.000904
     13.99306     -7.15857     -2.47980         0.005364      0.000297      0.007361
     13.99306    -10.02200     -7.43941        -0.088853      0.000000      0.010066
     13.99306    -18.61229    -12.39901        -0.004674      0.000000     -0.001532
     13.99306    -12.88543     -2.47980         0.005364     -0.000297      0.007361
     13.99306    -15.74886     -7.43941         0.007854     -0.006401      0.000369
     16.34180    -10.02200    -14.05221         0.002756      0.000000      0.005550
     16.34180     -4.29514     -4.13300         0.005745     -0.004974     -0.000871
     16.34180     -7.15857     -9.09261         0.008778     -0.009281      0.009185
     16.34180    -15.74886    -14.05221         0.000179     -0.002912     -0.001144
     16.34180    -10.02200     -4.13300        -0.180757      0.000000      0.055853
     16.34180    -12.88543     -9.09261         0.008778      0.009281      0.009185
     16.34180    -21.47572    -14.05221         0.000179      0.002912     -0.001144
     16.34180    -15.74886     -4.13300         0.005745      0.004974     -0.000871
     16.34180    -18.61229     -9.09261        -0.002200      0.000000      0.003401
     18.54000    -10.02200     -7.16000         1.140974     -0.000000     -6.931300
     18.54000    -10.02200     -6.06300         1.042241     -0.000000      6.862905
 -----------------------------------------------------------------------------------
    total drift:                                0.037331      0.000163     -0.007192


--------------------------------------------------------------------------------------------------------



  FREE ENERGIE OF THE ION-ELECTRON SYSTEM (eV)
  ---------------------------------------------------
  free  energy   TOTEN  =      -934.60110812 eV

  energy  without entropy=     -934.54924754  energy(sigma->0) =     -934.57517783
 


--------------------------------------------------------------------------------------------------------


    POTLOK:  cpu time    0.7932: real time    0.8108


--------------------------------------------------------------------------------------------------------


     LOOP+:  cpu time  686.3275: real time  764.3222
    4ORBIT:  cpu time    0.0000: real time    0.0000

 total amount of memory used by VASP MPI-rank0   652090. kBytes
=======================================================================

   base      :      30000. kBytes
   nonlr-proj:      89869. kBytes
   fftplans  :      40601. kBytes
   grid      :      95147. kBytes
   one-center:       3950. kBytes
   wavefun   :     392523. kBytes
 
  
  
 General timing and accounting informations for this job:
 ========================================================
  
                  Total CPU time used (sec):      700.696
                            User time (sec):      598.810
                          System time (sec):      101.887
                         Elapsed time (sec):      782.330
  
                   Maximum memory used (kb):     1003360.
                   Average memory used (kb):           0.
  
                          Minor page faults:     26808873
                          Major page faults:           49
                 Voluntary context switches:        18190
