 257 257   0   0
  0.1653678E+02  0.1619800E-08  0.1619800E-08  0.1619800E-08  0.2000000E-15
  1.000000000000000E-004
  CAR 
 NiAl                                    
     10.25896580    -10.93155365  301      6.81434777      1.00000000
    -10.932  0.0000E+00  0.0000E+00
    -10.861  0.0000E+00  0.0000E+00
    -10.790  0.0000E+00  0.0000E+00
    -10.720  0.0000E+00  0.0000E+00
    -10.649  0.0000E+00  0.0000E+00
    -10.578  0.0000E+00  0.0000E+00
    -10.508  0.0000E+00  0.0000E+00
    -10.437  0.0000E+00  0.0000E+00
    -10.366  0.0000E+00  0.0000E+00
    -10.296  0.0000E+00  0.0000E+00
    -10.225  0.1315E-12  0.9289E-14
    -10.155  0.4890E-07  0.3454E-08
    -10.084  0.3809E-03  0.2691E-04
    -10.013  0.7161E-01  0.5085E-02
     -9.943  0.4703E+00  0.3830E-01
     -9.872  0.1633E+00  0.4984E-01
     -9.801  0.2283E-02  0.5000E-01
     -9.731  0.8280E-06  0.5000E-01
     -9.660  0.6454E-11  0.5000E-01
     -9.589  0.0000E+00  0.5000E-01
     -9.519  0.0000E+00  0.5000E-01
     -9.448  0.0000E+00  0.5000E-01
     -9.378  0.0000E+00  0.5000E-01
     -9.307  0.0000E+00  0.5000E-01
     -9.236  0.0000E+00  0.5000E-01
     -9.166  0.0000E+00  0.5000E-01
     -9.095  0.0000E+00  0.5000E-01
     -9.024  0.0000E+00  0.5000E-01
     -8.954  0.0000E+00  0.5000E-01
     -8.883  0.0000E+00  0.5000E-01
     -8.813  0.0000E+00  0.5000E-01
     -8.742  0.0000E+00  0.5000E-01
     -8.671  0.0000E+00  0.5000E-01
     -8.601  0.0000E+00  0.5000E-01
     -8.530  0.0000E+00  0.5000E-01
     -8.459  0.0000E+00  0.5000E-01
     -8.389  0.0000E+00  0.5000E-01
     -8.318  0.0000E+00  0.5000E-01
     -8.247  0.0000E+00  0.5000E-01
     -8.177  0.0000E+00  0.5000E-01
     -8.106  0.0000E+00  0.5000E-01
     -8.036  0.0000E+00  0.5000E-01
     -7.965  0.0000E+00  0.5000E-01
     -7.894  0.0000E+00  0.5000E-01
     -7.824  0.0000E+00  0.5000E-01
     -7.753  0.0000E+00  0.5000E-01
     -7.682  0.0000E+00  0.5000E-01
     -7.612  0.0000E+00  0.5000E-01
     -7.541  0.0000E+00  0.5000E-01
     -7.470  0.0000E+00  0.5000E-01
     -7.400  0.0000E+00  0.5000E-01
     -7.329  0.0000E+00  0.5000E-01
     -7.259  0.0000E+00  0.5000E-01
     -7.188  0.0000E+00  0.5000E-01
     -7.117  0.0000E+00  0.5000E-01
     -7.047  0.0000E+00  0.5000E-01
     -6.976  0.0000E+00  0.5000E-01
     -6.905  0.0000E+00  0.5000E-01
     -6.835  0.0000E+00  0.5000E-01
     -6.764  0.0000E+00  0.5000E-01
     -6.693  0.0000E+00  0.5000E-01
     -6.623  0.0000E+00  0.5000E-01
     -6.552  0.0000E+00  0.5000E-01
     -6.482  0.0000E+00  0.5000E-01
     -6.411  0.0000E+00  0.5000E-01
     -6.340  0.0000E+00  0.5000E-01
     -6.270  0.0000E+00  0.5000E-01
     -6.199  0.0000E+00  0.5000E-01
     -6.128  0.0000E+00  0.5000E-01
     -6.058  0.0000E+00  0.5000E-01
     -5.987  0.0000E+00  0.5000E-01
     -5.916  0.0000E+00  0.5000E-01
     -5.846  0.0000E+00  0.5000E-01
     -5.775  0.0000E+00  0.5000E-01
     -5.705  0.0000E+00  0.5000E-01
     -5.634  0.0000E+00  0.5000E-01
     -5.563  0.0000E+00  0.5000E-01
     -5.493  0.0000E+00  0.5000E-01
     -5.422  0.0000E+00  0.5000E-01
     -5.351  0.0000E+00  0.5000E-01
     -5.281  0.0000E+00  0.5000E-01
     -5.210  0.0000E+00  0.5000E-01
     -5.139  0.0000E+00  0.5000E-01
     -5.069  0.0000E+00  0.5000E-01
     -4.998  0.0000E+00  0.5000E-01
     -4.928  0.0000E+00  0.5000E-01
     -4.857  0.0000E+00  0.5000E-01
     -4.786  0.0000E+00  0.5000E-01
     -4.716  0.0000E+00  0.5000E-01
     -4.645  0.1950E-13  0.5000E-01
     -4.574  0.6933E-08  0.5000E-01
     -4.504  0.5166E-04  0.5000E-01
     -4.433  0.9317E-02  0.5066E-01
     -4.362  0.5994E-01  0.5490E-01
     -4.292  0.9477E-01  0.6159E-01
     -4.221  0.3364E+00  0.8535E-01
     -4.151  0.3156E+00  0.1076E+00
     -4.080  0.6159E+00  0.1511E+00
     -4.009  0.3976E+00  0.1792E+00
     -3.939  0.4187E+00  0.2088E+00
     -3.868  0.2084E+00  0.2235E+00
     -3.797  0.3617E+00  0.2491E+00
     -3.727  0.6551E+00  0.2954E+00
     -3.656  0.1194E+01  0.3797E+00
     -3.586  0.8557E+00  0.4401E+00
     -3.515  0.1250E+01  0.5285E+00
     -3.444  0.2770E+00  0.5480E+00
     -3.374  0.1265E+00  0.5570E+00
     -3.303  0.3513E+00  0.5818E+00
     -3.232  0.5953E+00  0.6238E+00
     -3.162  0.9757E+00  0.6927E+00
     -3.091  0.1415E+01  0.7927E+00
     -3.020  0.9546E+00  0.8601E+00
     -2.950  0.1281E+01  0.9506E+00
     -2.879  0.1030E+01  0.1023E+01
     -2.809  0.1177E+01  0.1106E+01
     -2.738  0.3894E+00  0.1134E+01
     -2.667  0.4015E+00  0.1162E+01
     -2.597  0.9003E+00  0.1226E+01
     -2.526  0.1297E+01  0.1318E+01
     -2.455  0.1981E+01  0.1457E+01
     -2.385  0.1888E+01  0.1591E+01
     -2.314  0.1337E+00  0.1600E+01
     -2.243  0.1460E+00  0.1611E+01
     -2.173  0.4838E+00  0.1645E+01
     -2.102  0.7418E+00  0.1697E+01
     -2.032  0.1861E+01  0.1829E+01
     -1.961  0.1907E+01  0.1963E+01
     -1.890  0.1672E+01  0.2081E+01
     -1.820  0.1384E+01  0.2179E+01
     -1.749  0.1237E+01  0.2266E+01
     -1.678  0.1089E+01  0.2343E+01
     -1.608  0.1409E+01  0.2443E+01
     -1.537  0.1042E+01  0.2516E+01
     -1.466  0.2123E+01  0.2666E+01
     -1.396  0.1859E+01  0.2798E+01
     -1.325  0.9652E+00  0.2866E+01
     -1.255  0.6302E+00  0.2910E+01
     -1.184  0.5297E+00  0.2948E+01
     -1.113  0.3901E+00  0.2975E+01
     -1.043  0.1544E+01  0.3084E+01
     -0.972  0.1636E+01  0.3200E+01
     -0.901  0.1297E+01  0.3292E+01
     -0.831  0.1000E+01  0.3362E+01
     -0.760  0.3731E+01  0.3626E+01
     -0.689  0.1669E+01  0.3744E+01
     -0.619  0.1983E+01  0.3884E+01
     -0.548  0.9526E+00  0.3951E+01
     -0.478  0.3782E+00  0.3978E+01
     -0.407  0.1339E+01  0.4072E+01
     -0.336  0.3748E+01  0.4337E+01
     -0.266  0.1744E+01  0.4460E+01
     -0.195  0.2325E+01  0.4624E+01
     -0.124  0.4537E+00  0.4656E+01
     -0.054  0.5298E+00  0.4694E+01
      0.017  0.1017E+01  0.4766E+01
      0.088  0.1059E+01  0.4840E+01
      0.158  0.1516E+01  0.4948E+01
      0.229  0.2180E+01  0.5102E+01
      0.299  0.1505E+01  0.5208E+01
      0.370  0.1888E+01  0.5341E+01
      0.441  0.2267E+01  0.5501E+01
      0.511  0.2727E+01  0.5694E+01
      0.582  0.1586E+01  0.5806E+01
      0.653  0.1513E+01  0.5913E+01
      0.723  0.8890E+00  0.5976E+01
      0.794  0.9400E+00  0.6042E+01
      0.865  0.3877E+01  0.6316E+01
      0.935  0.2270E+01  0.6476E+01
      1.006  0.7923E-01  0.6482E+01
      1.076  0.3090E+00  0.6504E+01
      1.147  0.1785E+01  0.6630E+01
      1.218  0.2003E+01  0.6771E+01
      1.288  0.5090E+01  0.7131E+01
      1.359  0.1911E+01  0.7266E+01
      1.430  0.2458E+01  0.7439E+01
      1.500  0.1206E+01  0.7525E+01
      1.571  0.1709E+01  0.7645E+01
      1.641  0.1490E+01  0.7751E+01
      1.712  0.1663E+01  0.7868E+01
      1.783  0.1943E+01  0.8005E+01
      1.853  0.3397E+01  0.8245E+01
      1.924  0.1838E+01  0.8375E+01
      1.995  0.2150E+01  0.8527E+01
      2.065  0.9475E+00  0.8594E+01
      2.136  0.1045E+01  0.8668E+01
      2.207  0.1913E+00  0.8681E+01
      2.277  0.3295E+00  0.8705E+01
      2.348  0.2972E+01  0.8914E+01
      2.418  0.3294E+01  0.9147E+01
      2.489  0.2271E+01  0.9308E+01
      2.560  0.2214E+01  0.9464E+01
      2.630  0.3888E+01  0.9739E+01
      2.701  0.1365E+01  0.9835E+01
      2.772  0.1820E+01  0.9964E+01
      2.842  0.2288E+01  0.1013E+02
      2.913  0.4548E+01  0.1045E+02
      2.984  0.3486E+01  0.1069E+02
      3.054  0.1866E+01  0.1082E+02
      3.125  0.1553E+01  0.1093E+02
      3.195  0.2626E+01  0.1112E+02
      3.266  0.6051E+00  0.1116E+02
      3.337  0.6546E+00  0.1121E+02
      3.407  0.3229E+01  0.1144E+02
      3.478  0.2505E+01  0.1161E+02
      3.549  0.1416E+01  0.1171E+02
      3.619  0.1676E+01  0.1183E+02
      3.690  0.4046E+01  0.1212E+02
      3.761  0.1935E+01  0.1225E+02
      3.831  0.1380E+00  0.1226E+02
      3.902  0.1633E+01  0.1238E+02
      3.972  0.6592E+01  0.1285E+02
      4.043  0.2778E+01  0.1304E+02
      4.114  0.8907E+00  0.1310E+02
      4.184  0.2134E+01  0.1326E+02
      4.255  0.2328E+01  0.1342E+02
      4.326  0.1064E+01  0.1349E+02
      4.396  0.1506E+01  0.1360E+02
      4.467  0.4906E+01  0.1395E+02
      4.538  0.3810E+01  0.1422E+02
      4.608  0.9899E+00  0.1429E+02
      4.679  0.1992E+01  0.1443E+02
      4.749  0.2867E+01  0.1463E+02
      4.820  0.1687E+01  0.1475E+02
      4.891  0.1699E+01  0.1487E+02
      4.961  0.2722E+01  0.1506E+02
      5.032  0.3061E+01  0.1528E+02
      5.103  0.2427E+01  0.1545E+02
      5.173  0.3248E+01  0.1568E+02
      5.244  0.1933E+01  0.1581E+02
      5.315  0.1003E+01  0.1589E+02
      5.385  0.1352E+01  0.1598E+02
      5.456  0.1547E+01  0.1609E+02
      5.526  0.2230E+01  0.1625E+02
      5.597  0.2985E+01  0.1646E+02
      5.668  0.3954E+01  0.1674E+02
      5.738  0.2918E+01  0.1694E+02
      5.809  0.4095E+01  0.1723E+02
      5.880  0.2006E+01  0.1738E+02
      5.950  0.2485E+01  0.1755E+02
      6.021  0.2264E+01  0.1771E+02
      6.091  0.2747E+01  0.1790E+02
      6.162  0.3666E+01  0.1816E+02
      6.233  0.2415E+01  0.1833E+02
      6.303  0.1697E+01  0.1845E+02
      6.374  0.2108E+01  0.1860E+02
      6.445  0.1526E+01  0.1871E+02
      6.515  0.9617E+00  0.1878E+02
      6.586  0.2576E+01  0.1896E+02
      6.657  0.1935E+01  0.1910E+02
      6.727  0.9463E+00  0.1916E+02
      6.798  0.1493E+01  0.1927E+02
      6.868  0.3424E+01  0.1951E+02
      6.939  0.2873E+01  0.1971E+02
      7.010  0.3192E+01  0.1994E+02
      7.080  0.4106E+01  0.2023E+02
      7.151  0.5153E+01  0.2059E+02
      7.222  0.2497E+01  0.2077E+02
      7.292  0.2089E+01  0.2092E+02
      7.363  0.2505E+01  0.2109E+02
      7.434  0.1831E+01  0.2122E+02
      7.504  0.1832E+01  0.2135E+02
      7.575  0.5771E+01  0.2176E+02
      7.645  0.5211E+01  0.2213E+02
      7.716  0.1909E+01  0.2226E+02
      7.787  0.3188E+01  0.2249E+02
      7.857  0.3751E+01  0.2275E+02
      7.928  0.2671E+01  0.2294E+02
      7.999  0.8543E+00  0.2300E+02
      8.069  0.8839E+00  0.2307E+02
      8.140  0.2574E+01  0.2325E+02
      8.211  0.4031E+01  0.2353E+02
      8.281  0.2978E+01  0.2374E+02
      8.352  0.9075E+00  0.2381E+02
      8.422  0.9202E+00  0.2387E+02
      8.493  0.1699E+01  0.2399E+02
      8.564  0.4153E+01  0.2429E+02
      8.634  0.3397E+01  0.2453E+02
      8.705  0.2087E+01  0.2467E+02
      8.776  0.2543E+01  0.2485E+02
      8.846  0.2467E+01  0.2503E+02
      8.917  0.2286E+01  0.2519E+02
      8.988  0.3356E+01  0.2542E+02
      9.058  0.2504E+01  0.2560E+02
      9.129  0.2061E+01  0.2575E+02
      9.199  0.4847E+00  0.2578E+02
      9.270  0.1418E+00  0.2579E+02
      9.341  0.1108E+00  0.2580E+02
      9.411  0.9986E-02  0.2580E+02
      9.482  0.4825E-04  0.2580E+02
      9.553  0.6138E-08  0.2580E+02
      9.623  0.1650E-13  0.2580E+02
      9.694  0.0000E+00  0.2580E+02
      9.765  0.0000E+00  0.2580E+02
      9.835  0.0000E+00  0.2580E+02
      9.906  0.0000E+00  0.2580E+02
      9.976  0.0000E+00  0.2580E+02
     10.047  0.0000E+00  0.2580E+02
     10.118  0.0000E+00  0.2580E+02
     10.188  0.0000E+00  0.2580E+02
     10.259  0.0000E+00  0.2580E+02
