         265
 Energy:  -969.35124770000004     
 X   0.00000000       0.00000000       0.00000000    
 X   16.1980000       0.00000000       0.00000000    
 X   0.00000000       16.1980000       0.00000000    
 X   0.00000000       0.00000000       16.1980000    
 X   16.1980000       16.1980000       0.00000000    
 X   16.1980000       0.00000000       16.1980000    
 X   0.00000000       16.1980000       16.1980000    
 X   16.1980000       16.1980000       16.1980000    
 Al   0.00000000       0.00000000       0.00000000    
 Al   0.00000000       2.02474999       2.02474999    
 Al   2.02474999       0.00000000       2.02474999    
 Al   2.02474999       2.02474999       0.00000000    
 Al   0.00000000       0.00000000       4.04949999    
 Al   0.00000000       2.02474999       6.07425022    
 Al   2.02474999       0.00000000       6.07425022    
 Al   2.02474999       2.02474999       4.04949999    
 Al   0.00000000       0.00000000       8.09899998    
 Al   0.00000000       2.02474999       10.1237497    
 Al   2.02474999       0.00000000       10.1237497    
 Al   2.02474999       2.02474999       8.09899998    
 Al   0.00000000       0.00000000       12.1485004    
 Al   0.00000000       2.02474999       14.1732502    
 Al   2.02474999       0.00000000       14.1732502    
 Al   2.02474999       2.02474999       12.1485004    
 Al   0.00000000       4.04949999       0.00000000    
 Al   0.00000000       6.07425022       2.02474999    
 Al   2.02474999       4.04949999       2.02474999    
 Al   2.02474999       6.07425022       0.00000000    
 Al   0.00000000       4.04949999       4.04949999    
 Al   0.00000000       6.07425022       6.07425022    
 Al   2.02474999       4.04949999       6.07425022    
 Al   2.02474999       6.07425022       4.04949999    
 Al   0.00000000       4.04949999       8.09899998    
 Al   0.00000000       6.07425022       10.1237497    
 Al   2.02474999       4.04949999       10.1237497    
 Al   2.02474999       6.07425022       8.09899998    
 Al   0.00000000       4.04949999       12.1485004    
 Al   0.00000000       6.07425022       14.1732502    
 Al   2.02474999       4.04949999       14.1732502    
 Al   2.02474999       6.07425022       12.1485004    
 Al   0.00000000       8.09899998       0.00000000    
 Al   0.00000000       10.1237497       2.02474999    
 Al   2.02474999       8.09899998       2.02474999    
 Al   2.02474999       10.1237497       0.00000000    
 Al   0.00000000       8.09899998       4.04949999    
 Al   0.00000000       10.1237497       6.07425022    
 Al   2.02474999       8.09899998       6.07425022    
 Al   2.02474999       10.1237497       4.04949999    
 Al   0.00000000       8.09899998       8.09899998    
 Al   0.00000000       10.1237497       10.1237497    
 Al   2.02474999       8.09899998       10.1237497    
 Al   2.02474999       10.1237497       8.09899998    
 Al   0.00000000       8.09899998       12.1485004    
 Al   0.00000000       10.1237497       14.1732502    
 Al   2.02474999       8.09899998       14.1732502    
 Al   2.02474999       10.1237497       12.1485004    
 Al   0.00000000       12.1485004       0.00000000    
 Al   0.00000000       14.1732502       2.02474999    
 Al   2.02474999       12.1485004       2.02474999    
 Al   2.02474999       14.1732502       0.00000000    
 Al   0.00000000       12.1485004       4.04949999    
 Al   0.00000000       14.1732502       6.07425022    
 Al   2.02474999       12.1485004       6.07425022    
 Al   2.02474999       14.1732502       4.04949999    
 Al   0.00000000       12.1485004       8.09899998    
 Al   0.00000000       14.1732502       10.1237497    
 Al   2.02474999       12.1485004       10.1237497    
 Al   2.02474999       14.1732502       8.09899998    
 Al   0.00000000       12.1485004       12.1485004    
 Al   0.00000000       14.1732502       14.1732502    
 Al   2.02474999       12.1485004       14.1732502    
 Al   2.02474999       14.1732502       12.1485004    
 Al   4.04949999       0.00000000       0.00000000    
 Al   4.04949999       2.02474999       2.02474999    
 Al   6.07425022       0.00000000       2.02474999    
 Al   6.07425022       2.02474999       0.00000000    
 Al   4.04949999       0.00000000       4.04949999    
 Al   4.04949999       2.02474999       6.07425022    
 Al   6.07425022       0.00000000       6.07425022    
 Al   6.07425022       2.02474999       4.04949999    
 Al   4.04949999       0.00000000       8.09899998    
 Al   4.04949999       2.02474999       10.1237497    
 Al   6.07425022       0.00000000       10.1237497    
 Al   6.07425022       2.02474999       8.09899998    
 Al   4.04949999       0.00000000       12.1485004    
 Al   4.04949999       2.02474999       14.1732502    
 Al   6.07425022       0.00000000       14.1732502    
 Al   6.07425022       2.02474999       12.1485004    
 Al   4.04949999       4.04949999       0.00000000    
 Al   4.04949999       6.07425022       2.02474999    
 Al   6.07425022       4.04949999       2.02474999    
 Al   6.07425022       6.07425022       0.00000000    
 Al   4.04949999       4.04949999       4.04949999    
 Al   4.04949999       6.07425022       6.07425022    
 Al   6.07425022       4.04949999       6.07425022    
 Al   6.07425022       6.07425022       4.04949999    
 Al   4.04949999       4.04949999       8.09899998    
 Al   4.04949999       6.07425022       10.1237497    
 Al   6.07425022       4.04949999       10.1237497    
 Al   6.07425022       6.07425022       8.09899998    
 Al   4.04949999       4.04949999       12.1485004    
 Al   4.04949999       6.07425022       14.1732502    
 Al   6.07425022       4.04949999       14.1732502    
 Al   6.07425022       6.07425022       12.1485004    
 Al   4.04949999       8.09899998       0.00000000    
 Al   4.04949999       10.1237497       2.02474999    
 Al   6.07425022       8.09899998       2.02474999    
 Al   6.07425022       10.1237497       0.00000000    
 Al   4.04949999       8.09899998       4.04949999    
 Al   4.04949999       10.1237497       6.07425022    
 Al   6.07425022       8.09899998       6.07425022    
 Al   6.07425022       10.1237497       4.04949999    
 Al   4.04949999       8.09899998       8.09899998    
 Al   4.04949999       10.1237497       10.1237497    
 Al   6.07425022       8.09899998       10.1237497    
 Al   6.07425022       10.1237497       8.09899998    
 Al   4.04949999       8.09899998       12.1485004    
 Al   4.04949999       10.1237497       14.1732502    
 Al   6.07425022       8.09899998       14.1732502    
 Al   6.07425022       10.1237497       12.1485004    
 Al   4.04949999       12.1485004       0.00000000    
 Al   4.04949999       14.1732502       2.02474999    
 Al   6.07425022       12.1485004       2.02474999    
 Al   6.07425022       14.1732502       0.00000000    
 Al   4.04949999       12.1485004       4.04949999    
 Al   4.04949999       14.1732502       6.07425022    
 Al   6.07425022       12.1485004       6.07425022    
 Al   6.07425022       14.1732502       4.04949999    
 Al   4.04949999       12.1485004       8.09899998    
 Al   4.04949999       14.1732502       10.1237497    
 Al   6.07425022       12.1485004       10.1237497    
 Al   6.07425022       14.1732502       8.09899998    
 Al   4.04949999       12.1485004       12.1485004    
 Al   4.04949999       14.1732502       14.1732502    
 Al   6.07425022       12.1485004       14.1732502    
 Al   6.07425022       14.1732502       12.1485004    
 Al   8.09899998       0.00000000       0.00000000    
 Al   8.09899998       2.02474999       2.02474999    
 Al   10.1237497       0.00000000       2.02474999    
 Al   10.1237497       2.02474999       0.00000000    
 Al   8.09899998       0.00000000       4.04949999    
 Al   8.09899998       2.02474999       6.07425022    
 Al   10.1237497       0.00000000       6.07425022    
 Al   10.1237497       2.02474999       4.04949999    
 Al   8.09899998       0.00000000       8.09899998    
 Al   8.09899998       2.02474999       10.1237497    
 Al   10.1237497       0.00000000       10.1237497    
 Al   10.1237497       2.02474999       8.09899998    
 Al   8.09899998       0.00000000       12.1485004    
 Al   8.09899998       2.02474999       14.1732502    
 Al   10.1237497       0.00000000       14.1732502    
 Al   10.1237497       2.02474999       12.1485004    
 Al   8.09899998       4.04949999       0.00000000    
 Al   8.09899998       6.07425022       2.02474999    
 Al   10.1237497       4.04949999       2.02474999    
 Al   10.1237497       6.07425022       0.00000000    
 Al   8.09899998       4.04949999       4.04949999    
 Al   8.09899998       6.07425022       6.07425022    
 Al   10.1237497       4.04949999       6.07425022    
 Al   10.1237497       6.07425022       4.04949999    
 Al   8.09899998       4.04949999       8.09899998    
 Al   8.09899998       6.07425022       10.1237497    
 Al   10.1237497       4.04949999       10.1237497    
 Al   10.1237497       6.07425022       8.09899998    
 Al   8.09899998       4.04949999       12.1485004    
 Al   8.09899998       6.07425022       14.1732502    
 Al   10.1237497       4.04949999       14.1732502    
 Al   10.1237497       6.07425022       12.1485004    
 Al   8.09899998       8.09899998       0.00000000    
 Al   8.09899998       10.1237497       2.02474999    
 Al   10.1237497       8.09899998       2.02474999    
 Al   10.1237497       10.1237497       0.00000000    
 Al   8.09899998       8.09899998       4.04949999    
 Al   8.09899998       10.1237497       6.07425022    
 Al   10.1237497       8.09899998       6.07425022    
 Al   10.1237497       10.1237497       4.04949999    
 Al   8.09899998       8.09899998       8.09899998    
 Al   8.09899998       10.1237497       10.1237497    
 Al   10.1237497       8.09899998       10.1237497    
 Al   10.1237497       10.1237497       8.09899998    
 Al   8.09899998       8.09899998       12.1485004    
 Al   8.09899998       10.1237497       14.1732502    
 Al   10.1237497       8.09899998       14.1732502    
 Al   10.1237497       10.1237497       12.1485004    
 Al   8.09899998       12.1485004       0.00000000    
 Al   8.09899998       14.1732502       2.02474999    
 Al   10.1237497       12.1485004       2.02474999    
 Al   10.1237497       14.1732502       0.00000000    
 Al   8.09899998       12.1485004       4.04949999    
 Al   8.09899998       14.1732502       6.07425022    
 Al   10.1237497       12.1485004       6.07425022    
 Al   10.1237497       14.1732502       4.04949999    
 Al   8.09899998       12.1485004       8.09899998    
 Al   8.09899998       14.1732502       10.1237497    
 Al   10.1237497       12.1485004       10.1237497    
 Al   10.1237497       14.1732502       8.09899998    
 Al   8.09899998       12.1485004       12.1485004    
 Al   8.09899998       14.1732502       14.1732502    
 Al   10.1237497       12.1485004       14.1732502    
 Al   10.1237497       14.1732502       12.1485004    
 Al   12.1485004       0.00000000       0.00000000    
 Al   12.1485004       2.02474999       2.02474999    
 Al   14.1732502       0.00000000       2.02474999    
 Al   14.1732502       2.02474999       0.00000000    
 Al   12.1485004       0.00000000       4.04949999    
 Al   12.1485004       2.02474999       6.07425022    
 Al   14.1732502       0.00000000       6.07425022    
 Al   14.1732502       2.02474999       4.04949999    
 Al   12.1485004       0.00000000       8.09899998    
 Al   12.1485004       2.02474999       10.1237497    
 Al   14.1732502       0.00000000       10.1237497    
 Al   14.1732502       2.02474999       8.09899998    
 Al   12.1485004       0.00000000       12.1485004    
 Al   12.1485004       2.02474999       14.1732502    
 Al   14.1732502       0.00000000       14.1732502    
 Al   14.1732502       2.02474999       12.1485004    
 Al   12.1485004       4.04949999       0.00000000    
 Al   12.1485004       6.07425022       2.02474999    
 Al   14.1732502       4.04949999       2.02474999    
 Al   14.1732502       6.07425022       0.00000000    
 Al   12.1485004       4.04949999       4.04949999    
 Al   12.1485004       6.07425022       6.07425022    
 Al   14.1732502       4.04949999       6.07425022    
 Al   14.1732502       6.07425022       4.04949999    
 Al   12.1485004       4.04949999       8.09899998    
 Al   12.1485004       6.07425022       10.1237497    
 Al   14.1732502       4.04949999       10.1237497    
 Al   14.1732502       6.07425022       8.09899998    
 Al   12.1485004       4.04949999       12.1485004    
 Al   12.1485004       6.07425022       14.1732502    
 Al   14.1732502       4.04949999       14.1732502    
 Al   14.1732502       6.07425022       12.1485004    
 Al   12.1485004       8.09899998       0.00000000    
 Al   12.1485004       10.1237497       2.02474999    
 Al   14.1732502       8.09899998       2.02474999    
 Al   14.1732502       10.1237497       0.00000000    
 Al   12.1485004       8.09899998       4.04949999    
 Al   12.1485004       10.1237497       6.07425022    
 Al   14.1732502       8.09899998       6.07425022    
 Al   14.1732502       10.1237497       4.04949999    
 Al   12.1485004       8.09899998       8.09899998    
 Al   12.1485004       10.1237497       10.1237497    
 Al   14.1732502       8.09899998       10.1237497    
 Al   14.1732502       10.1237497       8.09899998    
 Al   12.1485004       8.09899998       12.1485004    
 Al   12.1485004       10.1237497       14.1732502    
 Al   14.1732502       8.09899998       14.1732502    
 Al   14.1732502       10.1237497       12.1485004    
 Al   12.1485004       12.1485004       0.00000000    
 Al   12.1485004       14.1732502       2.02474999    
 Al   14.1732502       12.1485004       2.02474999    
 Al   14.1732502       14.1732502       0.00000000    
 Al   12.1485004       12.1485004       4.04949999    
 Al   12.1485004       14.1732502       6.07425022    
 Al   14.1732502       12.1485004       6.07425022    
 Al   14.1732502       14.1732502       4.04949999    
 Al   12.1485004       12.1485004       8.09899998    
 Al   12.1485004       14.1732502       10.1237497    
 Al   14.1732502       12.1485004       10.1237497    
 Al   14.1732502       14.1732502       8.09899998    
 Al   12.1485004       12.1485004       12.1485004    
 Al   12.1485004       14.1732502       14.1732502    
 Al   14.1732502       12.1485004       14.1732502    
 Al   14.1732502       14.1732502       12.1485004    
 N    2.02474999       0.00000000       0.00000000    
         265
 Energy:  -969.37365369999998     
 X   0.00000000       0.00000000       0.00000000    
 X   16.1980000       0.00000000       0.00000000    
 X   0.00000000       16.1980000       0.00000000    
 X   0.00000000       0.00000000       16.1980000    
 X   16.1980000       16.1980000       0.00000000    
 X   16.1980000       0.00000000       16.1980000    
 X   0.00000000       16.1980000       16.1980000    
 X   16.1980000       16.1980000       16.1980000    
 Al  -8.70999973E-03  -0.00000000      -0.00000000    
 Al   9.99999975E-06   2.02473998       2.02473998    
 Al   2.02474999      -0.00000000       2.03345990    
 Al   2.02474999       2.03345990      -0.00000000    
 Al   1.99999995E-04  -0.00000000       4.04997015    
 Al   1.80000003E-04   2.02456999       6.07422018    
 Al   2.02474999      -0.00000000       6.07304001    
 Al   2.02474999       2.02454996       4.04997015    
 Al   1.69999999E-04  -0.00000000       8.09899998    
 Al   1.80000003E-04   2.02456999       10.1237803    
 Al   2.02474999      -0.00000000       10.1249599    
 Al   2.02474999       2.02458000       8.09899998    
 Al   1.99999995E-04  -0.00000000       12.1480303    
 Al   9.99999975E-06   2.02473998       14.1732597    
 Al   2.02474999      -0.00000000       14.1645403    
 Al   2.02474999       2.02454996       12.1480303    
 Al   1.99999995E-04   4.04997015      -0.00000000    
 Al   1.80000003E-04   6.07422018       2.02456999    
 Al   2.02474999       4.04997015       2.02454996    
 Al   2.02474999       6.07304001      -0.00000000    
 Al   2.80000007E-04   4.04917002       4.04917002    
 Al  -1.10000001E-04   6.07424021       6.07424021    
 Al   2.02474999       4.04907990       6.07394981    
 Al   2.02474999       6.07394981       4.04907990    
 Al   7.00000019E-05   4.04909992       8.09899998    
 Al  -1.10000001E-04   6.07424021       10.1237602    
 Al   2.02474999       4.04907990       10.1240501    
 Al   2.02474999       6.07459021       8.09899998    
 Al   2.80000007E-04   4.04917002       12.1488304    
 Al   1.80000003E-04   6.07422018       14.1734304    
 Al   2.02474999       4.04997015       14.1734505    
 Al   2.02474999       6.07394981       12.1489201    
 Al   1.69999999E-04   8.09899998      -0.00000000    
 Al   1.80000003E-04   10.1237803       2.02456999    
 Al   2.02474999       8.09899998       2.02458000    
 Al   2.02474999       10.1249599      -0.00000000    
 Al   7.00000019E-05   8.09899998       4.04909992    
 Al  -1.10000001E-04   10.1237602       6.07424021    
 Al   2.02474999       8.09899998       6.07459021    
 Al   2.02474999       10.1240501       4.04907990    
 Al  -9.99999975E-06   8.09899998       8.09899998    
 Al  -1.10000001E-04   10.1237602       10.1237602    
 Al   2.02474999       8.09899998       10.1234102    
 Al   2.02474999       10.1234102       8.09899998    
 Al   7.00000019E-05   8.09899998       12.1489000    
 Al   1.80000003E-04   10.1237803       14.1734304    
 Al   2.02474999       8.09899998       14.1734200    
 Al   2.02474999       10.1240501       12.1489201    
 Al   1.99999995E-04   12.1480303      -0.00000000    
 Al   9.99999975E-06   14.1732597       2.02473998    
 Al   2.02474999       12.1480303       2.02454996    
 Al   2.02474999       14.1645403      -0.00000000    
 Al   2.80000007E-04   12.1488304       4.04917002    
 Al   1.80000003E-04   14.1734304       6.07422018    
 Al   2.02474999       12.1489201       6.07394981    
 Al   2.02474999       14.1734505       4.04997015    
 Al   7.00000019E-05   12.1489000       8.09899998    
 Al   1.80000003E-04   14.1734304       10.1237803    
 Al   2.02474999       12.1489201       10.1240501    
 Al   2.02474999       14.1734200       8.09899998    
 Al   2.80000007E-04   12.1488304       12.1488304    
 Al   9.99999975E-06   14.1732597       14.1732597    
 Al   2.02474999       12.1480303       14.1734505    
 Al   2.02474999       14.1734505       12.1480303    
 Al   4.05820990      -0.00000000      -0.00000000    
 Al   4.04948997       2.02473998       2.02473998    
 Al   6.07471991      -0.00000000       2.02454996    
 Al   6.07471991       2.02454996      -0.00000000    
 Al   4.04930019      -0.00000000       4.04997015    
 Al   4.04932022       2.02456999       6.07422018    
 Al   6.07383013      -0.00000000       6.07394981    
 Al   6.07391977       2.02447009       4.04917002    
 Al   4.04933023      -0.00000000       8.09899998    
 Al   4.04932022       2.02456999       10.1237803    
 Al   6.07383013      -0.00000000       10.1240501    
 Al   6.07385015       2.02467990       8.09899998    
 Al   4.04930019      -0.00000000       12.1480303    
 Al   4.04948997       2.02473998       14.1732597    
 Al   6.07471991      -0.00000000       14.1734505    
 Al   6.07391977       2.02447009       12.1488304    
 Al   4.04930019       4.04997015      -0.00000000    
 Al   4.04932022       6.07422018       2.02456999    
 Al   6.07391977       4.04917002       2.02447009    
 Al   6.07383013       6.07394981      -0.00000000    
 Al   4.04922009       4.04917002       4.04917002    
 Al   4.04961014       6.07424021       6.07424021    
 Al   6.07426023       4.04951000       6.07415009    
 Al   6.07426023       6.07415009       4.04951000    
 Al   4.04942989       4.04909992       8.09899998    
 Al   4.04961014       6.07424021       10.1237602    
 Al   6.07426023       4.04951000       10.1238499    
 Al   6.07419014       6.07409000       8.09899998    
 Al   4.04922009       4.04917002       12.1488304    
 Al   4.04932022       6.07422018       14.1734304    
 Al   6.07391977       4.04917002       14.1735296    
 Al   6.07426023       6.07415009       12.1484900    
 Al   4.04933023       8.09899998      -0.00000000    
 Al   4.04932022       10.1237803       2.02456999    
 Al   6.07385015       8.09899998       2.02467990    
 Al   6.07383013       10.1240501      -0.00000000    
 Al   4.04942989       8.09899998       4.04909992    
 Al   4.04961014       10.1237602       6.07424021    
 Al   6.07419014       8.09899998       6.07409000    
 Al   6.07426023       10.1238499       4.04951000    
 Al   4.04951000       8.09899998       8.09899998    
 Al   4.04961014       10.1237602       10.1237602    
 Al   6.07419014       8.09899998       10.1239100    
 Al   6.07419014       10.1239100       8.09899998    
 Al   4.04942989       8.09899998       12.1489000    
 Al   4.04932022       10.1237803       14.1734304    
 Al   6.07385015       8.09899998       14.1733198    
 Al   6.07426023       10.1238499       12.1484900    
 Al   4.04930019       12.1480303      -0.00000000    
 Al   4.04948997       14.1732597       2.02473998    
 Al   6.07391977       12.1488304       2.02447009    
 Al   6.07471991       14.1734505      -0.00000000    
 Al   4.04922009       12.1488304       4.04917002    
 Al   4.04932022       14.1734304       6.07422018    
 Al   6.07426023       12.1484900       6.07415009    
 Al   6.07391977       14.1735296       4.04917002    
 Al   4.04942989       12.1489000       8.09899998    
 Al   4.04932022       14.1734304       10.1237803    
 Al   6.07426023       12.1484900       10.1238499    
 Al   6.07385015       14.1733198       8.09899998    
 Al   4.04922009       12.1488304       12.1488304    
 Al   4.04948997       14.1732597       14.1732597    
 Al   6.07391977       12.1488304       14.1735296    
 Al   6.07391977       14.1735296       12.1488304    
 Al   8.09778976      -0.00000000      -0.00000000    
 Al   8.09897041       2.02456999       2.02456999    
 Al   10.1237497      -0.00000000       2.02458000    
 Al   10.1237497       2.02458000      -0.00000000    
 Al   8.09869957      -0.00000000       4.04907990    
 Al   8.09899044       2.02485991       6.07424021    
 Al   10.1237497      -0.00000000       6.07459021    
 Al   10.1237497       2.02467990       4.04909992    
 Al   8.09934044      -0.00000000       8.09899998    
 Al   8.09899044       2.02485991       10.1237602    
 Al   10.1237497      -0.00000000       10.1234102    
 Al   10.1237497       2.02476001       8.09899998    
 Al   8.09869957      -0.00000000       12.1489201    
 Al   8.09897041       2.02456999       14.1734304    
 Al   10.1237497      -0.00000000       14.1734200    
 Al   10.1237497       2.02467990       12.1489000    
 Al   8.09869957       4.04907990      -0.00000000    
 Al   8.09899044       6.07424021       2.02485991    
 Al   10.1237497       4.04909992       2.02467990    
 Al   10.1237497       6.07459021      -0.00000000    
 Al   8.09889984       4.04951000       4.04951000    
 Al   8.09893990       6.07419014       6.07419014    
 Al   10.1237497       4.04943991       6.07409000    
 Al   10.1237497       6.07409000       4.04943991    
 Al   8.09883976       4.04943991       8.09899998    
 Al   8.09893990       6.07419014       10.1238098    
 Al   10.1237497       4.04943991       10.1239100    
 Al   10.1237497       6.07438993       8.09899998    
 Al   8.09889984       4.04951000       12.1484900    
 Al   8.09899044       6.07424021       14.1731396    
 Al   10.1237497       4.04909992       14.1733198    
 Al   10.1237497       6.07409000       12.1485596    
 Al   8.09934044       8.09899998      -0.00000000    
 Al   8.09899044       10.1237602       2.02485991    
 Al   10.1237497       8.09899998       2.02476001    
 Al   10.1237497       10.1234102      -0.00000000    
 Al   8.09883976       8.09899998       4.04943991    
 Al   8.09893990       10.1238098       6.07419014    
 Al   10.1237497       8.09899998       6.07438993    
 Al   10.1237497       10.1239100       4.04943991    
 Al   8.09914017       8.09899998       8.09899998    
 Al   8.09893990       10.1238098       10.1238098    
 Al   10.1237497       8.09899998       10.1236095    
 Al   10.1237497       10.1236095       8.09899998    
 Al   8.09883976       8.09899998       12.1485596    
 Al   8.09899044       10.1237602       14.1731396    
 Al   10.1237497       8.09899998       14.1732397    
 Al   10.1237497       10.1239100       12.1485596    
 Al   8.09869957       12.1489201      -0.00000000    
 Al   8.09897041       14.1734304       2.02456999    
 Al   10.1237497       12.1489000       2.02467990    
 Al   10.1237497       14.1734200      -0.00000000    
 Al   8.09889984       12.1484900       4.04951000    
 Al   8.09899044       14.1731396       6.07424021    
 Al   10.1237497       12.1485596       6.07409000    
 Al   10.1237497       14.1733198       4.04909992    
 Al   8.09883976       12.1485596       8.09899998    
 Al   8.09899044       14.1731396       10.1237602    
 Al   10.1237497       12.1485596       10.1239100    
 Al   10.1237497       14.1732397       8.09899998    
 Al   8.09889984       12.1484900       12.1484900    
 Al   8.09897041       14.1734304       14.1734304    
 Al   10.1237497       12.1489000       14.1733198    
 Al   10.1237497       14.1733198       12.1489000    
 Al   12.1497097      -0.00000000      -0.00000000    
 Al   12.1485300       2.02456999       2.02456999    
 Al   14.1727800      -0.00000000       2.02454996    
 Al   14.1727800       2.02454996      -0.00000000    
 Al   12.1487999      -0.00000000       4.04907990    
 Al   12.1485100       2.02485991       6.07424021    
 Al   14.1736698      -0.00000000       6.07394981    
 Al   14.1735802       2.02447009       4.04917002    
 Al   12.1481600      -0.00000000       8.09899998    
 Al   12.1485100       2.02485991       10.1237602    
 Al   14.1736698      -0.00000000       10.1240501    
 Al   14.1736498       2.02467990       8.09899998    
 Al   12.1487999      -0.00000000       12.1489201    
 Al   12.1485300       2.02456999       14.1734304    
 Al   14.1727800      -0.00000000       14.1734505    
 Al   14.1735802       2.02447009       12.1488304    
 Al   12.1487999       4.04907990      -0.00000000    
 Al   12.1485100       6.07424021       2.02485991    
 Al   14.1735802       4.04917002       2.02447009    
 Al   14.1736698       6.07394981      -0.00000000    
 Al   12.1485996       4.04951000       4.04951000    
 Al   12.1485596       6.07419014       6.07419014    
 Al   14.1732397       4.04951000       6.07415009    
 Al   14.1732397       6.07415009       4.04951000    
 Al   12.1486597       4.04943991       8.09899998    
 Al   12.1485596       6.07419014       10.1238098    
 Al   14.1732397       4.04951000       10.1238499    
 Al   14.1733103       6.07409000       8.09899998    
 Al   12.1485996       4.04951000       12.1484900    
 Al   12.1485100       6.07424021       14.1731396    
 Al   14.1735802       4.04917002       14.1735296    
 Al   14.1732397       6.07415009       12.1484900    
 Al   12.1481600       8.09899998      -0.00000000    
 Al   12.1485100       10.1237602       2.02485991    
 Al   14.1736498       8.09899998       2.02467990    
 Al   14.1736698       10.1240501      -0.00000000    
 Al   12.1486597       8.09899998       4.04943991    
 Al   12.1485596       10.1238098       6.07419014    
 Al   14.1733103       8.09899998       6.07409000    
 Al   14.1732397       10.1238499       4.04951000    
 Al   12.1483603       8.09899998       8.09899998    
 Al   12.1485596       10.1238098       10.1238098    
 Al   14.1733103       8.09899998       10.1239100    
 Al   14.1733103       10.1239100       8.09899998    
 Al   12.1486597       8.09899998       12.1485596    
 Al   12.1485100       10.1237602       14.1731396    
 Al   14.1736498       8.09899998       14.1733198    
 Al   14.1732397       10.1238499       12.1484900    
 Al   12.1487999       12.1489201      -0.00000000    
 Al   12.1485300       14.1734304       2.02456999    
 Al   14.1735802       12.1488304       2.02447009    
 Al   14.1727800       14.1734505      -0.00000000    
 Al   12.1485996       12.1484900       4.04951000    
 Al   12.1485100       14.1731396       6.07424021    
 Al   14.1732397       12.1484900       6.07415009    
 Al   14.1735802       14.1735296       4.04917002    
 Al   12.1486597       12.1485596       8.09899998    
 Al   12.1485100       14.1731396       10.1237602    
 Al   14.1732397       12.1484900       10.1238499    
 Al   14.1736498       14.1733198       8.09899998    
 Al   12.1485996       12.1484900       12.1484900    
 Al   12.1485300       14.1734304       14.1734304    
 Al   14.1735802       12.1488304       14.1735296    
 Al   14.1735802       14.1735296       12.1488304    
 N    2.02474999      -0.00000000      -0.00000000    
         265
 Energy:  -969.40544590000002     
 X   0.00000000       0.00000000       0.00000000    
 X   16.1980000       0.00000000       0.00000000    
 X   0.00000000       16.1980000       0.00000000    
 X   0.00000000       0.00000000       16.1980000    
 X   16.1980000       16.1980000       0.00000000    
 X   16.1980000       0.00000000       16.1980000    
 X   0.00000000       16.1980000       16.1980000    
 X   16.1980000       16.1980000       16.1980000    
 Al  -3.48500013E-02  -0.00000000      -0.00000000    
 Al   4.99999987E-05   2.02469993       2.02469993    
 Al   2.02474999      -0.00000000       2.05960011    
 Al   2.02474999       2.05960011      -0.00000000    
 Al   7.90000020E-04  -0.00000000       4.05137014    