       N       E                     dE             d eps       ncg     rms          rms(c)
DAV:   1     0.120091371743E+04    0.12009E+04   -0.19023E+05  4128   0.789E+02
DAV:   2    -0.832965287695E+03   -0.20339E+04   -0.19065E+04  5748   0.175E+02
DAV:   3    -0.970532468047E+03   -0.13757E+03   -0.12958E+03  5184   0.337E+01
DAV:   4    -0.977318031951E+03   -0.67856E+01   -0.66906E+01  5628   0.828E+00
DAV:   5    -0.977435663415E+03   -0.11763E+00   -0.11710E+00  5220   0.120E+00    0.173E+01
DAV:   6    -0.971367987042E+03    0.60677E+01   -0.96293E+00  6240   0.358E+00    0.101E+01
DAV:   7    -0.971102180035E+03    0.26581E+00   -0.13585E+01  4920   0.362E+00    0.655E+00
DAV:   8    -0.969741913443E+03    0.13603E+01   -0.38876E+00  5148   0.293E+00    0.375E+00
DAV:   9    -0.969457934296E+03    0.28398E+00   -0.21232E+00  5976   0.175E+00    0.158E+00
DAV:  10    -0.969373613456E+03    0.84321E-01   -0.55958E-01  4680   0.886E-01    0.142E+00
DAV:  11    -0.969340165845E+03    0.33448E-01   -0.43915E-01  5244   0.556E-01    0.272E-01
DAV:  12    -0.969355725914E+03   -0.15560E-01   -0.18050E-01  4824   0.274E-01    0.468E-01
DAV:  13    -0.969350047028E+03    0.56789E-02   -0.19074E-02  5316   0.122E-01    0.198E-01
DAV:  14    -0.969351251389E+03   -0.12044E-02   -0.16359E-02  4908   0.732E-02    0.214E-02
DAV:  15    -0.969351263719E+03   -0.12331E-04   -0.30103E-04  5772   0.231E-02    0.362E-02
DAV:  16    -0.969351306621E+03   -0.42902E-04   -0.37211E-04  3996   0.118E-02    0.502E-02
DAV:  17    -0.969351264808E+03    0.41813E-04   -0.22619E-05  4176   0.563E-03    0.371E-02
DAV:  18    -0.969351253192E+03    0.11616E-04   -0.14599E-04  3972   0.637E-03    0.121E-02
DAV:  19    -0.969351246724E+03    0.64686E-05   -0.13862E-05  3564   0.268E-03    0.302E-03
DAV:  20    -0.969351247714E+03   -0.99073E-06   -0.12294E-06  2604   0.104E-03
   1 F= -.96935125E+03 E0= -.96926261E+03  d E =-.969351E+03
       N       E                     dE             d eps       ncg     rms          rms(c)
DAV:   1    -0.969372532955E+03   -0.21286E-01   -0.65488E-02  4368   0.301E-01    0.667E-02
DAV:   2    -0.969374143203E+03   -0.16102E-02   -0.18891E-02  5088   0.993E-02    0.140E-01
DAV:   3    -0.969373956883E+03    0.18632E-03   -0.46933E-04  5352   0.213E-02    0.123E-01
DAV:   4    -0.969373603241E+03    0.35364E-03   -0.41236E-03  6216   0.568E-02    0.516E-02
DAV:   5    -0.969373735056E+03   -0.13182E-03   -0.22808E-03  4632   0.305E-02    0.748E-02
DAV:   6    -0.969373676018E+03    0.59038E-04   -0.30487E-04  4644   0.120E-02    0.433E-02
DAV:   7    -0.969373665528E+03    0.10490E-04   -0.17327E-04  4512   0.978E-03    0.162E-02
DAV:   8    -0.969373660405E+03    0.51229E-05   -0.15552E-04  5676   0.116E-02    0.187E-02
DAV:   9    -0.969373666940E+03   -0.65351E-05   -0.10535E-04  3756   0.548E-03    0.251E-02
DAV:  10    -0.969373654234E+03    0.12705E-04   -0.24697E-05  4368   0.384E-03    0.129E-02
DAV:  11    -0.969373653760E+03    0.47393E-06   -0.21919E-05  3600   0.314E-03
   2 F= -.96937365E+03 E0= -.96928444E+03  d E =-.224060E-01
       N       E                     dE             d eps       ncg     rms          rms(c)
DAV:   1    -0.969395836054E+03   -0.22182E-01   -0.58230E-01  4308   0.898E-01    0.198E-01
DAV:   2    -0.969409469474E+03   -0.13633E-01   -0.16103E-01  5040   0.292E-01    0.407E-01
DAV:   3    -0.969407854912E+03    0.16146E-02   -0.41996E-03  5328   0.636E-02    0.353E-01
DAV:   4    -0.969405236675E+03    0.26182E-02   -0.35001E-02  6300   0.159E-01    0.153E-01
DAV:   5    -0.969405987563E+03   -0.75089E-03   -0.16039E-02  4752   0.853E-02    0.205E-01
DAV:   6    -0.969405543444E+03    0.44412E-03   -0.27767E-03  5184   0.352E-02    0.110E-01
DAV:   7    -0.969405566343E+03   -0.22899E-04   -0.10342E-03  4764   0.242E-02    0.534E-02
DAV:   8    -0.969405450039E+03    0.11630E-03   -0.88983E-04  6276   0.292E-02    0.355E-02
DAV:   9    -0.969405519558E+03   -0.69519E-04   -0.78605E-04  4296   0.139E-02    0.570E-02
DAV:  10    -0.969405455214E+03    0.64344E-04   -0.79759E-05  5052   0.745E-03    0.345E-02
DAV:  11    -0.969405447138E+03    0.80758E-05   -0.14345E-04  3792   0.725E-03    0.107E-02
DAV:  12    -0.969405445937E+03    0.12011E-05   -0.14745E-05  3840   0.255E-03
   3 F= -.96940545E+03 E0= -.96931476E+03  d E =-.541982E-01
       N       E                     dE             d eps       ncg     rms          rms(c)
DAV:   1    -0.969405713414E+03   -0.26628E-03   -0.89245E-03  4344   0.110E-01    0.240E-02
DAV:   2    -0.969405907157E+03   -0.19374E-03   -0.22954E-03  5088   0.356E-02    0.495E-02
DAV:   3    -0.969405886949E+03    0.20208E-04   -0.60138E-05  4800   0.750E-03    0.438E-02
DAV:   4    -0.969405845875E+03    0.41074E-04   -0.50827E-04  6240   0.201E-02    0.183E-02
DAV:   5    -0.969405860261E+03   -0.14385E-04   -0.27418E-04  4164   0.111E-02    0.265E-02
DAV:   6    -0.969405849527E+03    0.10733E-04   -0.43774E-05  4488   0.505E-03    0.139E-02
DAV:   7    -0.969405850751E+03   -0.12234E-05   -0.26269E-05  3564   0.350E-03
   4 F= -.96940585E+03 E0= -.96931503E+03  d E =-.546030E-01
       N       E                     dE             d eps       ncg     rms          rms(c)
DAV:   1    -0.969407983679E+03   -0.21342E-02   -0.11961E-02  4872   0.133E-01    0.238E-02
DAV:   2    -0.969407971123E+03    0.12556E-04   -0.64475E-04  4536   0.335E-02    0.132E-02
DAV:   3    -0.969407967518E+03    0.36050E-05   -0.44321E-05  5340   0.102E-02    0.731E-03
DAV:   4    -0.969407966227E+03    0.12908E-05   -0.29523E-05  4308   0.647E-03    0.552E-03
DAV:   5    -0.969407965216E+03    0.10115E-05   -0.30462E-06  2580   0.292E-03    0.329E-03
DAV:   6    -0.969407965562E+03   -0.34693E-06   -0.73704E-06  3372   0.239E-03
   5 F= -.96940797E+03 E0= -.96931710E+03  d E =-.211481E-02
       N       E                     dE             d eps       ncg     rms          rms(c)
DAV:   1    -0.969411780028E+03   -0.38148E-02   -0.10763E-01  4848   0.397E-01    0.721E-02
DAV:   2    -0.969411613461E+03    0.16657E-03   -0.54065E-03  4572   0.988E-02    0.317E-02
DAV:   3    -0.969411602183E+03    0.11278E-04   -0.43224E-04  5520   0.302E-02    0.206E-02
DAV:   4    -0.969411575463E+03    0.26720E-04   -0.15606E-04  5076   0.177E-02    0.132E-02
DAV:   5    -0.969411572116E+03    0.33472E-05   -0.33263E-05  4980   0.738E-03    0.657E-03
DAV:   6    -0.969411573308E+03   -0.11923E-05   -0.15193E-05  3612   0.336E-03
   6 F= -.96941157E+03 E0= -.96932068E+03  d E =-.572256E-02
       N       E                     dE             d eps       ncg     rms          rms(c)
DAV:   1    -0.969411950179E+03   -0.37806E-03   -0.21477E-02  4872   0.177E-01    0.328E-02
DAV:   2    -0.969411917997E+03    0.32182E-04   -0.10620E-03  4560   0.440E-02    0.145E-02
DAV:   3    -0.969411916770E+03    0.12270E-05   -0.91855E-05  5484   0.138E-02    0.970E-03
DAV:   4    -0.969411910893E+03    0.58771E-05   -0.30168E-05  4536   0.802E-03    0.623E-03
DAV:   5    -0.969411910283E+03    0.60954E-06   -0.70217E-06  3108   0.368E-03    0.304E-03
DAV:   6    -0.969411910646E+03   -0.36273E-06   -0.40724E-06  2772   0.216E-03
   7 F= -.96941191E+03 E0= -.96932105E+03  d E =-.605990E-02
       N       E                     dE             d eps       ncg     rms          rms(c)
DAV:   1    -0.969412421562E+03   -0.51128E-03   -0.47888E-03  4740   0.904E-02    0.134E-02
DAV:   2    -0.969412427426E+03   -0.58638E-05   -0.18981E-04  4848   0.198E-02    0.804E-03
DAV:   3    -0.969412424307E+03    0.31191E-05   -0.21060E-05  4104   0.747E-03    0.568E-03
DAV:   4    -0.969412423157E+03    0.11494E-05   -0.68786E-06  3120   0.403E-03    0.281E-03
DAV:   5    -0.969412423327E+03   -0.16966E-06   -0.26075E-06  2352   0.225E-03    0.127E-03
DAV:   6    -0.969412423332E+03   -0.47585E-08   -0.46828E-07  2352   0.128E-03
   8 F= -.96941242E+03 E0= -.96932154E+03  d E =-.512686E-03
       N       E                     dE             d eps       ncg     rms          rms(c)
DAV:   1    -0.969413003045E+03   -0.57972E-03   -0.40562E-02  4740   0.263E-01    0.381E-02
DAV:   2    -0.969413057527E+03   -0.54482E-04   -0.16451E-03  4824   0.581E-02    0.230E-02
DAV:   3    -0.969413033119E+03    0.24408E-04   -0.19910E-04  5172   0.219E-02    0.168E-02
DAV:   4    -0.969413022826E+03    0.10293E-04   -0.63961E-05  5052   0.108E-02    0.836E-03
DAV:   5    -0.969413023110E+03   -0.28398E-06   -0.12593E-05  3300   0.409E-03    0.422E-03
DAV:   6    -0.969413022897E+03    0.21320E-06   -0.15514E-06  2436   0.235E-03
   9 F= -.96941302E+03 E0= -.96932209E+03  d E =-.111225E-02
       N       E                     dE             d eps       ncg     rms          rms(c)
DAV:   1    -0.969413190986E+03   -0.16788E-03   -0.40579E-03  4908   0.811E-02    0.139E-02
DAV:   2    -0.969413201750E+03   -0.10764E-04   -0.27566E-04  4620   0.208E-02    0.119E-02
DAV:   3    -0.969413195591E+03    0.61588E-05   -0.25523E-05  4668   0.777E-03    0.758E-03
DAV:   4    -0.969413194179E+03    0.14121E-05   -0.12748E-05  4008   0.467E-03    0.337E-03
DAV:   5    -0.969413194596E+03   -0.41652E-06   -0.86091E-06  3108   0.281E-03    0.391E-03
DAV:   6    -0.969413194333E+03    0.26262E-06   -0.10415E-06  2400   0.142E-03
  10 F= -.96941319E+03 E0= -.96932225E+03  d E =-.171437E-03
       N       E                     dE             d eps       ncg     rms          rms(c)
DAV:   1    -0.969413223022E+03   -0.28426E-04   -0.15245E-03  4932   0.499E-02    0.831E-03
DAV:   2    -0.969413228540E+03   -0.55181E-05   -0.11304E-04  4644   0.130E-02    0.870E-03
DAV:   3    -0.969413225637E+03    0.29028E-05   -0.92143E-06  3720   0.477E-03    0.550E-03
DAV:   4    -0.969413225157E+03    0.48016E-06   -0.78235E-06  3444   0.328E-03    0.238E-03
DAV:   5    -0.969413225305E+03   -0.14776E-06   -0.38871E-06  2688   0.196E-03    0.275E-03
DAV:   6    -0.969413225184E+03    0.12032E-06   -0.64261E-07  2376   0.108E-03
  11 F= -.96941323E+03 E0= -.96932228E+03  d E =-.202288E-03
       N       E                     dE             d eps       ncg     rms          rms(c)
DAV:   1    -0.969413252965E+03   -0.27661E-04   -0.67300E-04  4932   0.332E-02    0.588E-03
DAV:   2    -0.969413254163E+03   -0.11973E-05   -0.46262E-05  4632   0.884E-03    0.471E-03
DAV:   3    -0.969413253202E+03    0.96122E-06   -0.30486E-06  2868   0.339E-03    0.303E-03
DAV:   4    -0.969413253100E+03    0.10174E-06   -0.32126E-06  2748   0.213E-03    0.140E-03
DAV:   5    -0.969413253165E+03   -0.64960E-07   -0.98185E-07  2280   0.116E-03    0.118E-03
DAV:   6    -0.969413253131E+03    0.33746E-07   -0.17373E-07  2280   0.697E-04
  12 F= -.96941325E+03 E0= -.96932229E+03  d E =-.279468E-04
       N       E                     dE             d eps       ncg     rms          rms(c)
DAV:   1    -0.969413249002E+03    0.41629E-05   -0.18892E-04  4920   0.177E-02    0.304E-03
DAV:   2    -0.969413249495E+03   -0.49296E-06   -0.14835E-05  3708   0.486E-03    0.331E-03
DAV:   3    -0.969413249123E+03    0.37206E-06   -0.10018E-06  2352   0.213E-03    0.209E-03
DAV:   4    -0.969413249146E+03   -0.22810E-07   -0.17282E-06  2544   0.137E-03    0.876E-04
DAV:   5    -0.969413249179E+03   -0.33073E-07   -0.45716E-07  2280   0.866E-04    0.835E-04
DAV:   6    -0.969413249162E+03    0.16360E-07   -0.87594E-08  2280   0.480E-04
  13 F= -.96941325E+03 E0= -.96932228E+03  d E =-.239781E-04
