 vasp.5.4.4.18Apr17-6-g9f103f2a35 (build May 02 2017 15:33:50) complex          
  
 executed on Intel-16.0.3.210-OMP date 2018.07.06  11:44:46
 running on    6 total cores
 distrk:  each k-point on    6 cores,    1 groups
 distr:  one band on NCORES_PER_BAND=   1 cores,    6 groups


--------------------------------------------------------------------------------------------------------


 INCAR:
 POTCAR:    PAW Al_GW 19Mar2012                   
 POTCAR:    PAW_PBE N 08Apr2002                   

 ----------------------------------------------------------------------------- 
|                                                                             |
|           W    W    AA    RRRRR   N    N  II  N    N   GGGG   !!!           |
|           W    W   A  A   R    R  NN   N  II  NN   N  G    G  !!!           |
|           W    W  A    A  R    R  N N  N  II  N N  N  G       !!!           |
|           W WW W  AAAAAA  RRRRR   N  N N  II  N  N N  G  GGG   !            |
|           WW  WW  A    A  R   R   N   NN  II  N   NN  G    G                |
|           W    W  A    A  R    R  N    N  II  N    N   GGGG   !!!           |
|                                                                             |
|      For optimal performance we recommend to set                            |
|        NCORE= 4 - approx SQRT( number of cores)                             |
|      NCORE specifies how many cores store one orbital (NPAR=cpu/NCORE).     |
|      This setting can  greatly improve the performance of VASP for DFT.     |
|      The default,   NCORE=1            might be grossly inefficient         |
|      on modern multi-core architectures or massively parallel machines.     |
|      Do your own testing !!!!                                               |
|      Unfortunately you need to use the default for GW and RPA calculations. |
|      (for HF NCORE is supported but not extensively tested yet)             |
|                                                                             |
 ----------------------------------------------------------------------------- 

 POTCAR:    PAW Al_GW 19Mar2012                   
   VRHFIN =Al: s2p1                                                             
   LEXCH  = PE                                                                  
   EATOM  =    53.5387 eV,    3.9350 Ry                                         
                                                                                
   TITEL  = PAW Al_GW 19Mar2012                                                 
   LULTRA =        F    use ultrasoft PP ?                                      
   IUNSCR =        1    unscreen: 0-lin 1-nonlin 2-no                           
   RPACOR =    1.500    partial core radius                                     
   POMASS =   26.982; ZVAL   =    3.000    mass and valenz                      
   RCORE  =    2.000    outmost cutoff radius                                   
   RWIGS  =    2.000; RWIGS  =    1.058    wigner-seitz radius (au A)           
   ENMAX  =  240.300; ENMIN  =  180.225 eV                                      
   ICORE  =        3    local potential                                         
   LCOR   =        T    correct aug charges                                     
   LPAW   =        T    paw PP                                                  
   EAUG   =  482.059                                                            
   DEXC   =    0.000                                                            
   RMAX   =    2.051    core radius for proj-oper                               
   RAUG   =    1.300    factor for augmentation sphere                          
   RDEP   =    2.096    radius for radial grids                                 
   RDEPT  =    1.856    core radius for aug-charge                              
                                                                                
   Atomic configuration                                                         
    7 entries                                                                   
     n  l   j            E        occ.                                          
     1  0  0.50     -1511.1048   2.0000                                         
     2  0  0.50      -108.1629   2.0000                                         
     2  1  1.50       -69.6402   6.0000                                         
     3  0  0.50        -7.7528   2.0000                                         
     3  1  1.50        -2.7121   1.0000                                         
     3  2  2.50        -2.7212   0.0000                                         
     4  3  2.50        -2.7212   0.0000                                         
   Description                                                                  
     l       E           TYP  RCUT    TYP  RCUT                                 
     0     -7.7528455     23  1.900                                             
     0     68.0291300     23  1.900                                             
     1     -2.7120682     23  1.900                                             
     1     68.0291300     23  1.900                                             
     2     -1.3605826     23  1.900                                             
     2     81.6349560     23  1.900                                             
     3     74.8320430     23  2.000                                             
  local pseudopotential read in
  partial core-charges read in
  partial kinetic energy density read in
  kinetic energy density of atom read in
  atomic valenz-charges read in
  non local Contribution for L=           0  read in
    real space projection operators read in
  non local Contribution for L=           0  read in
    real space projection operators read in
  non local Contribution for L=           1  read in
    real space projection operators read in
  non local Contribution for L=           1  read in
    real space projection operators read in
  non local Contribution for L=           2  read in
    real space projection operators read in
  non local Contribution for L=           2  read in
    real space projection operators read in
    PAW grid and wavefunctions read in
 
   number of l-projection  operators is LMAX  =           6
   number of lm-projection operators is LMMAX =          18
 
 POTCAR:    PAW_PBE N 08Apr2002                   
   VRHFIN =N: s2p3                                                              
   LEXCH  = PE                                                                  
   EATOM  =   264.5486 eV,   19.4438 Ry                                         
                                                                                
   TITEL  = PAW_PBE N 08Apr2002                                                 
   LULTRA =        F    use ultrasoft PP ?                                      
   IUNSCR =        1    unscreen: 0-lin 1-nonlin 2-no                           
   RPACOR =    1.200    partial core radius                                     
   POMASS =   14.001; ZVAL   =    5.000    mass and valenz                      
   RCORE  =    1.500    outmost cutoff radius                                   
   RWIGS  =    1.400; RWIGS  =    0.741    wigner-seitz radius (au A)           
   ENMAX  =  400.000; ENMIN  =  300.000 eV                                      
   ICORE  =        2    local potential                                         
   LCOR   =        T    correct aug charges                                     
   LPAW   =        T    paw PP                                                  
   EAUG   =  627.112                                                            
   DEXC   =    0.000                                                            
   RMAX   =    1.529    core radius for proj-oper                               
   RAUG   =    1.300    factor for augmentation sphere                          
   RDEP   =    1.514    radius for radial grids                                 
   RDEPT  =    1.338    core radius for aug-charge                              
                                                                                
   Atomic configuration                                                         
    4 entries                                                                   
     n  l   j            E        occ.                                          
     1  0  0.50      -384.7179   2.0000                                         
     2  0  0.50       -18.5828   2.0000                                         
     2  1  0.50        -7.0898   3.0000                                         
     3  2  1.50        -6.8029   0.0000                                         
   Description                                                                  
     l       E           TYP  RCUT    TYP  RCUT                                 
     0    -18.5828119     23  1.200                                             
     0    -13.5018863     23  1.200                                             
     1     -7.0897853     23  1.500                                             
     1      9.5240782     23  1.500                                             
     2     -6.8029130      7  1.500                                             
  local pseudopotential read in
  partial core-charges read in
  partial kinetic energy density read in
  atomic valenz-charges read in
  non local Contribution for L=           0  read in
    real space projection operators read in
  non local Contribution for L=           0  read in
    real space projection operators read in
  non local Contribution for L=           1  read in
    real space projection operators read in
  non local Contribution for L=           1  read in
    real space projection operators read in
    PAW grid and wavefunctions read in
 
   number of l-projection  operators is LMAX  =           4
   number of lm-projection operators is LMMAX =           8
 
 Optimization of the real space projectors (new method)

 maximal supplied QI-value         = 18.90
 optimisation between [QCUT,QGAM] = [  8.69, 17.57] = [ 21.16, 86.49] Ry 
 Optimized for a Real-space Cutoff    1.59 Angstroem

   l    n(q)    QCUT    max X(q) W(low)/X(q) W(high)/X(q)  e(spline) 
   0      8     8.693    11.519    0.12E-03    0.31E-04    0.21E-06
   0      8     8.693     5.834    0.89E-04    0.32E-04    0.16E-06
   1      8     8.693    10.132    0.25E-03    0.39E-03    0.25E-06
   1      8     8.693     3.004    0.16E-03    0.27E-03    0.22E-06
   2      7     8.693     3.169    0.39E-03    0.93E-03    0.44E-06
   2      7     8.693     1.605    0.70E-04    0.91E-04    0.19E-06
 Optimization of the real space projectors (new method)

 maximal supplied QI-value         = 25.13
 optimisation between [QCUT,QGAM] = [  8.80, 17.59] = [ 21.67, 86.68] Ry 
 Optimized for a Real-space Cutoff    2.14 Angstroem

   l    n(q)    QCUT    max X(q) W(low)/X(q) W(high)/X(q)  e(spline) 
   0     11     8.797    79.467    0.70E-04    0.19E-04    0.19E-05
   0     11     8.797    66.151    0.68E-04    0.18E-04    0.19E-05
   1     11     8.797     6.738    0.26E-03    0.11E-02    0.73E-05
   1     11     8.797     5.013    0.25E-03    0.11E-02    0.72E-05
  PAW Al_GW 19Mar2012                   :
 energy of atom  1       EATOM=  -53.5387
 kinetic energy error for atom=    0.0011 (will be added to EATOM!!)
  PAW_PBE N 08Apr2002                   :
 energy of atom  2       EATOM= -264.5486
 kinetic energy error for atom=    0.6882 (will be added to EATOM!!)
 
 
 POSCAR: New structure                           
  positions in cartesian coordinates
  No initial velocities read in
 exchange correlation table for  LEXCH =        8
   RHO(1)=    0.500       N(1)  =     2000
   RHO(2)=  100.500       N(2)  =     4000
 


--------------------------------------------------------------------------------------------------------


 ion  position               nearest neighbor table
   1  0.000  0.000  0.000- 257 2.02
   2  0.000  0.125  0.125-
   3  0.125  0.000  0.125- 257 2.02
   4  0.125  0.125  0.000- 257 2.02
   5  0.000  0.000  0.250-
   6  0.000  0.125  0.375-
   7  0.125  0.000  0.375-
   8  0.125  0.125  0.250-
   9  0.000  0.000  0.500-
  10  0.000  0.125  0.625-
  11  0.125  0.000  0.625-
  12  0.125  0.125  0.500-
  13  0.000  0.000  0.750-
  14  0.000  0.125  0.875-
  15  0.125  0.000  0.875- 257 2.02
  16  0.125  0.125  0.750-
  17  0.000  0.250  0.000-
  18  0.000  0.375  0.125-
  19  0.125  0.250  0.125-
  20  0.125  0.375  0.000-
  21  0.000  0.250  0.250-
  22  0.000  0.375  0.375-
  23  0.125  0.250  0.375-
  24  0.125  0.375  0.250-
  25  0.000  0.250  0.500-
  26  0.000  0.375  0.625-
  27  0.125  0.250  0.625-
  28  0.125  0.375  0.500-
  29  0.000  0.250  0.750-
  30  0.000  0.375  0.875-
  31  0.125  0.250  0.875-
  32  0.125  0.375  0.750-
  33  0.000  0.500  0.000-
  34  0.000  0.625  0.125-
  35  0.125  0.500  0.125-
  36  0.125  0.625  0.000-
  37  0.000  0.500  0.250-
  38  0.000  0.625  0.375-
  39  0.125  0.500  0.375-
  40  0.125  0.625  0.250-
  41  0.000  0.500  0.500-
  42  0.000  0.625  0.625-
  43  0.125  0.500  0.625-
  44  0.125  0.625  0.500-
  45  0.000  0.500  0.750-
  46  0.000  0.625  0.875-
  47  0.125  0.500  0.875-
  48  0.125  0.625  0.750-
  49  0.000  0.750  0.000-
  50  0.000  0.875  0.125-
  51  0.125  0.750  0.125-
  52  0.125  0.875  0.000- 257 2.02
  53  0.000  0.750  0.250-
  54  0.000  0.875  0.375-
  55  0.125  0.750  0.375-
  56  0.125  0.875  0.250-
  57  0.000  0.750  0.500-
  58  0.000  0.875  0.625-
  59  0.125  0.750  0.625-
  60  0.125  0.875  0.500-
  61  0.000  0.750  0.750-
  62  0.000  0.875  0.875-
  63  0.125  0.750  0.875-
  64  0.125  0.875  0.750-
  65  0.250  0.000  0.000- 257 2.02
  66  0.250  0.125  0.125-
  67  0.375  0.000  0.125-
  68  0.375  0.125  0.000-
  69  0.250  0.000  0.250-
  70  0.250  0.125  0.375-
  71  0.375  0.000  0.375-
  72  0.375  0.125  0.250-
  73  0.250  0.000  0.500-
  74  0.250  0.125  0.625-
  75  0.375  0.000  0.625-
  76  0.375  0.125  0.500-
  77  0.250  0.000  0.750-
  78  0.250  0.125  0.875-
  79  0.375  0.000  0.875-
  80  0.375  0.125  0.750-
  81  0.250  0.250  0.000-
  82  0.250  0.375  0.125-
  83  0.375  0.250  0.125-
  84  0.375  0.375  0.000-
  85  0.250  0.250  0.250-
  86  0.250  0.375  0.375-
  87  0.375  0.250  0.375-
  88  0.375  0.375  0.250-
  89  0.250  0.250  0.500-
  90  0.250  0.375  0.625-
  91  0.375  0.250  0.625-
  92  0.375  0.375  0.500-
  93  0.250  0.250  0.750-
  94  0.250  0.375  0.875-
  95  0.375  0.250  0.875-
  96  0.375  0.375  0.750-
  97  0.250  0.500  0.000-
  98  0.250  0.625  0.125-
  99  0.375  0.500  0.125-
 100  0.375  0.625  0.000-
 101  0.250  0.500  0.250-
 102  0.250  0.625  0.375-
 103  0.375  0.500  0.375-
 104  0.375  0.625  0.250-
 105  0.250  0.500  0.500-
 106  0.250  0.625  0.625-
 107  0.375  0.500  0.625-
 108  0.375  0.625  0.500-
 109  0.250  0.500  0.750-
 110  0.250  0.625  0.875-
 111  0.375  0.500  0.875-
 112  0.375  0.625  0.750-
 113  0.250  0.750  0.000-
 114  0.250  0.875  0.125-
 115  0.375  0.750  0.125-
 116  0.375  0.875  0.000-
 117  0.250  0.750  0.250-
 118  0.250  0.875  0.375-
 119  0.375  0.750  0.375-
 120  0.375  0.875  0.250-
 121  0.250  0.750  0.500-
 122  0.250  0.875  0.625-
 123  0.375  0.750  0.625-
 124  0.375  0.875  0.500-
 125  0.250  0.750  0.750-
 126  0.250  0.875  0.875-
 127  0.375  0.750  0.875-
 128  0.375  0.875  0.750-
 129  0.500  0.000  0.000-
 130  0.500  0.125  0.125-
 131  0.625  0.000  0.125-
 132  0.625  0.125  0.000-
 133  0.500  0.000  0.250-
 134  0.500  0.125  0.375-
 135  0.625  0.000  0.375-
 136  0.625  0.125  0.250-
 137  0.500  0.000  0.500-
 138  0.500  0.125  0.625-
 139  0.625  0.000  0.625-
 140  0.625  0.125  0.500-
 141  0.500  0.000  0.750-
 142  0.500  0.125  0.875-
 143  0.625  0.000  0.875-
 144  0.625  0.125  0.750-
 145  0.500  0.250  0.000-
 146  0.500  0.375  0.125-
 147  0.625  0.250  0.125-
 148  0.625  0.375  0.000-
 149  0.500  0.250  0.250-
 150  0.500  0.375  0.375-
 151  0.625  0.250  0.375-
 152  0.625  0.375  0.250-
 153  0.500  0.250  0.500-
 154  0.500  0.375  0.625-
 155  0.625  0.250  0.625-
 156  0.625  0.375  0.500-
 157  0.500  0.250  0.750-
 158  0.500  0.375  0.875-
 159  0.625  0.250  0.875-
 160  0.625  0.375  0.750-
 161  0.500  0.500  0.000-
 162  0.500  0.625  0.125-
 163  0.625  0.500  0.125-
 164  0.625  0.625  0.000-
 165  0.500  0.500  0.250-
 166  0.500  0.625  0.375-
 167  0.625  0.500  0.375-
 168  0.625  0.625  0.250-
 169  0.500  0.500  0.500-
 170  0.500  0.625  0.625-
 171  0.625  0.500  0.625-
 172  0.625  0.625  0.500-
 173  0.500  0.500  0.750-
 174  0.500  0.625  0.875-
 175  0.625  0.500  0.875-
 176  0.625  0.625  0.750-
 177  0.500  0.750  0.000-
 178  0.500  0.875  0.125-
 179  0.625  0.750  0.125-
 180  0.625  0.875  0.000-
 181  0.500  0.750  0.250-
 182  0.500  0.875  0.375-
 183  0.625  0.750  0.375-
 184  0.625  0.875  0.250-
 185  0.500  0.750  0.500-
 186  0.500  0.875  0.625-
 187  0.625  0.750  0.625-
 188  0.625  0.875  0.500-
 189  0.500  0.750  0.750-
 190  0.500  0.875  0.875-
 191  0.625  0.750  0.875-
 192  0.625  0.875  0.750-
 193  0.750  0.000  0.000-
 194  0.750  0.125  0.125-
 195  0.875  0.000  0.125-
 196  0.875  0.125  0.000-
 197  0.750  0.000  0.250-
 198  0.750  0.125  0.375-
 199  0.875  0.000  0.375-
 200  0.875  0.125  0.250-
 201  0.750  0.000  0.500-
 202  0.750  0.125  0.625-
 203  0.875  0.000  0.625-
 204  0.875  0.125  0.500-
 205  0.750  0.000  0.750-
 206  0.750  0.125  0.875-
 207  0.875  0.000  0.875-
 208  0.875  0.125  0.750-
 209  0.750  0.250  0.000-
 210  0.750  0.375  0.125-
 211  0.875  0.250  0.125-
 212  0.875  0.375  0.000-
 213  0.750  0.250  0.250-
 214  0.750  0.375  0.375-
 215  0.875  0.250  0.375-
 216  0.875  0.375  0.250-
 217  0.750  0.250  0.500-
 218  0.750  0.375  0.625-
 219  0.875  0.250  0.625-
 220  0.875  0.375  0.500-
 221  0.750  0.250  0.750-
 222  0.750  0.375  0.875-
 223  0.875  0.250  0.875-
 224  0.875  0.375  0.750-
 225  0.750  0.500  0.000-
 226  0.750  0.625  0.125-
 227  0.875  0.500  0.125-
 228  0.875  0.625  0.000-
 229  0.750  0.500  0.250-
 230  0.750  0.625  0.375-
 231  0.875  0.500  0.375-
 232  0.875  0.625  0.250-
 233  0.750  0.500  0.500-
 234  0.750  0.625  0.625-
 235  0.875  0.500  0.625-
 236  0.875  0.625  0.500-
 237  0.750  0.500  0.750-
 238  0.750  0.625  0.875-
 239  0.875  0.500  0.875-
 240  0.875  0.625  0.750-
 241  0.750  0.750  0.000-
 242  0.750  0.875  0.125-
 243  0.875  0.750  0.125-
 244  0.875  0.875  0.000-
 245  0.750  0.750  0.250-
 246  0.750  0.875  0.375-
 247  0.875  0.750  0.375-
 248  0.875  0.875  0.250-
 249  0.750  0.750  0.500-
 250  0.750  0.875  0.625-
 251  0.875  0.750  0.625-
 252  0.875  0.875  0.500-
 253  0.750  0.750  0.750-
 254  0.750  0.875  0.875-
 255  0.875  0.750  0.875-
 256  0.875  0.875  0.750-
 257  0.125  0.000  0.000-   1 2.02   3 2.02   4 2.02  15 2.02  52 2.02  65 2.02
 
  LATTYP: Found a simple cubic cell.
 ALAT       =    16.1980000000
  
  Lattice vectors:
  
 A1 = (  16.1980000000,   0.0000000000,   0.0000000000)
 A2 = (   0.0000000000,  16.1980000000,   0.0000000000)
 A3 = (   0.0000000000,   0.0000000000,  16.1980000000)


Analysis of symmetry for initial positions (statically):
=====================================================================
 Subroutine PRICEL returns:
 Original cell was already a primitive cell.
 

 Routine SETGRP: Setting up the symmetry group for a 
 simple cubic supercell.


 Subroutine GETGRP returns: Found 48 space group operations
 (whereof  8 operations were pure point group operations)
 out of a pool of 48 trial point group operations.


The static configuration has the point symmetry C_4v.
 The point group associated with its full space group is O_h .


Analysis of symmetry for dynamics (positions and initial velocities):
=====================================================================
 Subroutine PRICEL returns:
 Original cell was already a primitive cell.
 

 Routine SETGRP: Setting up the symmetry group for a 
 simple cubic supercell.


 Subroutine GETGRP returns: Found 48 space group operations
 (whereof  8 operations were pure point group operations)
 out of a pool of 48 trial point group operations.


The dynamic configuration has the point symmetry C_4v.
 The point group associated with its full space group is O_h .


 Subroutine INISYM returns: Found 48 space group operations
 (whereof  8 operations are pure point group operations),
 and found     1 'primitive' translations

 
 
 KPOINTS: Automatic generation                    

Automatic generation of k-mesh.
Space group operators:
 irot       det(A)        alpha          n_x          n_y          n_z        tau_x        tau_y        tau_z
    1     1.000000     0.000000     1.000000     0.000000     0.000000     0.000000     0.000000     0.000000
    2    -1.000000   180.000000     0.000000     0.707107     0.707107     0.000000     0.000000     0.000000
    3    -1.000000   180.000000     0.000000     0.000000     1.000000     0.000000     0.000000     0.000000
    4     1.000000    90.000000    -1.000000     0.000000     0.000000     0.000000     0.000000     0.000000
    5     1.000000   180.000000     1.000000     0.000000     0.000000     0.000000     0.000000     0.000000
    6     1.000000    90.000000     1.000000     0.000000     0.000000     0.000000     0.000000     0.000000
    7    -1.000000   180.000000     0.000000     1.000000     0.000000     0.000000     0.000000     0.000000
    8    -1.000000   180.000000     0.000000    -0.707107     0.707107     0.000000     0.000000     0.000000
    9    -1.000000     0.000000     1.000000     0.000000     0.000000     0.250000     0.000000     0.000000
   10     1.000000   120.000000    -0.577350    -0.577350    -0.577350     0.125000     0.875000     0.000000
   11    -1.000000   120.000000    -0.577350    -0.577350    -0.577350     0.125000     0.125000     0.000000
   12     1.000000   120.000000     0.577350     0.577350     0.577350     0.125000     0.000000     0.875000
   13    -1.000000   120.000000     0.577350     0.577350     0.577350     0.125000     0.000000     0.125000
   14     1.000000    90.000000     0.000000     0.000000    -1.000000     0.125000     0.875000     0.000000
   15    -1.000000    90.000000     0.000000     0.000000    -1.000000     0.125000     0.125000     0.000000
   16     1.000000   180.000000     0.000000     0.707107     0.707107     0.250000     0.000000     0.000000
   17     1.000000    90.000000     0.000000     1.000000     0.000000     0.125000     0.000000     0.875000
   18    -1.000000    90.000000     0.000000     1.000000     0.000000     0.125000     0.000000     0.125000
   19     1.000000   180.000000     0.000000     0.000000     1.000000     0.250000     0.000000     0.000000
   20     1.000000   120.000000    -0.577350     0.577350     0.577350     0.125000     0.125000     0.000000
   21    -1.000000   120.000000    -0.577350     0.577350     0.577350     0.125000     0.875000     0.000000
   22     1.000000   120.000000    -0.577350     0.577350    -0.577350     0.125000     0.000000     0.875000
   23    -1.000000   120.000000    -0.577350     0.577350    -0.577350     0.125000     0.000000     0.125000
   24     1.000000    90.000000     0.000000     0.000000     1.000000     0.125000     0.125000     0.000000
   25    -1.000000    90.000000     0.000000     0.000000     1.000000     0.125000     0.875000     0.000000
   26    -1.000000    90.000000    -1.000000     0.000000     0.000000     0.250000     0.000000     0.000000
   27     1.000000   180.000000     0.707107     0.000000     0.707107     0.125000     0.000000     0.875000
   28    -1.000000   180.000000     0.707107     0.000000     0.707107     0.125000     0.000000     0.125000
   29     1.000000   120.000000     0.577350    -0.577350     0.577350     0.125000     0.125000     0.000000
   30    -1.000000   120.000000     0.577350    -0.577350     0.577350     0.125000     0.875000     0.000000
   31     1.000000   120.000000    -0.577350    -0.577350     0.577350     0.125000     0.000000     0.125000
   32    -1.000000   120.000000    -0.577350    -0.577350     0.577350     0.125000     0.000000     0.875000
   33    -1.000000   180.000000     1.000000     0.000000     0.000000     0.250000     0.000000     0.000000
   34     1.000000    90.000000     0.000000    -1.000000     0.000000     0.125000     0.000000     0.125000
   35    -1.000000    90.000000     0.000000    -1.000000     0.000000     0.125000     0.000000     0.875000
   36     1.000000   180.000000     0.707107     0.707107     0.000000     0.125000     0.875000     0.000000
   37    -1.000000   180.000000     0.707107     0.707107     0.000000     0.125000     0.125000     0.000000
   38    -1.000000    90.000000     1.000000     0.000000     0.000000     0.250000     0.000000     0.000000
   39     1.000000   120.000000     0.577350    -0.577350    -0.577350     0.125000     0.000000     0.125000
   40    -1.000000   120.000000     0.577350    -0.577350    -0.577350     0.125000     0.000000     0.875000
   41     1.000000   180.000000     0.000000     1.000000     0.000000     0.250000     0.000000     0.000000
   42     1.000000   120.000000     0.577350     0.577350    -0.577350     0.125000     0.875000     0.000000
   43    -1.000000   120.000000     0.577350     0.577350    -0.577350     0.125000     0.125000     0.000000
   44     1.000000   180.000000     0.000000    -0.707107     0.707107     0.250000     0.000000     0.000000
   45     1.000000   180.000000     0.707107    -0.707107     0.000000     0.125000     0.125000     0.000000
   46    -1.000000   180.000000     0.707107    -0.707107     0.000000     0.125000     0.875000     0.000000
   47     1.000000   180.000000     0.707107     0.000000    -0.707107     0.125000     0.000000     0.125000
   48    -1.000000   180.000000     0.707107     0.000000    -0.707107     0.125000     0.000000     0.875000
 
 Subroutine IBZKPT returns following result:
 ===========================================
 
 Found      4 irreducible k-points:
 
 Following reciprocal coordinates:
            Coordinates               Weight
  0.000000  0.000000  0.000000      1.000000
  0.500000  0.000000  0.000000      3.000000
  0.500000  0.500000  0.000000      3.000000
  0.500000  0.500000  0.500000      1.000000
 
 Following cartesian coordinates:
            Coordinates               Weight
  0.000000  0.000000  0.000000      1.000000
  0.030868  0.000000  0.000000      3.000000
  0.030868  0.030868  0.000000      3.000000
  0.030868  0.030868  0.030868      1.000000
 


--------------------------------------------------------------------------------------------------------




 Dimension of arrays:
   k-points           NKPTS =      4   k-points in BZ     NKDIM =      4   number of bands    NBANDS=    516
   number of dos      NEDOS =    301   number of ions     NIONS =    257
   non local maximal  LDIM  =      6   non local SUM 2l+1 LMDIM =     18
   total plane-waves  NPLWV = 343000
   max r-space proj   IRMAX =   3374   max aug-charges    IRDMAX=   3340
   dimension x,y,z NGX =    70 NGY =   70 NGZ =   70
   dimension x,y,z NGXF=   140 NGYF=  140 NGZF=  140
   support grid    NGXF=   140 NGYF=  140 NGZF=  140
   ions per type =             256   1
   NGX,Y,Z   is equivalent  to a cutoff of   7.18,  7.18,  7.18 a.u.
   NGXF,Y,Z  is equivalent  to a cutoff of  14.37, 14.37, 14.37 a.u.

 SYSTEM =  NiAl                                    
 POSCAR =  New structure                           

 Startparameter for this run:
   NWRITE =      2    write-flag & timer
   PREC   = normal    normal or accurate (medium, high low for compatibility)
   ISTART =      0    job   : 0-new  1-cont  2-samecut
   ICHARG =      2    charge: 1-file 2-atom 10-const
   ISPIN  =      1    spin polarized calculation?
   LNONCOLLINEAR =      F non collinear calculations
   LSORBIT =      F    spin-orbit coupling
   INIWAV =      1    electr: 0-lowe 1-rand  2-diag
   LASPH  =      F    aspherical Exc in radial PAW
   METAGGA=      F    non-selfconsistent MetaGGA calc.

 Electronic Relaxation 1
   ENCUT  =  300.0 eV  22.05 Ry    4.70 a.u.  22.88 22.88 22.88*2*pi/ulx,y,z
   ENINI  =  300.0     initial cutoff
   ENAUG  =  627.1 eV  augmentation charge cutoff
   NELM   =     60;   NELMIN=  6; NELMDL= -5     # of ELM steps 
   EDIFF  = 0.5E-05   stopping-criterion for ELM
   LREAL  =      T    real-space projection
   NLSPLINE    = F    spline interpolate recip. space projectors
   LCOMPAT=      F    compatible to vasp.4.4
   GGA_COMPAT  = T    GGA compatible to vasp.4.4-vasp.4.6
   LMAXPAW     = -100 max onsite density
   LMAXMIX     =    2 max onsite mixed and CHGCAR
   VOSKOWN=      0    Vosko Wilk Nusair interpolation
   ROPT   =   -0.00050  -0.00050
 Ionic relaxation
   EDIFFG = 0.5E-04   stopping-criterion for IOM
   NSW    =     40    number of steps for IOM
   NBLOCK =      1;   KBLOCK =     40    inner block; outer block 
   IBRION =      2    ionic relax: 0-MD 1-quasi-New 2-CG
   NFREE  =      1    steps in history (QN), initial steepest desc. (CG)
   ISIF   =      1    stress and relaxation
   IWAVPR =     11    prediction:  0-non 1-charg 2-wave 3-comb
   ISYM   =      2    0-nonsym 1-usesym 2-fastsym
   LCORR  =      T    Harris-Foulkes like correction to forces

   POTIM  = 0.2000    time-step for ionic-motion
   TEIN   =    0.0    initial temperature
   TEBEG  =    0.0;   TEEND  =   0.0 temperature during run
   SMASS  =  -3.00    Nose mass-parameter (am)
   estimated Nose-frequenzy (Omega)   =  0.10E-29 period in steps =****** mass=  -0.600E-26a.u.
   SCALEE = 1.0000    scale energy and forces
   NPACO  =    256;   APACO  = 16.0  distance and # of slots for P.C.
   PSTRESS=    0.0 pullay stress

  Mass of Ions in am
   POMASS =  26.98 14.00
  Ionic Valenz
   ZVAL   =   3.00  5.00
  Atomic Wigner-Seitz radii
   RWIGS  =  -1.00 -1.00
  virtual crystal weights 
   VCA    =   1.00  1.00
   NELECT =     773.0000    total number of electrons
   NUPDOWN=      -1.0000    fix difference up-down

 DOS related values:
   EMIN   =  10.00;   EMAX   =-10.00  energy-range for DOS
   EFERMI =   0.00
   ISMEAR =     0;   SIGMA  =   0.05  broadening in eV -4-tet -1-fermi 0-gaus

 Electronic relaxation 2 (details)
   IALGO  =     38    algorithm
   LDIAG  =      T    sub-space diagonalisation (order eigenvalues)
   LSUBROT=      F    optimize rotation matrix (better conditioning)
   TURBO    =      0    0=normal 1=particle mesh
   IRESTART =      0    0=no restart 2=restart with 2 vectors
   NREBOOT  =      0    no. of reboots
   NMIN     =      0    reboot dimension
   EREF     =   0.00    reference energy to select bands
   IMIX   =      4    mixing-type and parameters
     AMIX     =   0.40;   BMIX     =  1.00
     AMIX_MAG =   1.60;   BMIX_MAG =  1.00
     AMIN     =   0.10
     WC   =   100.;   INIMIX=   1;  MIXPRE=   1;  MAXMIX= -45

 Intra band minimization:
   WEIMIN = 0.0010     energy-eigenvalue tresh-hold
   EBREAK =  0.24E-08  absolut break condition
   DEPER  =   0.30     relativ break condition  

   TIME   =   0.40     timestep for ELM

  volume/ion in A,a.u.               =      16.54       111.60
  Fermi-wavevector in a.u.,A,eV,Ry     =   0.927556  1.752826 11.705899  0.860359
  Thomas-Fermi vector in A             =   2.053638
 
 Write flags
   LWAVE        =      F    write WAVECAR
   LDOWNSAMPLE  =      F    k-point downsampling of WAVECAR
   LCHARG       =      F    write CHGCAR
   LVTOT        =      F    write LOCPOT, total local potential
   LVHAR        =      F    write LOCPOT, Hartree potential only
   LELF         =      F    write electronic localiz. function (ELF)
   LORBIT       =      0    0 simple, 1 ext, 2 COOP (PROOUT), +10 PAW based schemes


 Dipole corrections
   LMONO  =      F    monopole corrections only (constant potential shift)
   LDIPOL =      F    correct potential (dipole corrections)
   IDIPOL =      0    1-x, 2-y, 3-z, 4-all directions 
   EPSILON=  1.0000000 bulk dielectric constant

 Exchange correlation treatment:
   GGA     =    --    GGA type
   LEXCH   =     8    internal setting for exchange type
   VOSKOWN=      0    Vosko Wilk Nusair interpolation
   LHFCALC =     F    Hartree Fock is set to
   LHFONE  =     F    Hartree Fock one center treatment
   AEXX    =    0.0000 exact exchange contribution

 Linear response parameters
   LEPSILON=     F    determine dielectric tensor
   LRPA    =     F    only Hartree local field effects (RPA)
   LNABLA  =     F    use nabla operator in PAW spheres
   LVEL    =     F    velocity operator in full k-point grid
   LINTERFAST=   F  fast interpolation
   KINTER  =     0    interpolate to denser k-point grid
   CSHIFT  =0.1000    complex shift for real part using Kramers Kronig
   OMEGAMAX=  -1.0    maximum frequency
   DEG_THRESHOLD= 0.2000000E-02 threshold for treating states as degnerate
   RTIME   =   -0.100 relaxation time in fs
  (WPLASMAI=    0.000 imaginary part of plasma frequency in eV, 0.658/RTIME)
   DFIELD  = 0.0000000 0.0000000 0.0000000 field for delta impulse in time
 
 Orbital magnetization related:
   ORBITALMAG=     F  switch on orbital magnetization
   LCHIMAG   =     F  perturbation theory with respect to B field
   DQ        =  0.001000  dq finite difference perturbation B field
   LLRAUG    =     F  two centre corrections for induced B field



--------------------------------------------------------------------------------------------------------


 conjugate gradient relaxation of ions
 charge density and potential will be updated during run
 non-spin polarized calculation
 Variant of blocked Davidson
 Davidson routine will perform the subspace rotation
 perform sub-space diagonalisation
    after iterative eigenvector-optimisation
 modified Broyden-mixing scheme, WC =      100.0
 initial mixing is a Kerker type mixing with AMIX =  0.4000 and BMIX =      1.0000
 Hartree-type preconditioning will be used
 using additional bands          129
 real space projection scheme for non local part
 use partial core corrections
 calculate Harris-corrections to forces 
   (improved forces if not selfconsistent)
 use gradient corrections 
 use of overlap-Matrix (Vanderbilt PP)
 Gauss-broadening in eV      SIGMA  =   0.05


--------------------------------------------------------------------------------------------------------


  energy-cutoff  :      300.00
  volume of cell :     4249.95
      direct lattice vectors                 reciprocal lattice vectors
    16.198000000  0.000000000  0.000000000     0.061736017  0.000000000  0.000000000
     0.000000000 16.198000000  0.000000000     0.000000000  0.061736017  0.000000000
     0.000000000  0.000000000 16.198000000     0.000000000  0.000000000  0.061736017

  length of vectors
    16.198000000 16.198000000 16.198000000     0.061736017  0.061736017  0.061736017


 
 k-points in units of 2pi/SCALE and weight: Automatic generation                    
   0.00000000  0.00000000  0.00000000       0.125
   0.03086801  0.00000000  0.00000000       0.375
   0.03086801  0.03086801  0.00000000       0.375
   0.03086801  0.03086801  0.03086801       0.125
 
 k-points in reciprocal lattice and weights: Automatic generation                    
   0.00000000  0.00000000  0.00000000       0.125
   0.50000000  0.00000000  0.00000000       0.375
   0.50000000  0.50000000  0.00000000       0.375
   0.50000000  0.50000000  0.50000000       0.125
 
 position of ions in fractional coordinates (direct lattice) 
   0.00000000  0.00000000  0.00000000
   0.00000000  0.12500000  0.12500000
   0.12500000  0.00000000  0.12500000
   0.12500000  0.12500000  0.00000000
   0.00000000  0.00000000  0.25000000
   0.00000000  0.12500000  0.37500000
   0.12500000  0.00000000  0.37500000
   0.12500000  0.12500000  0.25000000
   0.00000000  0.00000000  0.50000000
   0.00000000  0.12500000  0.62500000
   0.12500000  0.00000000  0.62500000
   0.12500000  0.12500000  0.50000000
   0.00000000  0.00000000  0.75000000
   0.00000000  0.12500000  0.87500000
   0.12500000  0.00000000  0.87500000
   0.12500000  0.12500000  0.75000000
   0.00000000  0.25000000  0.00000000
   0.00000000  0.37500000  0.12500000
   0.12500000  0.25000000  0.12500000
   0.12500000  0.37500000  0.00000000
   0.00000000  0.25000000  0.25000000
   0.00000000  0.37500000  0.37500000
   0.12500000  0.25000000  0.37500000
   0.12500000  0.37500000  0.25000000
   0.00000000  0.25000000  0.50000000
   0.00000000  0.37500000  0.62500000
   0.12500000  0.25000000  0.62500000
   0.12500000  0.37500000  0.50000000
   0.00000000  0.25000000  0.75000000
   0.00000000  0.37500000  0.87500000
   0.12500000  0.25000000  0.87500000
   0.12500000  0.37500000  0.75000000
   0.00000000  0.50000000  0.00000000
   0.00000000  0.62500000  0.12500000
   0.12500000  0.50000000  0.12500000
   0.12500000  0.62500000  0.00000000
   0.00000000  0.50000000  0.25000000
   0.00000000  0.62500000  0.37500000
   0.12500000  0.50000000  0.37500000
   0.12500000  0.62500000  0.25000000
   0.00000000  0.50000000  0.50000000
   0.00000000  0.62500000  0.62500000
   0.12500000  0.50000000  0.62500000
   0.12500000  0.62500000  0.50000000
   0.00000000  0.50000000  0.75000000
   0.00000000  0.62500000  0.87500000
   0.12500000  0.50000000  0.87500000
   0.12500000  0.62500000  0.75000000
   0.00000000  0.75000000  0.00000000
   0.00000000  0.87500000  0.12500000
   0.12500000  0.75000000  0.12500000
   0.12500000  0.87500000  0.00000000
   0.00000000  0.75000000  0.25000000
   0.00000000  0.87500000  0.37500000
   0.12500000  0.75000000  0.37500000
   0.12500000  0.87500000  0.25000000
   0.00000000  0.75000000  0.50000000
   0.00000000  0.87500000  0.62500000
   0.12500000  0.75000000  0.62500000
   0.12500000  0.87500000  0.50000000
   0.00000000  0.75000000  0.75000000
   0.00000000  0.87500000  0.87500000
   0.12500000  0.75000000  0.87500000
   0.12500000  0.87500000  0.75000000
   0.25000000  0.00000000  0.00000000
   0.25000000  0.12500000  0.12500000
   0.37500000  0.00000000  0.12500000
   0.37500000  0.12500000  0.00000000
   0.25000000  0.00000000  0.25000000
   0.25000000  0.12500000  0.37500000
   0.37500000  0.00000000  0.37500000
   0.37500000  0.12500000  0.25000000
   0.25000000  0.00000000  0.50000000
   0.25000000  0.12500000  0.62500000
   0.37500000  0.00000000  0.62500000
   0.37500000  0.12500000  0.50000000
   0.25000000  0.00000000  0.75000000
   0.25000000  0.12500000  0.87500000
   0.37500000  0.00000000  0.87500000
   0.37500000  0.12500000  0.75000000
   0.25000000  0.25000000  0.00000000
   0.25000000  0.37500000  0.12500000
   0.37500000  0.25000000  0.12500000
   0.37500000  0.37500000  0.00000000
   0.25000000  0.25000000  0.25000000
   0.25000000  0.37500000  0.37500000
   0.37500000  0.25000000  0.37500000
   0.37500000  0.37500000  0.25000000
   0.25000000  0.25000000  0.50000000
   0.25000000  0.37500000  0.62500000
   0.37500000  0.25000000  0.62500000
   0.37500000  0.37500000  0.50000000
   0.25000000  0.25000000  0.75000000
   0.25000000  0.37500000  0.87500000
   0.37500000  0.25000000  0.87500000
   0.37500000  0.37500000  0.75000000
   0.25000000  0.50000000  0.00000000
   0.25000000  0.62500000  0.12500000
   0.37500000  0.50000000  0.12500000
   0.37500000  0.62500000  0.00000000
   0.25000000  0.50000000  0.25000000
   0.25000000  0.62500000  0.37500000
   0.37500000  0.50000000  0.37500000
   0.37500000  0.62500000  0.25000000
   0.25000000  0.50000000  0.50000000
   0.25000000  0.62500000  0.62500000
   0.37500000  0.50000000  0.62500000
   0.37500000  0.62500000  0.50000000
   0.25000000  0.50000000  0.75000000
   0.25000000  0.62500000  0.87500000
   0.37500000  0.50000000  0.87500000
   0.37500000  0.62500000  0.75000000
   0.25000000  0.75000000  0.00000000
   0.25000000  0.87500000  0.12500000
   0.37500000  0.75000000  0.12500000
   0.37500000  0.87500000  0.00000000
   0.25000000  0.75000000  0.25000000
   0.25000000  0.87500000  0.37500000
   0.37500000  0.75000000  0.37500000
   0.37500000  0.87500000  0.25000000
   0.25000000  0.75000000  0.50000000
   0.25000000  0.87500000  0.62500000
   0.37500000  0.75000000  0.62500000
   0.37500000  0.87500000  0.50000000
   0.25000000  0.75000000  0.75000000
   0.25000000  0.87500000  0.87500000
   0.37500000  0.75000000  0.87500000
   0.37500000  0.87500000  0.75000000
   0.50000000  0.00000000  0.00000000
   0.50000000  0.12500000  0.12500000
   0.62500000  0.00000000  0.12500000
   0.62500000  0.12500000  0.00000000
   0.50000000  0.00000000  0.25000000
   0.50000000  0.12500000  0.37500000
   0.62500000  0.00000000  0.37500000
   0.62500000  0.12500000  0.25000000
   0.50000000  0.00000000  0.50000000
   0.50000000  0.12500000  0.62500000
   0.62500000  0.00000000  0.62500000
   0.62500000  0.12500000  0.50000000
   0.50000000  0.00000000  0.75000000
   0.50000000  0.12500000  0.87500000
   0.62500000  0.00000000  0.87500000
   0.62500000  0.12500000  0.75000000
   0.50000000  0.25000000  0.00000000
   0.50000000  0.37500000  0.12500000
   0.62500000  0.25000000  0.12500000
   0.62500000  0.37500000  0.00000000
   0.50000000  0.25000000  0.25000000
   0.50000000  0.37500000  0.37500000
   0.62500000  0.25000000  0.37500000
   0.62500000  0.37500000  0.25000000
   0.50000000  0.25000000  0.50000000
   0.50000000  0.37500000  0.62500000
   0.62500000  0.25000000  0.62500000
   0.62500000  0.37500000  0.50000000
   0.50000000  0.25000000  0.75000000
   0.50000000  0.37500000  0.87500000
   0.62500000  0.25000000  0.87500000
   0.62500000  0.37500000  0.75000000
   0.50000000  0.50000000  0.00000000
   0.50000000  0.62500000  0.12500000
   0.62500000  0.50000000  0.12500000
   0.62500000  0.62500000  0.00000000
   0.50000000  0.50000000  0.25000000
   0.50000000  0.62500000  0.37500000
   0.62500000  0.50000000  0.37500000
   0.62500000  0.62500000  0.25000000
   0.50000000  0.50000000  0.50000000
   0.50000000  0.62500000  0.62500000
   0.62500000  0.50000000  0.62500000
   0.62500000  0.62500000  0.50000000
   0.50000000  0.50000000  0.75000000
   0.50000000  0.62500000  0.87500000
   0.62500000  0.50000000  0.87500000
   0.62500000  0.62500000  0.75000000
   0.50000000  0.75000000  0.00000000
   0.50000000  0.87500000  0.12500000
   0.62500000  0.75000000  0.12500000
   0.62500000  0.87500000  0.00000000
   0.50000000  0.75000000  0.25000000
   0.50000000  0.87500000  0.37500000
   0.62500000  0.75000000  0.37500000
   0.62500000  0.87500000  0.25000000
   0.50000000  0.75000000  0.50000000
   0.50000000  0.87500000  0.62500000
   0.62500000  0.75000000  0.62500000
   0.62500000  0.87500000  0.50000000
   0.50000000  0.75000000  0.75000000
   0.50000000  0.87500000  0.87500000
   0.62500000  0.75000000  0.87500000
   0.62500000  0.87500000  0.75000000
   0.75000000  0.00000000  0.00000000
   0.75000000  0.12500000  0.12500000
   0.87500000  0.00000000  0.12500000
   0.87500000  0.12500000  0.00000000
   0.75000000  0.00000000  0.25000000
   0.75000000  0.12500000  0.37500000
   0.87500000  0.00000000  0.37500000
   0.87500000  0.12500000  0.25000000
   0.75000000  0.00000000  0.50000000
   0.75000000  0.12500000  0.62500000
   0.87500000  0.00000000  0.62500000
   0.87500000  0.12500000  0.50000000
   0.75000000  0.00000000  0.75000000
   0.75000000  0.12500000  0.87500000
   0.87500000  0.00000000  0.87500000
   0.87500000  0.12500000  0.75000000
   0.75000000  0.25000000  0.00000000
   0.75000000  0.37500000  0.12500000
   0.87500000  0.25000000  0.12500000
   0.87500000  0.37500000  0.00000000
   0.75000000  0.25000000  0.25000000
   0.75000000  0.37500000  0.37500000
   0.87500000  0.25000000  0.37500000
   0.87500000  0.37500000  0.25000000
   0.75000000  0.25000000  0.50000000
   0.75000000  0.37500000  0.62500000
   0.87500000  0.25000000  0.62500000
   0.87500000  0.37500000  0.50000000
   0.75000000  0.25000000  0.75000000
   0.75000000  0.37500000  0.87500000
   0.87500000  0.25000000  0.87500000
   0.87500000  0.37500000  0.75000000
   0.75000000  0.50000000  0.00000000
   0.75000000  0.62500000  0.12500000
   0.87500000  0.50000000  0.12500000
   0.87500000  0.62500000  0.00000000
   0.75000000  0.50000000  0.25000000
   0.75000000  0.62500000  0.37500000
   0.87500000  0.50000000  0.37500000
   0.87500000  0.62500000  0.25000000
   0.75000000  0.50000000  0.50000000
   0.75000000  0.62500000  0.62500000
   0.87500000  0.50000000  0.62500000
   0.87500000  0.62500000  0.50000000
   0.75000000  0.50000000  0.75000000
   0.75000000  0.62500000  0.87500000
   0.87500000  0.50000000  0.87500000
   0.87500000  0.62500000  0.75000000
   0.75000000  0.75000000  0.00000000
   0.75000000  0.87500000  0.12500000
   0.87500000  0.75000000  0.12500000
   0.87500000  0.87500000  0.00000000
   0.75000000  0.75000000  0.25000000
   0.75000000  0.87500000  0.37500000
   0.87500000  0.75000000  0.37500000
   0.87500000  0.87500000  0.25000000
   0.75000000  0.75000000  0.50000000
   0.75000000  0.87500000  0.62500000
   0.87500000  0.75000000  0.62500000
   0.87500000  0.87500000  0.50000000
   0.75000000  0.75000000  0.75000000
   0.75000000  0.87500000  0.87500000
   0.87500000  0.75000000  0.87500000
   0.87500000  0.87500000  0.75000000
   0.12500000  0.00000000  0.00000000
 
 position of ions in cartesian coordinates  (Angst):
   0.00000000  0.00000000  0.00000000
   0.00000000  2.02475000  2.02475000
   2.02475000  0.00000000  2.02475000
   2.02475000  2.02475000  0.00000000
   0.00000000  0.00000000  4.04950000
   0.00000000  2.02475000  6.07425000
   2.02475000  0.00000000  6.07425000
   2.02475000  2.02475000  4.04950000
   0.00000000  0.00000000  8.09900000
   0.00000000  2.02475000 10.12375000
   2.02475000  0.00000000 10.12375000
   2.02475000  2.02475000  8.09900000
   0.00000000  0.00000000 12.14850000
   0.00000000  2.02475000 14.17325000
   2.02475000  0.00000000 14.17325000
   2.02475000  2.02475000 12.14850000
   0.00000000  4.04950000  0.00000000
   0.00000000  6.07425000  2.02475000
   2.02475000  4.04950000  2.02475000
   2.02475000  6.07425000  0.00000000
   0.00000000  4.04950000  4.04950000
   0.00000000  6.07425000  6.07425000
   2.02475000  4.04950000  6.07425000
   2.02475000  6.07425000  4.04950000
   0.00000000  4.04950000  8.09900000
   0.00000000  6.07425000 10.12375000
   2.02475000  4.04950000 10.12375000
   2.02475000  6.07425000  8.09900000
   0.00000000  4.04950000 12.14850000
   0.00000000  6.07425000 14.17325000
   2.02475000  4.04950000 14.17325000
   2.02475000  6.07425000 12.14850000
   0.00000000  8.09900000  0.00000000
   0.00000000 10.12375000  2.02475000
   2.02475000  8.09900000  2.02475000
   2.02475000 10.12375000  0.00000000
   0.00000000  8.09900000  4.04950000
   0.00000000 10.12375000  6.07425000
   2.02475000  8.09900000  6.07425000
   2.02475000 10.12375000  4.04950000
   0.00000000  8.09900000  8.09900000
   0.00000000 10.12375000 10.12375000
   2.02475000  8.09900000 10.12375000
   2.02475000 10.12375000  8.09900000
   0.00000000  8.09900000 12.14850000
   0.00000000 10.12375000 14.17325000
   2.02475000  8.09900000 14.17325000
   2.02475000 10.12375000 12.14850000
   0.00000000 12.14850000  0.00000000
   0.00000000 14.17325000  2.02475000
   2.02475000 12.14850000  2.02475000
   2.02475000 14.17325000  0.00000000
   0.00000000 12.14850000  4.04950000
   0.00000000 14.17325000  6.07425000
   2.02475000 12.14850000  6.07425000
   2.02475000 14.17325000  4.04950000
   0.00000000 12.14850000  8.09900000
   0.00000000 14.17325000 10.12375000
   2.02475000 12.14850000 10.12375000
   2.02475000 14.17325000  8.09900000
   0.00000000 12.14850000 12.14850000
   0.00000000 14.17325000 14.17325000
   2.02475000 12.14850000 14.17325000
   2.02475000 14.17325000 12.14850000
   4.04950000  0.00000000  0.00000000
   4.04950000  2.02475000  2.02475000
   6.07425000  0.00000000  2.02475000
   6.07425000  2.02475000  0.00000000
   4.04950000  0.00000000  4.04950000
   4.04950000  2.02475000  6.07425000
   6.07425000  0.00000000  6.07425000
   6.07425000  2.02475000  4.04950000
   4.04950000  0.00000000  8.09900000
   4.04950000  2.02475000 10.12375000
   6.07425000  0.00000000 10.12375000
   6.07425000  2.02475000  8.09900000
   4.04950000  0.00000000 12.14850000
   4.04950000  2.02475000 14.17325000
   6.07425000  0.00000000 14.17325000
   6.07425000  2.02475000 12.14850000
   4.04950000  4.04950000  0.00000000
   4.04950000  6.07425000  2.02475000
   6.07425000  4.04950000  2.02475000
   6.07425000  6.07425000  0.00000000
   4.04950000  4.04950000  4.04950000
   4.04950000  6.07425000  6.07425000
   6.07425000  4.04950000  6.07425000
   6.07425000  6.07425000  4.04950000
   4.04950000  4.04950000  8.09900000
   4.04950000  6.07425000 10.12375000
   6.07425000  4.04950000 10.12375000
   6.07425000  6.07425000  8.09900000
   4.04950000  4.04950000 12.14850000
   4.04950000  6.07425000 14.17325000
   6.07425000  4.04950000 14.17325000
   6.07425000  6.07425000 12.14850000
   4.04950000  8.09900000  0.00000000
   4.04950000 10.12375000  2.02475000
   6.07425000  8.09900000  2.02475000
   6.07425000 10.12375000  0.00000000
   4.04950000  8.09900000  4.04950000
   4.04950000 10.12375000  6.07425000
   6.07425000  8.09900000  6.07425000
   6.07425000 10.12375000  4.04950000
   4.04950000  8.09900000  8.09900000
   4.04950000 10.12375000 10.12375000
   6.07425000  8.09900000 10.12375000
   6.07425000 10.12375000  8.09900000
   4.04950000  8.09900000 12.14850000
   4.04950000 10.12375000 14.17325000
   6.07425000  8.09900000 14.17325000
   6.07425000 10.12375000 12.14850000
   4.04950000 12.14850000  0.00000000
   4.04950000 14.17325000  2.02475000
   6.07425000 12.14850000  2.02475000
   6.07425000 14.17325000  0.00000000
   4.04950000 12.14850000  4.04950000
   4.04950000 14.17325000  6.07425000
   6.07425000 12.14850000  6.07425000
   6.07425000 14.17325000  4.04950000
   4.04950000 12.14850000  8.09900000
   4.04950000 14.17325000 10.12375000
   6.07425000 12.14850000 10.12375000
   6.07425000 14.17325000  8.09900000
   4.04950000 12.14850000 12.14850000
   4.04950000 14.17325000 14.17325000
   6.07425000 12.14850000 14.17325000
   6.07425000 14.17325000 12.14850000
   8.09900000  0.00000000  0.00000000
   8.09900000  2.02475000  2.02475000
  10.12375000  0.00000000  2.02475000
  10.12375000  2.02475000  0.00000000
   8.09900000  0.00000000  4.04950000
   8.09900000  2.02475000  6.07425000
  10.12375000  0.00000000  6.07425000
  10.12375000  2.02475000  4.04950000
   8.09900000  0.00000000  8.09900000
   8.09900000  2.02475000 10.12375000
  10.12375000  0.00000000 10.12375000
  10.12375000  2.02475000  8.09900000
   8.09900000  0.00000000 12.14850000
   8.09900000  2.02475000 14.17325000
  10.12375000  0.00000000 14.17325000
  10.12375000  2.02475000 12.14850000
   8.09900000  4.04950000  0.00000000
   8.09900000  6.07425000  2.02475000
  10.12375000  4.04950000  2.02475000
  10.12375000  6.07425000  0.00000000
   8.09900000  4.04950000  4.04950000
   8.09900000  6.07425000  6.07425000
  10.12375000  4.04950000  6.07425000
  10.12375000  6.07425000  4.04950000
   8.09900000  4.04950000  8.09900000
   8.09900000  6.07425000 10.12375000
  10.12375000  4.04950000 10.12375000
  10.12375000  6.07425000  8.09900000
   8.09900000  4.04950000 12.14850000
   8.09900000  6.07425000 14.17325000
  10.12375000  4.04950000 14.17325000
  10.12375000  6.07425000 12.14850000
   8.09900000  8.09900000  0.00000000
   8.09900000 10.12375000  2.02475000
  10.12375000  8.09900000  2.02475000
  10.12375000 10.12375000  0.00000000
   8.09900000  8.09900000  4.04950000
   8.09900000 10.12375000  6.07425000
  10.12375000  8.09900000  6.07425000
  10.12375000 10.12375000  4.04950000
   8.09900000  8.09900000  8.09900000
   8.09900000 10.12375000 10.12375000
  10.12375000  8.09900000 10.12375000
  10.12375000 10.12375000  8.09900000
   8.09900000  8.09900000 12.14850000
   8.09900000 10.12375000 14.17325000
  10.12375000  8.09900000 14.17325000
  10.12375000 10.12375000 12.14850000
   8.09900000 12.14850000  0.00000000
   8.09900000 14.17325000  2.02475000
  10.12375000 12.14850000  2.02475000
  10.12375000 14.17325000  0.00000000
   8.09900000 12.14850000  4.04950000
   8.09900000 14.17325000  6.07425000
  10.12375000 12.14850000  6.07425000
  10.12375000 14.17325000  4.04950000
   8.09900000 12.14850000  8.09900000
   8.09900000 14.17325000 10.12375000
  10.12375000 12.14850000 10.12375000
  10.12375000 14.17325000  8.09900000
   8.09900000 12.14850000 12.14850000
   8.09900000 14.17325000 14.17325000
  10.12375000 12.14850000 14.17325000
  10.12375000 14.17325000 12.14850000
  12.14850000  0.00000000  0.00000000
  12.14850000  2.02475000  2.02475000
  14.17325000  0.00000000  2.02475000
  14.17325000  2.02475000  0.00000000
  12.14850000  0.00000000  4.04950000
  12.14850000  2.02475000  6.07425000
  14.17325000  0.00000000  6.07425000
  14.17325000  2.02475000  4.04950000
  12.14850000  0.00000000  8.09900000
  12.14850000  2.02475000 10.12375000
  14.17325000  0.00000000 10.12375000
  14.17325000  2.02475000  8.09900000
  12.14850000  0.00000000 12.14850000
  12.14850000  2.02475000 14.17325000
  14.17325000  0.00000000 14.17325000
  14.17325000  2.02475000 12.14850000
  12.14850000  4.04950000  0.00000000
  12.14850000  6.07425000  2.02475000
  14.17325000  4.04950000  2.02475000
  14.17325000  6.07425000  0.00000000
  12.14850000  4.04950000  4.04950000
  12.14850000  6.07425000  6.07425000
  14.17325000  4.04950000  6.07425000
  14.17325000  6.07425000  4.04950000
  12.14850000  4.04950000  8.09900000
  12.14850000  6.07425000 10.12375000
  14.17325000  4.04950000 10.12375000
  14.17325000  6.07425000  8.09900000
  12.14850000  4.04950000 12.14850000
  12.14850000  6.07425000 14.17325000
  14.17325000  4.04950000 14.17325000
  14.17325000  6.07425000 12.14850000
  12.14850000  8.09900000  0.00000000
  12.14850000 10.12375000  2.02475000
  14.17325000  8.09900000  2.02475000
  14.17325000 10.12375000  0.00000000
  12.14850000  8.09900000  4.04950000
  12.14850000 10.12375000  6.07425000
  14.17325000  8.09900000  6.07425000
  14.17325000 10.12375000  4.04950000
  12.14850000  8.09900000  8.09900000
  12.14850000 10.12375000 10.12375000
  14.17325000  8.09900000 10.12375000
  14.17325000 10.12375000  8.09900000
  12.14850000  8.09900000 12.14850000
  12.14850000 10.12375000 14.17325000
  14.17325000  8.09900000 14.17325000
  14.17325000 10.12375000 12.14850000
  12.14850000 12.14850000  0.00000000
  12.14850000 14.17325000  2.02475000
  14.17325000 12.14850000  2.02475000
  14.17325000 14.17325000  0.00000000
  12.14850000 12.14850000  4.04950000
  12.14850000 14.17325000  6.07425000
  14.17325000 12.14850000  6.07425000
  14.17325000 14.17325000  4.04950000
  12.14850000 12.14850000  8.09900000
  12.14850000 14.17325000 10.12375000
  14.17325000 12.14850000 10.12375000
  14.17325000 14.17325000  8.09900000
  12.14850000 12.14850000 12.14850000
  12.14850000 14.17325000 14.17325000
  14.17325000 12.14850000 14.17325000
  14.17325000 14.17325000 12.14850000
   2.02475000  0.00000000  0.00000000
 


--------------------------------------------------------------------------------------------------------


 k-point  1 :   0.0000 0.0000 0.0000  plane waves:   50181
 k-point  2 :   0.5000 0.0000 0.0000  plane waves:   50222
 k-point  3 :   0.5000 0.5000 0.0000  plane waves:   50144
 k-point  4 :   0.5000 0.5000 0.5000  plane waves:   50192

 maximum and minimum number of plane-waves per node :     50222    50144

 maximum number of plane-waves:     50222
 maximum index in each direction: 
   IXMAX=   22   IYMAX=   22   IZMAX=   22
   IXMIN=  -23   IYMIN=  -23   IZMIN=  -23


 serial   3D FFT for wavefunctions
 parallel 3D FFT for charge:
    minimum data exchange during FFTs selected (reduces bandwidth)


 total amount of memory used by VASP MPI-rank0   462230. kBytes
=======================================================================

   base      :      30000. kBytes
   nonlr-proj:      68663. kBytes
   fftplans  :      17290. kBytes
   grid      :      40409. kBytes
   one-center:       3996. kBytes
   wavefun   :     301872. kBytes
 
     INWAV:  cpu time    0.0000: real time    0.0000
 Broyden mixing: mesh for mixing (old mesh)
   NGX = 45   NGY = 45   NGZ = 45
  (NGX  =140   NGY  =140   NGZ  =140)
  gives a total of  91125 points

 initial charge density was supplied:
 charge density of overlapping atoms calculated
 number of electron     773.0000000 magnetization 
 keeping initial charge density in first step


--------------------------------------------------------------------------------------------------------


 Maximum index for non-local projection operator         3202
 Maximum index for augmentation-charges          704 (set IRDMAX)


--------------------------------------------------------------------------------------------------------


 First call to EWALD:  gamma=   0.109
 Maximum number of real-space cells 3x 3x 3
 Maximum number of reciprocal cells 3x 3x 3

    FEWALD:  cpu time    0.0336: real time    0.0356


----------------------------------------- Iteration    1(   1)  ---------------------------------------


    POTLOK:  cpu time    0.2297: real time    0.2324
    SETDIJ:  cpu time    0.0807: real time    0.0807
     EDDAV:  cpu time   15.6613: real time   19.1762
       DOS:  cpu time    0.0027: real time    0.0035
    --------------------------------------------
      LOOP:  cpu time   15.9761: real time   19.4957

 eigenvalue-minimisations  :  4128
 total energy-change (2. order) : 0.1200914E+04  (-0.1902335E+05)
 number of electron     773.0000000 magnetization 
 augmentation part      773.0000000 magnetization 

 Free energy of the ion-electron system (eV)
  ---------------------------------------------------
  alpha Z        PSCENC =       930.54801681
  Ewald energy   TEWEN  =    -18871.29931694
  -Hartree energ DENC   =      -214.37063152
  -exchange      EXHF   =         0.00000000
  -V(xc)+E(xc)   XCENC  =     -6699.30271929
  PAW double counting   =     17152.17296890    -8973.00262965
  entropy T*S    EENTRO =        -0.06320306
  eigenvalues    EBANDS =      3906.73912401
  atomic energy  EATOM  =     13969.49210817
  Solvation  Ediel_sol  =         0.00000000
  ---------------------------------------------------
  free energy    TOTEN  =      1200.91371743 eV

  energy without entropy =     1200.97692049  energy(sigma->0) =     1200.94531896


--------------------------------------------------------------------------------------------------------




----------------------------------------- Iteration    1(   2)  ---------------------------------------


     EDDAV:  cpu time   20.0574: real time   24.4268
       DOS:  cpu time    0.0027: real time    0.0027
    --------------------------------------------
      LOOP:  cpu time   20.0614: real time   24.4994

 eigenvalue-minimisations  :  5748
 total energy-change (2. order) :-0.2033879E+04  (-0.1906457E+04)
 number of electron     773.0000000 magnetization 
 augmentation part      773.0000000 magnetization 

 Free energy of the ion-electron system (eV)
  ---------------------------------------------------
  alpha Z        PSCENC =       930.54801681
  Ewald energy   TEWEN  =    -18871.29931694
  -Hartree energ DENC   =      -214.37063152
  -exchange      EXHF   =         0.00000000
  -V(xc)+E(xc)   XCENC  =     -6699.30271929
  PAW double counting   =     17152.17296890    -8973.00262965
  entropy T*S    EENTRO =        -0.08035150
  eigenvalues    EBANDS =      1872.87726732
  atomic energy  EATOM  =     13969.49210817
  Solvation  Ediel_sol  =         0.00000000
  ---------------------------------------------------
  free energy    TOTEN  =      -832.96528770 eV

  energy without entropy =     -832.88493619  energy(sigma->0) =     -832.92511194


--------------------------------------------------------------------------------------------------------




----------------------------------------- Iteration    1(   3)  ---------------------------------------


     EDDAV:  cpu time   18.5262: real time   22.5743
       DOS:  cpu time    0.0022: real time    0.0022
    --------------------------------------------
      LOOP:  cpu time   18.5297: real time   22.6150

 eigenvalue-minimisations  :  5184
 total energy-change (2. order) :-0.1375672E+03  (-0.1295787E+03)
 number of electron     773.0000000 magnetization 
 augmentation part      773.0000000 magnetization 

 Free energy of the ion-electron system (eV)
  ---------------------------------------------------
  alpha Z        PSCENC =       930.54801681
  Ewald energy   TEWEN  =    -18871.29931694
  -Hartree energ DENC   =      -214.37063152
  -exchange      EXHF   =         0.00000000
  -V(xc)+E(xc)   XCENC  =     -6699.30271929
  PAW double counting   =     17152.17296890    -8973.00262965
  entropy T*S    EENTRO =        -0.16195689
  eigenvalues    EBANDS =      1735.39169236
  atomic energy  EATOM  =     13969.49210817
  Solvation  Ediel_sol  =         0.00000000
  ---------------------------------------------------
  free energy    TOTEN  =      -970.53246805 eV

  energy without entropy =     -970.37051115  energy(sigma->0) =     -970.45148960


--------------------------------------------------------------------------------------------------------




----------------------------------------- Iteration    1(   4)  ---------------------------------------


     EDDAV:  cpu time   19.7766: real time   24.0131
       DOS:  cpu time    0.0018: real time    0.0018
    --------------------------------------------
      LOOP:  cpu time   19.7797: real time   24.0443

 eigenvalue-minimisations  :  5628
 total energy-change (2. order) :-0.6785564E+01  (-0.6690599E+01)
 number of electron     773.0000000 magnetization 
 augmentation part      773.0000000 magnetization 

 Free energy of the ion-electron system (eV)
  ---------------------------------------------------
  alpha Z        PSCENC =       930.54801681
  Ewald energy   TEWEN  =    -18871.29931694
  -Hartree energ DENC   =      -214.37063152
  -exchange      EXHF   =         0.00000000
  -V(xc)+E(xc)   XCENC  =     -6699.30271929
  PAW double counting   =     17152.17296890    -8973.00262965
  entropy T*S    EENTRO =        -0.17662520
  eigenvalues    EBANDS =      1728.62079676
  atomic energy  EATOM  =     13969.49210817
  Solvation  Ediel_sol  =         0.00000000
  ---------------------------------------------------
  free energy    TOTEN  =      -977.31803195 eV

  energy without entropy =     -977.14140675  energy(sigma->0) =     -977.22971935


--------------------------------------------------------------------------------------------------------




----------------------------------------- Iteration    1(   5)  ---------------------------------------


     EDDAV:  cpu time   18.6592: real time   22.7032
       DOS:  cpu time    0.0013: real time    0.0013
    CHARGE:  cpu time    0.9894: real time    1.0417
    MIXING:  cpu time    0.0101: real time    0.0101
    --------------------------------------------
      LOOP:  cpu time   19.6614: real time   23.8099

 eigenvalue-minimisations  :  5220
 total energy-change (2. order) :-0.1176315E+00  (-0.1170953E+00)
 number of electron     773.0000055 magnetization 
 augmentation part       -9.8497215 magnetization 

 Broyden mixing:
  rms(total) = 0.17319E+01    rms(broyden)= 0.17318E+01
  rms(prec ) = 0.19882E+01
  weight for this iteration     100.00

 Free energy of the ion-electron system (eV)
  ---------------------------------------------------
  alpha Z        PSCENC =       930.54801681
  Ewald energy   TEWEN  =    -18871.29931694
  -Hartree energ DENC   =      -214.37063152
  -exchange      EXHF   =         0.00000000
  -V(xc)+E(xc)   XCENC  =     -6699.30271929
  PAW double counting   =     17152.17296890    -8973.00262965
  entropy T*S    EENTRO =        -0.17647448
  eigenvalues    EBANDS =      1728.50301458
  atomic energy  EATOM  =     13969.49210817
  Solvation  Ediel_sol  =         0.00000000
  ---------------------------------------------------
  free energy    TOTEN  =      -977.43566341 eV

  energy without entropy =     -977.25918894  energy(sigma->0) =     -977.34742618


--------------------------------------------------------------------------------------------------------




----------------------------------------- Iteration    1(   6)  ---------------------------------------


    POTLOK:  cpu time    0.2320: real time    0.2325
    SETDIJ:  cpu time    0.0820: real time    0.0822
     EDDAV:  cpu time   21.3142: real time   25.9364
       DOS:  cpu time    0.0014: real time    0.0014
    CHARGE:  cpu time    0.9912: real time    1.0206
    MIXING:  cpu time    0.0109: real time    0.0112
    --------------------------------------------
      LOOP:  cpu time   22.6333: real time   27.3143

 eigenvalue-minimisations  :  6240
 total energy-change (2. order) : 0.6067676E+01  (-0.9629330E+00)
 number of electron     773.0000043 magnetization 
 augmentation part      -10.0205048 magnetization 

 Broyden mixing:
  rms(total) = 0.10126E+01    rms(broyden)= 0.10124E+01
  rms(prec ) = 0.12054E+01
  weight for this iteration     100.00

 eigenvalues of (default mixing * dielectric matrix)
  average eigenvalue GAMMA=   1.5175
  1.5175

 Free energy of the ion-electron system (eV)
  ---------------------------------------------------
  alpha Z        PSCENC =       930.54801681
  Ewald energy   TEWEN  =    -18871.29931694
  -Hartree energ DENC   =      -232.48966648
  -exchange      EXHF   =         0.00000000
  -V(xc)+E(xc)   XCENC  =     -6689.15132508
  PAW double counting   =     19106.87193307   -10928.98922311
  entropy T*S    EENTRO =        -0.18770521
  eigenvalues    EBANDS =      1743.83719174
  atomic energy  EATOM  =     13969.49210817
  Solvation  Ediel_sol  =         0.00000000
  ---------------------------------------------------
  free energy    TOTEN  =      -971.36798704 eV

  energy without entropy =     -971.18028183  energy(sigma->0) =     -971.27413444


--------------------------------------------------------------------------------------------------------




----------------------------------------- Iteration    1(   7)  ---------------------------------------


    POTLOK:  cpu time    0.2310: real time    0.2312
    SETDIJ:  cpu time    0.0816: real time    0.0816
     EDDAV:  cpu time   17.8487: real time   21.7340
       DOS:  cpu time    0.0014: real time    0.0014
    CHARGE:  cpu time    0.9877: real time    1.0176
    MIXING:  cpu time    0.0113: real time    0.0113
    --------------------------------------------
      LOOP:  cpu time   19.1633: real time   23.1131

 eigenvalue-minimisations  :  4920
 total energy-change (2. order) : 0.2658070E+00  (-0.1358508E+01)
 number of electron     773.0000036 magnetization 
 augmentation part      -10.1458805 magnetization 

 Broyden mixing:
  rms(total) = 0.65519E+00    rms(broyden)= 0.65507E+00
  rms(prec ) = 0.11054E+01
  weight for this iteration     100.00

 eigenvalues of (default mixing * dielectric matrix)
  average eigenvalue GAMMA=   1.5340
  1.5340  1.5340

 Free energy of the ion-electron system (eV)
  ---------------------------------------------------
  alpha Z        PSCENC =       930.54801681
  Ewald energy   TEWEN  =    -18871.29931694
  -Hartree energ DENC   =      -229.92246780
  -exchange      EXHF   =         0.00000000
  -V(xc)+E(xc)   XCENC  =     -6681.02292498
  PAW double counting   =     20669.01570062   -12492.18310739
  entropy T*S    EENTRO =        -0.16416263
  eigenvalues    EBANDS =      1734.43397409
  atomic energy  EATOM  =     13969.49210817
  Solvation  Ediel_sol  =         0.00000000
  ---------------------------------------------------
  free energy    TOTEN  =      -971.10218004 eV

  energy without entropy =     -970.93801741  energy(sigma->0) =     -971.02009872


--------------------------------------------------------------------------------------------------------




----------------------------------------- Iteration    1(   8)  ---------------------------------------


    POTLOK:  cpu time    0.2306: real time    0.2308
    SETDIJ:  cpu time    0.0816: real time    0.0818
     EDDAV:  cpu time   18.9515: real time   22.9497
       DOS:  cpu time    0.0020: real time    0.0021
    CHARGE:  cpu time    0.9974: real time    1.0274
    MIXING:  cpu time    0.0118: real time    0.0118
    --------------------------------------------
      LOOP:  cpu time   20.2765: real time   24.3579

 eigenvalue-minimisations  :  5148
 total energy-change (2. order) : 0.1360267E+01  (-0.3887560E+00)
 number of electron     773.0000038 magnetization 
 augmentation part      -10.1617254 magnetization 

 Broyden mixing:
  rms(total) = 0.37451E+00    rms(broyden)= 0.37451E+00
  rms(prec ) = 0.47612E+00
  weight for this iteration     100.00

 eigenvalues of (default mixing * dielectric matrix)
  average eigenvalue GAMMA=   1.3536
  2.4850  1.1060  0.4698

 Free energy of the ion-electron system (eV)
  ---------------------------------------------------
  alpha Z        PSCENC =       930.54801681
  Ewald energy   TEWEN  =    -18871.29931694
  -Hartree energ DENC   =      -229.15033896
  -exchange      EXHF   =         0.00000000
  -V(xc)+E(xc)   XCENC  =     -6677.58811954
  PAW double counting   =     21326.89911224   -13150.53715577
  entropy T*S    EENTRO =        -0.17461587
  eigenvalues    EBANDS =      1732.06839642
  atomic energy  EATOM  =     13969.49210817
  Solvation  Ediel_sol  =         0.00000000
  ---------------------------------------------------
  free energy    TOTEN  =      -969.74191344 eV

  energy without entropy =     -969.56729757  energy(sigma->0) =     -969.65460551


--------------------------------------------------------------------------------------------------------




----------------------------------------- Iteration    1(   9)  ---------------------------------------


    POTLOK:  cpu time    0.2313: real time    0.2316
    SETDIJ:  cpu time    0.0817: real time    0.0817
     EDDAV:  cpu time   20.6124: real time   25.1395
       DOS:  cpu time    0.0018: real time    0.0018
    CHARGE:  cpu time    0.9918: real time    1.0212
    MIXING:  cpu time    0.0125: real time    0.0128
    --------------------------------------------
      LOOP:  cpu time   21.9332: real time   26.5272

 eigenvalue-minimisations  :  5976
 total energy-change (2. order) : 0.2839791E+00  (-0.2123241E+00)
 number of electron     773.0000042 magnetization 
 augmentation part      -10.2064680 magnetization 

 Broyden mixing:
  rms(total) = 0.15795E+00    rms(broyden)= 0.15788E+00
  rms(prec ) = 0.23601E+00
  weight for this iteration     100.00

 eigenvalues of (default mixing * dielectric matrix)
  average eigenvalue GAMMA=   1.2045
  2.5645  0.9326  0.9326  0.3884

 Free energy of the ion-electron system (eV)
  ---------------------------------------------------
  alpha Z        PSCENC =       930.54801681
  Ewald energy   TEWEN  =    -18871.29931694
  -Hartree energ DENC   =      -226.64126211
  -exchange      EXHF   =         0.00000000
  -V(xc)+E(xc)   XCENC  =     -6672.05706575
  PAW double counting   =     22308.94496690   -14133.43782634
  entropy T*S    EENTRO =        -0.17409791
  eigenvalues    EBANDS =      1725.16654289
  atomic energy  EATOM  =     13969.49210817
  Solvation  Ediel_sol  =         0.00000000
  ---------------------------------------------------
  free energy    TOTEN  =      -969.45793430 eV

  energy without entropy =     -969.28383638  energy(sigma->0) =     -969.37088534


--------------------------------------------------------------------------------------------------------




----------------------------------------- Iteration    1(  10)  ---------------------------------------


    POTLOK:  cpu time    0.2310: real time    0.2313
    SETDIJ:  cpu time    0.0816: real time    0.0817
     EDDAV:  cpu time   17.1845: real time   21.0194
       DOS:  cpu time    0.0016: real time    0.0016
    CHARGE:  cpu time    0.9990: real time    1.0286
    MIXING:  cpu time    0.0138: real time    0.0138
    --------------------------------------------
      LOOP:  cpu time   18.5131: real time   22.4188

 eigenvalue-minimisations  :  4680
 total energy-change (2. order) : 0.8432084E-01  (-0.5595766E-01)
 number of electron     773.0000043 magnetization 
 augmentation part      -10.2166856 magnetization 

 Broyden mixing:
  rms(total) = 0.14209E+00    rms(broyden)= 0.14206E+00
  rms(prec ) = 0.16349E+00
  weight for this iteration     100.00

 eigenvalues of (default mixing * dielectric matrix)
  average eigenvalue GAMMA=   1.1887
  2.5799  1.1698  1.1698  0.3965  0.6278

 Free energy of the ion-electron system (eV)
  ---------------------------------------------------
  alpha Z        PSCENC =       930.54801681
  Ewald energy   TEWEN  =    -18871.29931694
  -Hartree energ DENC   =      -229.28700768
  -exchange      EXHF   =         0.00000000
  -V(xc)+E(xc)   XCENC  =     -6670.64030213
  PAW double counting   =     22518.87171577   -14343.65040770
  entropy T*S    EENTRO =        -0.17737253
  eigenvalues    EBANDS =      1726.76895277
  atomic energy  EATOM  =     13969.49210817
  Solvation  Ediel_sol  =         0.00000000
  ---------------------------------------------------
  free energy    TOTEN  =      -969.37361346 eV

  energy without entropy =     -969.19624092  energy(sigma->0) =     -969.28492719


--------------------------------------------------------------------------------------------------------




----------------------------------------- Iteration    1(  11)  ---------------------------------------


    POTLOK:  cpu time    0.2313: real time    0.2316
    SETDIJ:  cpu time    0.0818: real time    0.0818
     EDDAV:  cpu time   18.7244: real time   22.8142
       DOS:  cpu time    0.0019: real time    0.0019
    CHARGE:  cpu time    0.9916: real time    1.0211
    MIXING:  cpu time    0.0138: real time    0.0138
    --------------------------------------------
      LOOP:  cpu time   20.0465: real time   24.2123

 eigenvalue-minimisations  :  5244
 total energy-change (2. order) : 0.3344761E-01  (-0.4391476E-01)
 number of electron     773.0000041 magnetization 
 augmentation part      -10.2402745 magnetization 

 Broyden mixing:
  rms(total) = 0.27211E-01    rms(broyden)= 0.27143E-01
  rms(prec ) = 0.33835E-01
  weight for this iteration     100.00

 eigenvalues of (default mixing * dielectric matrix)
  average eigenvalue GAMMA=   1.1236
  2.5423  1.1154  1.1154  0.3952  0.7866  0.7866

 Free energy of the ion-electron system (eV)
  ---------------------------------------------------
  alpha Z        PSCENC =       930.54801681
  Ewald energy   TEWEN  =    -18871.29931694
  -Hartree energ DENC   =      -232.36220563
  -exchange      EXHF   =         0.00000000
  -V(xc)+E(xc)   XCENC  =     -6670.31134169
  PAW double counting   =     22530.53925533   -14355.46832955
  entropy T*S    EENTRO =        -0.17694791
  eigenvalues    EBANDS =      1729.69859556
  atomic energy  EATOM  =     13969.49210817
  Solvation  Ediel_sol  =         0.00000000
  ---------------------------------------------------
  free energy    TOTEN  =      -969.34016585 eV

  energy without entropy =     -969.16321793  energy(sigma->0) =     -969.25169189


--------------------------------------------------------------------------------------------------------




----------------------------------------- Iteration    1(  12)  ---------------------------------------


    POTLOK:  cpu time    0.2312: real time    0.2318
    SETDIJ:  cpu time    0.0818: real time    0.0818
     EDDAV:  cpu time   17.5575: real time   21.4946
       DOS:  cpu time    0.0019: real time    0.0019
    CHARGE:  cpu time    0.9914: real time    1.0211
    MIXING:  cpu time    0.0141: real time    0.0141
    --------------------------------------------
      LOOP:  cpu time   18.8795: real time   22.8803

 eigenvalue-minimisations  :  4824
 total energy-change (2. order) :-0.1556007E-01  (-0.1805023E-01)
 number of electron     773.0000040 magnetization 
 augmentation part      -10.2512953 magnetization 

 Broyden mixing:
  rms(total) = 0.46757E-01    rms(broyden)= 0.46703E-01
  rms(prec ) = 0.54377E-01
  weight for this iteration     100.00

 eigenvalues of (default mixing * dielectric matrix)
  average eigenvalue GAMMA=   1.2263
  2.5692  2.5692  0.8362  0.8362  0.3955  0.6891  0.6891

 Free energy of the ion-electron system (eV)
  ---------------------------------------------------
  alpha Z        PSCENC =       930.54801681
  Ewald energy   TEWEN  =    -18871.29931694
  -Hartree energ DENC   =      -232.07640670
  -exchange      EXHF   =         0.00000000
  -V(xc)+E(xc)   XCENC  =     -6670.27504840
  PAW double counting   =     22511.85933755   -14336.91976960
  entropy T*S    EENTRO =        -0.17705997
  eigenvalues    EBANDS =      1729.49241317
  atomic energy  EATOM  =     13969.49210817
  Solvation  Ediel_sol  =         0.00000000
  ---------------------------------------------------
  free energy    TOTEN  =      -969.35572591 eV

  energy without entropy =     -969.17866595  energy(sigma->0) =     -969.26719593


--------------------------------------------------------------------------------------------------------




----------------------------------------- Iteration    1(  13)  ---------------------------------------


    POTLOK:  cpu time    0.2310: real time    0.2312
    SETDIJ:  cpu time    0.0815: real time    0.0819
     EDDAV:  cpu time   18.8769: real time   23.0258
       DOS:  cpu time    0.0017: real time    0.0017
    CHARGE:  cpu time    0.9947: real time    1.0242
    MIXING:  cpu time    0.0145: real time    0.0145
    --------------------------------------------
      LOOP:  cpu time   20.2019: real time   24.4362

 eigenvalue-minimisations  :  5316
 total energy-change (2. order) : 0.5678886E-02  (-0.1907411E-02)
 number of electron     773.0000040 magnetization 
 augmentation part      -10.2481602 magnetization 

 Broyden mixing:
  rms(total) = 0.19831E-01    rms(broyden)= 0.19830E-01
  rms(prec ) = 0.22254E-01
  weight for this iteration     100.00

 eigenvalues of (default mixing * dielectric matrix)
  average eigenvalue GAMMA=   1.1868
  2.5573  2.5573  0.8301  0.8301  0.3954  0.8173  0.8173  0.6898

 Free energy of the ion-electron system (eV)
  ---------------------------------------------------
  alpha Z        PSCENC =       930.54801681
  Ewald energy   TEWEN  =    -18871.29931694
  -Hartree energ DENC   =      -231.49159764
  -exchange      EXHF   =         0.00000000
  -V(xc)+E(xc)   XCENC  =     -6670.18027061
  PAW double counting   =     22496.86916385   -14322.12446919
  entropy T*S    EENTRO =        -0.17726303
  eigenvalues    EBANDS =      1729.01358156
  atomic energy  EATOM  =     13969.49210817
  Solvation  Ediel_sol  =         0.00000000
  ---------------------------------------------------
  free energy    TOTEN  =      -969.35004703 eV

  energy without entropy =     -969.17278400  energy(sigma->0) =     -969.26141551


--------------------------------------------------------------------------------------------------------




----------------------------------------- Iteration    1(  14)  ---------------------------------------


    POTLOK:  cpu time    0.2313: real time    0.2316
    SETDIJ:  cpu time    0.0819: real time    0.0820
     EDDAV:  cpu time   17.8265: real time   21.7697
       DOS:  cpu time    0.0021: real time    0.0021
    CHARGE:  cpu time    0.9911: real time    1.0238
    MIXING:  cpu time    0.0155: real time    0.0155
    --------------------------------------------
[...]
     -0.00161     14.17164      2.02636        -0.000537     -0.000537      0.000537
      2.02475     12.14258      2.02705        -0.000000      0.000248     -0.000092
      2.02475     14.13467      0.00000        -0.000000      0.002597     -0.000000
      0.00496     12.15343      4.04457         0.000175      0.000202     -0.000202
      0.00234     14.17559      6.07442         0.000294      0.000294     -0.000503
      2.02475     12.15270      6.07353        -0.000000      0.000042     -0.000448
      2.02475     14.17095      4.05542        -0.000000      0.000092     -0.000248
      0.00257     12.15409      8.09900        -0.000162      0.000214     -0.000000
      0.00234     14.17559     10.12358         0.000294      0.000294      0.000503
      2.02475     12.15270     10.12447        -0.000000      0.000042      0.000448
      2.02475     14.18002      8.09900        -0.000000     -0.000573     -0.000000
      0.00496     12.15343     12.15343         0.000175      0.000202      0.000202
     -0.00161     14.17164     14.17164        -0.000537     -0.000537     -0.000537
      2.02475     12.14258     14.17095        -0.000000      0.000248      0.000092
      2.02475     14.17095     12.14258        -0.000000      0.000092      0.000248
      4.08808     -0.00000      0.00000        -0.002597     -0.000000     -0.000000
      4.05111      2.02636      2.02636         0.000537      0.000537      0.000537
      6.08017     -0.00000      2.02705        -0.000248     -0.000000     -0.000092
      6.08017      2.02705      0.00000        -0.000248     -0.000092     -0.000000
      4.05180     -0.00000      4.05542        -0.000092     -0.000000     -0.000248
      4.04716      2.02241      6.07442        -0.000294     -0.000294     -0.000503
      6.07005     -0.00000      6.07353        -0.000042     -0.000000     -0.000448
      6.06932      2.01979      4.04457        -0.000202     -0.000175     -0.000202
      4.04273     -0.00000      8.09900         0.000573     -0.000000     -0.000000
      4.04716      2.02241     10.12358        -0.000294     -0.000294      0.000503
      6.07005     -0.00000     10.12447        -0.000042     -0.000000      0.000448
      6.06866      2.02218      8.09900        -0.000214      0.000162     -0.000000
      4.05180     -0.00000     12.14258        -0.000092     -0.000000      0.000248
      4.05111      2.02636     14.17164         0.000537      0.000537     -0.000537
      6.08017     -0.00000     14.17095        -0.000248     -0.000000      0.000092
      6.06932      2.01979     12.15343        -0.000202     -0.000175      0.000202
      4.05180      4.05542      0.00000        -0.000092     -0.000248     -0.000000
      4.04716      6.07442      2.02241        -0.000294     -0.000503     -0.000294
      6.06932      4.04457      2.01979        -0.000202     -0.000202     -0.000175
      6.07005      6.07353      0.00000        -0.000042     -0.000448     -0.000000
      4.04454      4.04457      4.04457        -0.000175     -0.000202     -0.000202
      4.05008      6.07318      6.07318        -0.000347     -0.000018     -0.000018
      6.07164      4.04689      6.07134        -0.000403     -0.000403     -0.000063
      6.07164      6.07134      4.04689        -0.000403     -0.000063     -0.000403
      4.04693      4.04391      8.09900         0.000162     -0.000214     -0.000000
      4.05008      6.07318     10.12482        -0.000347     -0.000018      0.000018
      6.07164      4.04689     10.12666        -0.000403     -0.000403      0.000063
      6.07221      6.07128      8.09900         0.000122      0.000444     -0.000000
      4.04454      4.04457     12.15343        -0.000175     -0.000202      0.000202
      4.04716      6.07442     14.17559        -0.000294     -0.000503      0.000294
      6.06932      4.04457     14.17821        -0.000202     -0.000202      0.000175
      6.07164      6.07134     12.15111        -0.000403     -0.000063      0.000403
      4.04273      8.09900      0.00000         0.000573     -0.000000     -0.000000
      4.04716     10.12358      2.02241        -0.000294      0.000503     -0.000294
      6.06866      8.09900      2.02218        -0.000214     -0.000000      0.000162
      6.07005     10.12447      0.00000        -0.000042      0.000448     -0.000000
      4.04693      8.09900      4.04391         0.000162     -0.000000     -0.000214
      4.05008     10.12482      6.07318        -0.000347      0.000018     -0.000018
      6.07221      8.09900      6.07128         0.000122     -0.000000      0.000444
      6.07164     10.12666      4.04689        -0.000403      0.000063     -0.000403
      4.05272      8.09900      8.09900         0.000449     -0.000000     -0.000000
      4.05008     10.12482     10.12482        -0.000347      0.000018      0.000018
      6.07221      8.09900     10.12672         0.000122     -0.000000     -0.000444
      6.07221     10.12672      8.09900         0.000122     -0.000444     -0.000000
      4.04693      8.09900     12.15409         0.000162     -0.000000      0.000214
      4.04716     10.12358     14.17559        -0.000294      0.000503      0.000294
      6.06866      8.09900     14.17582        -0.000214     -0.000000     -0.000162
      6.07164     10.12666     12.15111        -0.000403      0.000063      0.000403
      4.05180     12.14258      0.00000        -0.000092      0.000248     -0.000000
      4.05111     14.17164      2.02636         0.000537     -0.000537      0.000537
      6.06932     12.15343      2.01979        -0.000202      0.000202     -0.000175
      6.08017     14.17095      0.00000        -0.000248      0.000092     -0.000000
      4.04454     12.15343      4.04457        -0.000175      0.000202     -0.000202
      4.04716     14.17559      6.07442        -0.000294      0.000294     -0.000503
      6.07164     12.15111      6.07134        -0.000403      0.000403     -0.000063
      6.06932     14.17821      4.04457        -0.000202      0.000175     -0.000202
      4.04693     12.15409      8.09900         0.000162      0.000214     -0.000000
      4.04716     14.17559     10.12358        -0.000294      0.000294      0.000503
      6.07164     12.15111     10.12666        -0.000403      0.000403      0.000063
      6.06866     14.17582      8.09900        -0.000214     -0.000162     -0.000000
      4.04454     12.15343     12.15343        -0.000175      0.000202      0.000202
      4.05111     14.17164     14.17164         0.000537     -0.000537     -0.000537
      6.06932     12.15343     14.17821        -0.000202      0.000202      0.000175
      6.06932     14.17821     12.15343        -0.000202      0.000175      0.000202
      8.08234     -0.00000      0.00000         0.000174     -0.000000     -0.000000
      8.09917      2.02241      2.02241        -0.000503     -0.000294     -0.000294
     10.12375     -0.00000      2.01798        -0.000000     -0.000000      0.000573
     10.12375      2.01798      0.00000        -0.000000      0.000573     -0.000000
      8.09828     -0.00000      4.04530        -0.000448     -0.000000     -0.000042
      8.09793      2.02533      6.07318        -0.000018     -0.000347     -0.000018
     10.12375     -0.00000      6.07720        -0.000000     -0.000000      0.000314
     10.12375      2.02218      4.04391        -0.000000      0.000162     -0.000214
      8.10195     -0.00000      8.09900         0.000314     -0.000000     -0.000000
      8.09793      2.02533     10.12482        -0.000018     -0.000347      0.000018
     10.12375     -0.00000     10.12080        -0.000000     -0.000000     -0.000314
     10.12375      2.02797      8.09900        -0.000000      0.000449     -0.000000
      8.09828     -0.00000     12.15270        -0.000448     -0.000000      0.000042
      8.09917      2.02241     14.17559        -0.000503     -0.000294      0.000294
     10.12375     -0.00000     14.18002        -0.000000     -0.000000     -0.000573
     10.12375      2.02218     12.15409        -0.000000      0.000162      0.000214
      8.09828      4.04530      0.00000        -0.000448     -0.000042     -0.000000
      8.09793      6.07318      2.02533        -0.000018     -0.000018     -0.000347
     10.12375      4.04391      2.02218        -0.000000     -0.000214      0.000162
     10.12375      6.07720      0.00000        -0.000000      0.000314     -0.000000
      8.09609      4.04689      4.04689        -0.000063     -0.000403     -0.000403
      8.09799      6.07324      6.07324        -0.000053     -0.000053     -0.000053
     10.12375      4.04746      6.07128        -0.000000      0.000122      0.000444
     10.12375      6.07128      4.04746        -0.000000      0.000444      0.000122
      8.09603      4.04746      8.09900         0.000444      0.000122     -0.000000
      8.09799      6.07324     10.12476        -0.000053     -0.000053      0.000053
     10.12375      4.04746     10.12672        -0.000000      0.000122     -0.000444
     10.12375      6.07328      8.09900        -0.000000     -0.000697     -0.000000
      8.09609      4.04689     12.15111        -0.000063     -0.000403      0.000403
      8.09793      6.07318     14.17267        -0.000018     -0.000018      0.000347
     10.12375      4.04391     14.17582        -0.000000     -0.000214     -0.000162
     10.12375      6.07128     12.15054        -0.000000      0.000444     -0.000122
      8.10195      8.09900      0.00000         0.000314     -0.000000     -0.000000
      8.09793     10.12482      2.02533        -0.000018      0.000018     -0.000347
     10.12375      8.09900      2.02797        -0.000000     -0.000000      0.000449
     10.12375     10.12080      0.00000        -0.000000     -0.000314     -0.000000
      8.09603      8.09900      4.04746         0.000444     -0.000000      0.000122
      8.09799     10.12476      6.07324        -0.000053      0.000053     -0.000053
     10.12375      8.09900      6.07328        -0.000000     -0.000000     -0.000697
     10.12375     10.12672      4.04746        -0.000000     -0.000444      0.000122
      8.09803      8.09900      8.09900        -0.000697     -0.000000     -0.000000
      8.09799     10.12476     10.12476        -0.000053      0.000053      0.000053
     10.12375      8.09900     10.12472        -0.000000     -0.000000      0.000697
     10.12375     10.12472      8.09900        -0.000000      0.000697     -0.000000
      8.09603      8.09900     12.15054         0.000444     -0.000000     -0.000122
      8.09793     10.12482     14.17267        -0.000018      0.000018      0.000347
     10.12375      8.09900     14.17003        -0.000000     -0.000000     -0.000449
     10.12375     10.12672     12.15054        -0.000000     -0.000444     -0.000122
      8.09828     12.15270      0.00000        -0.000448      0.000042     -0.000000
      8.09917     14.17559      2.02241        -0.000503      0.000294     -0.000294
     10.12375     12.15409      2.02218        -0.000000      0.000214      0.000162
     10.12375     14.18002      0.00000        -0.000000     -0.000573     -0.000000
      8.09609     12.15111      4.04689        -0.000063      0.000403     -0.000403
      8.09793     14.17267      6.07318        -0.000018      0.000347     -0.000018
     10.12375     12.15054      6.07128        -0.000000     -0.000122      0.000444
     10.12375     14.17582      4.04391        -0.000000     -0.000162     -0.000214
      8.09603     12.15054      8.09900         0.000444     -0.000122     -0.000000
      8.09793     14.17267     10.12482        -0.000018      0.000347      0.000018
     10.12375     12.15054     10.12672        -0.000000     -0.000122     -0.000444
     10.12375     14.17003      8.09900        -0.000000     -0.000449     -0.000000
      8.09609     12.15111     12.15111        -0.000063      0.000403      0.000403
      8.09917     14.17559     14.17559        -0.000503      0.000294      0.000294
     10.12375     12.15409     14.17582        -0.000000      0.000214     -0.000162
     10.12375     14.17582     12.15409        -0.000000     -0.000162      0.000214
     12.16516     -0.00000      0.00000        -0.000174     -0.000000     -0.000000
     12.14833      2.02241      2.02241         0.000503     -0.000294     -0.000294
     14.16733     -0.00000      2.02705         0.000248     -0.000000     -0.000092
     14.16733      2.02705      0.00000         0.000248     -0.000092     -0.000000
     12.14922     -0.00000      4.04530         0.000448     -0.000000     -0.000042
     12.14957      2.02533      6.07318         0.000018     -0.000347     -0.000018
     14.17745     -0.00000      6.07353         0.000042     -0.000000     -0.000448
     14.17818      2.01979      4.04457         0.000202     -0.000175     -0.000202
     12.14555     -0.00000      8.09900        -0.000314     -0.000000     -0.000000
     12.14957      2.02533     10.12482         0.000018     -0.000347      0.000018
     14.17745     -0.00000     10.12447         0.000042     -0.000000      0.000448
     14.17884      2.02218      8.09900         0.000214      0.000162     -0.000000
     12.14922     -0.00000     12.15270         0.000448     -0.000000      0.000042
     12.14833      2.02241     14.17559         0.000503     -0.000294      0.000294
     14.16733     -0.00000     14.17095         0.000248     -0.000000      0.000092
     14.17818      2.01979     12.15343         0.000202     -0.000175      0.000202
     12.14922      4.04530      0.00000         0.000448     -0.000042     -0.000000
     12.14957      6.07318      2.02533         0.000018     -0.000018     -0.000347
     14.17818      4.04457      2.01979         0.000202     -0.000202     -0.000175
     14.17745      6.07353      0.00000         0.000042     -0.000448     -0.000000
     12.15141      4.04689      4.04689         0.000063     -0.000403     -0.000403
     12.14951      6.07324      6.07324         0.000053     -0.000053     -0.000053
     14.17586      4.04689      6.07134         0.000403     -0.000403     -0.000063
     14.17586      6.07134      4.04689         0.000403     -0.000063     -0.000403
     12.15147      4.04746      8.09900        -0.000444      0.000122     -0.000000
     12.14951      6.07324     10.12476         0.000053     -0.000053      0.000053
     14.17586      4.04689     10.12666         0.000403     -0.000403      0.000063
     14.17529      6.07128      8.09900        -0.000122      0.000444     -0.000000
     12.15141      4.04689     12.15111         0.000063     -0.000403      0.000403
     12.14957      6.07318     14.17267         0.000018     -0.000018      0.000347
     14.17818      4.04457     14.17821         0.000202     -0.000202      0.000175
     14.17586      6.07134     12.15111         0.000403     -0.000063      0.000403
     12.14555      8.09900      0.00000        -0.000314     -0.000000     -0.000000
     12.14957     10.12482      2.02533         0.000018      0.000018     -0.000347
     14.17884      8.09900      2.02218         0.000214     -0.000000      0.000162
     14.17745     10.12447      0.00000         0.000042      0.000448     -0.000000
     12.15147      8.09900      4.04746        -0.000444     -0.000000      0.000122
     12.14951     10.12476      6.07324         0.000053      0.000053     -0.000053
     14.17529      8.09900      6.07128        -0.000122     -0.000000      0.000444
     14.17586     10.12666      4.04689         0.000403      0.000063     -0.000403
     12.14947      8.09900      8.09900         0.000697     -0.000000     -0.000000
     12.14951     10.12476     10.12476         0.000053      0.000053      0.000053
     14.17529      8.09900     10.12672        -0.000122     -0.000000     -0.000444
     14.17529     10.12672      8.09900        -0.000122     -0.000444     -0.000000
     12.15147      8.09900     12.15054        -0.000444     -0.000000     -0.000122
     12.14957     10.12482     14.17267         0.000018      0.000018      0.000347
     14.17884      8.09900     14.17582         0.000214     -0.000000     -0.000162
     14.17586     10.12666     12.15111         0.000403      0.000063      0.000403
     12.14922     12.15270      0.00000         0.000448      0.000042     -0.000000
     12.14833     14.17559      2.02241         0.000503      0.000294     -0.000294
     14.17818     12.15343      2.01979         0.000202      0.000202     -0.000175
     14.16733     14.17095      0.00000         0.000248      0.000092     -0.000000
     12.15141     12.15111      4.04689         0.000063      0.000403     -0.000403
     12.14957     14.17267      6.07318         0.000018      0.000347     -0.000018
     14.17586     12.15111      6.07134         0.000403      0.000403     -0.000063
     14.17818     14.17821      4.04457         0.000202      0.000175     -0.000202
     12.15147     12.15054      8.09900        -0.000444     -0.000122     -0.000000
     12.14957     14.17267     10.12482         0.000018      0.000347      0.000018
     14.17586     12.15111     10.12666         0.000403      0.000403      0.000063
     14.17884     14.17582      8.09900         0.000214     -0.000162     -0.000000
     12.15141     12.15111     12.15111         0.000063      0.000403      0.000403
     12.14833     14.17559     14.17559         0.000503      0.000294      0.000294
     14.17818     12.15343     14.17821         0.000202      0.000202      0.000175
     14.17818     14.17821     12.15343         0.000202      0.000175      0.000202
      2.02475     -0.00000      0.00000        -0.000000     -0.000000     -0.000000
 -----------------------------------------------------------------------------------
    total drift:                               -0.000000     -0.000000     -0.000000


--------------------------------------------------------------------------------------------------------



  FREE ENERGIE OF THE ION-ELECTRON SYSTEM (eV)
  ---------------------------------------------------
  free  energy   TOTEN  =      -969.41324916 eV

  energy  without entropy=     -969.23131381  energy(sigma->0) =     -969.32228149
 
 d Force = 0.3869640E-05[ 0.883E-07, 0.765E-05]  d Energy =-0.3968751E-05 0.784E-05
 d Force =-0.9137745E-02[-0.919E-02,-0.908E-02]  d Ewald  =-0.9145604E-02 0.786E-05


--------------------------------------------------------------------------------------------------------


    POTLOK:  cpu time    0.3253: real time    0.3255


--------------------------------------------------------------------------------------------------------




--------------------------------------------------------------------------------------------------------


  
 reached required accuracy - stopping structural energy minimisation
     LOOP+:  cpu time   90.0257: real time  109.0509
    4ORBIT:  cpu time    0.0000: real time    0.0000

 total amount of memory used by VASP MPI-rank0   462230. kBytes
=======================================================================

   base      :      30000. kBytes
   nonlr-proj:      68663. kBytes
   fftplans  :      17290. kBytes
   grid      :      40409. kBytes
   one-center:       3996. kBytes
   wavefun   :     301872. kBytes
 
  
  
 General timing and accounting informations for this job:
 ========================================================
  
                  Total CPU time used (sec):     1934.912
                            User time (sec):      309.885
                          System time (sec):     1625.026
                         Elapsed time (sec):     2340.982
  
                   Maximum memory used (kb):      770100.
                   Average memory used (kb):           0.
  
                          Minor page faults:     64407224
                          Major page faults:           34
                 Voluntary context switches:        61535
