NiAl                                    
           1
    16.198000    0.000000    0.000000
     0.000000   16.198000    0.000000
     0.000000    0.000000   16.198000
   Al   N 
 256   1
Direct configuration=     1
   0.00000000  0.00000000  0.00000000
   0.00000000  0.12500000  0.12500000
   0.12500000  0.00000000  0.12500000
   0.12500000  0.12500000  0.00000000
   0.00000000  0.00000000  0.25000000
   0.00000000  0.12500000  0.37500000
   0.12500000  0.00000000  0.37500000
   0.12500000  0.12500000  0.25000000
   0.00000000  0.00000000  0.50000000
   0.00000000  0.12500000  0.62500000
   0.12500000  0.00000000  0.62500000
   0.12500000  0.12500000  0.50000000
   0.00000000  0.00000000  0.75000000
   0.00000000  0.12500000  0.87500000
   0.12500000  0.00000000  0.87500000
   0.12500000  0.12500000  0.75000000
   0.00000000  0.25000000  0.00000000
   0.00000000  0.37500000  0.12500000
   0.12500000  0.25000000  0.12500000
   0.12500000  0.37500000  0.00000000
   0.00000000  0.25000000  0.25000000
   0.00000000  0.37500000  0.37500000
   0.12500000  0.25000000  0.37500000
   0.12500000  0.37500000  0.25000000
   0.00000000  0.25000000  0.50000000
   0.00000000  0.37500000  0.62500000
   0.12500000  0.25000000  0.62500000
   0.12500000  0.37500000  0.50000000
   0.00000000  0.25000000  0.75000000
   0.00000000  0.37500000  0.87500000
   0.12500000  0.25000000  0.87500000
   0.12500000  0.37500000  0.75000000
   0.00000000  0.50000000  0.00000000
   0.00000000  0.62500000  0.12500000
   0.12500000  0.50000000  0.12500000
   0.12500000  0.62500000  0.00000000
   0.00000000  0.50000000  0.25000000
   0.00000000  0.62500000  0.37500000
   0.12500000  0.50000000  0.37500000
   0.12500000  0.62500000  0.25000000
   0.00000000  0.50000000  0.50000000
   0.00000000  0.62500000  0.62500000
   0.12500000  0.50000000  0.62500000
   0.12500000  0.62500000  0.50000000
   0.00000000  0.50000000  0.75000000
   0.00000000  0.62500000  0.87500000
   0.12500000  0.50000000  0.87500000
   0.12500000  0.62500000  0.75000000
   0.00000000  0.75000000  0.00000000
   0.00000000  0.87500000  0.12500000
   0.12500000  0.75000000  0.12500000
   0.12500000  0.87500000  0.00000000
   0.00000000  0.75000000  0.25000000
   0.00000000  0.87500000  0.37500000
   0.12500000  0.75000000  0.37500000
   0.12500000  0.87500000  0.25000000
   0.00000000  0.75000000  0.50000000
   0.00000000  0.87500000  0.62500000
   0.12500000  0.75000000  0.62500000
   0.12500000  0.87500000  0.50000000
   0.00000000  0.75000000  0.75000000
   0.00000000  0.87500000  0.87500000
   0.12500000  0.75000000  0.87500000
   0.12500000  0.87500000  0.75000000
   0.25000000  0.00000000  0.00000000
   0.25000000  0.12500000  0.12500000
   0.37500000  0.00000000  0.12500000
   0.37500000  0.12500000  0.00000000
   0.25000000  0.00000000  0.25000000
   0.25000000  0.12500000  0.37500000
   0.37500000  0.00000000  0.37500000
   0.37500000  0.12500000  0.25000000
   0.25000000  0.00000000  0.50000000
   0.25000000  0.12500000  0.62500000
   0.37500000  0.00000000  0.62500000
   0.37500000  0.12500000  0.50000000
   0.25000000  0.00000000  0.75000000
   0.25000000  0.12500000  0.87500000
   0.37500000  0.00000000  0.87500000
   0.37500000  0.12500000  0.75000000
   0.25000000  0.25000000  0.00000000
   0.25000000  0.37500000  0.12500000
   0.37500000  0.25000000  0.12500000
   0.37500000  0.37500000  0.00000000
   0.25000000  0.25000000  0.25000000
   0.25000000  0.37500000  0.37500000
   0.37500000  0.25000000  0.37500000
   0.37500000  0.37500000  0.25000000
   0.25000000  0.25000000  0.50000000
   0.25000000  0.37500000  0.62500000
   0.37500000  0.25000000  0.62500000
   0.37500000  0.37500000  0.50000000
   0.25000000  0.25000000  0.75000000
   0.25000000  0.37500000  0.87500000
   0.37500000  0.25000000  0.87500000
   0.37500000  0.37500000  0.75000000
   0.25000000  0.50000000  0.00000000
   0.25000000  0.62500000  0.12500000
   0.37500000  0.50000000  0.12500000
   0.37500000  0.62500000  0.00000000
   0.25000000  0.50000000  0.25000000
   0.25000000  0.62500000  0.37500000
   0.37500000  0.50000000  0.37500000
   0.37500000  0.62500000  0.25000000
   0.25000000  0.50000000  0.50000000
   0.25000000  0.62500000  0.62500000
   0.37500000  0.50000000  0.62500000
   0.37500000  0.62500000  0.50000000
   0.25000000  0.50000000  0.75000000
   0.25000000  0.62500000  0.87500000
   0.37500000  0.50000000  0.87500000
   0.37500000  0.62500000  0.75000000
   0.25000000  0.75000000  0.00000000
   0.25000000  0.87500000  0.12500000
   0.37500000  0.75000000  0.12500000
   0.37500000  0.87500000  0.00000000
   0.25000000  0.75000000  0.25000000
   0.25000000  0.87500000  0.37500000
   0.37500000  0.75000000  0.37500000
   0.37500000  0.87500000  0.25000000
   0.25000000  0.75000000  0.50000000
   0.25000000  0.87500000  0.62500000
   0.37500000  0.75000000  0.62500000
   0.37500000  0.87500000  0.50000000
   0.25000000  0.75000000  0.75000000
   0.25000000  0.87500000  0.87500000
   0.37500000  0.75000000  0.87500000
   0.37500000  0.87500000  0.75000000
   0.50000000  0.00000000  0.00000000
   0.50000000  0.12500000  0.12500000
   0.62500000  0.00000000  0.12500000
   0.62500000  0.12500000  0.00000000
   0.50000000  0.00000000  0.25000000
   0.50000000  0.12500000  0.37500000
   0.62500000  0.00000000  0.37500000
   0.62500000  0.12500000  0.25000000
   0.50000000  0.00000000  0.50000000
   0.50000000  0.12500000  0.62500000
   0.62500000  0.00000000  0.62500000
   0.62500000  0.12500000  0.50000000
   0.50000000  0.00000000  0.75000000
   0.50000000  0.12500000  0.87500000
   0.62500000  0.00000000  0.87500000
   0.62500000  0.12500000  0.75000000
   0.50000000  0.25000000  0.00000000
   0.50000000  0.37500000  0.12500000
   0.62500000  0.25000000  0.12500000
   0.62500000  0.37500000  0.00000000
   0.50000000  0.25000000  0.25000000
   0.50000000  0.37500000  0.37500000
   0.62500000  0.25000000  0.37500000
   0.62500000  0.37500000  0.25000000
   0.50000000  0.25000000  0.50000000
   0.50000000  0.37500000  0.62500000
   0.62500000  0.25000000  0.62500000
   0.62500000  0.37500000  0.50000000
   0.50000000  0.25000000  0.75000000
   0.50000000  0.37500000  0.87500000
   0.62500000  0.25000000  0.87500000
   0.62500000  0.37500000  0.75000000
   0.50000000  0.50000000  0.00000000
   0.50000000  0.62500000  0.12500000
   0.62500000  0.50000000  0.12500000
   0.62500000  0.62500000  0.00000000
   0.50000000  0.50000000  0.25000000
   0.50000000  0.62500000  0.37500000
   0.62500000  0.50000000  0.37500000
   0.62500000  0.62500000  0.25000000
   0.50000000  0.50000000  0.50000000
   0.50000000  0.62500000  0.62500000
   0.62500000  0.50000000  0.62500000
   0.62500000  0.62500000  0.50000000
   0.50000000  0.50000000  0.75000000
   0.50000000  0.62500000  0.87500000
   0.62500000  0.50000000  0.87500000
   0.62500000  0.62500000  0.75000000
   0.50000000  0.75000000  0.00000000
   0.50000000  0.87500000  0.12500000
   0.62500000  0.75000000  0.12500000
   0.62500000  0.87500000  0.00000000
   0.50000000  0.75000000  0.25000000
   0.50000000  0.87500000  0.37500000
   0.62500000  0.75000000  0.37500000
   0.62500000  0.87500000  0.25000000
   0.50000000  0.75000000  0.50000000
   0.50000000  0.87500000  0.62500000
   0.62500000  0.75000000  0.62500000
   0.62500000  0.87500000  0.50000000
   0.50000000  0.75000000  0.75000000
   0.50000000  0.87500000  0.87500000
   0.62500000  0.75000000  0.87500000
   0.62500000  0.87500000  0.75000000
   0.75000000  0.00000000  0.00000000
   0.75000000  0.12500000  0.12500000
   0.87500000  0.00000000  0.12500000
   0.87500000  0.12500000  0.00000000
   0.75000000  0.00000000  0.25000000
   0.75000000  0.12500000  0.37500000
   0.87500000  0.00000000  0.37500000
   0.87500000  0.12500000  0.25000000
   0.75000000  0.00000000  0.50000000
   0.75000000  0.12500000  0.62500000
   0.87500000  0.00000000  0.62500000
   0.87500000  0.12500000  0.50000000
   0.75000000  0.00000000  0.75000000
   0.75000000  0.12500000  0.87500000
   0.87500000  0.00000000  0.87500000
   0.87500000  0.12500000  0.75000000
   0.75000000  0.25000000  0.00000000
   0.75000000  0.37500000  0.12500000
   0.87500000  0.25000000  0.12500000
   0.87500000  0.37500000  0.00000000
   0.75000000  0.25000000  0.25000000
   0.75000000  0.37500000  0.37500000
   0.87500000  0.25000000  0.37500000
   0.87500000  0.37500000  0.25000000
   0.75000000  0.25000000  0.50000000
   0.75000000  0.37500000  0.62500000
   0.87500000  0.25000000  0.62500000
   0.87500000  0.37500000  0.50000000
   0.75000000  0.25000000  0.75000000
   0.75000000  0.37500000  0.87500000
   0.87500000  0.25000000  0.87500000
   0.87500000  0.37500000  0.75000000
   0.75000000  0.50000000  0.00000000
   0.75000000  0.62500000  0.12500000
   0.87500000  0.50000000  0.12500000
   0.87500000  0.62500000  0.00000000
   0.75000000  0.50000000  0.25000000
   0.75000000  0.62500000  0.37500000
   0.87500000  0.50000000  0.37500000
   0.87500000  0.62500000  0.25000000
   0.75000000  0.50000000  0.50000000
   0.75000000  0.62500000  0.62500000
   0.87500000  0.50000000  0.62500000
   0.87500000  0.62500000  0.50000000
   0.75000000  0.50000000  0.75000000
   0.75000000  0.62500000  0.87500000
   0.87500000  0.50000000  0.87500000
   0.87500000  0.62500000  0.75000000
   0.75000000  0.75000000  0.00000000
   0.75000000  0.87500000  0.12500000
   0.87500000  0.75000000  0.12500000
   0.87500000  0.87500000  0.00000000
   0.75000000  0.75000000  0.25000000
   0.75000000  0.87500000  0.37500000
   0.87500000  0.75000000  0.37500000
   0.87500000  0.87500000  0.25000000
   0.75000000  0.75000000  0.50000000
   0.75000000  0.87500000  0.62500000
   0.87500000  0.75000000  0.62500000
   0.87500000  0.87500000  0.50000000
   0.75000000  0.75000000  0.75000000
   0.75000000  0.87500000  0.87500000
   0.87500000  0.75000000  0.87500000
   0.87500000  0.87500000  0.75000000
   0.12500000  0.00000000  0.00000000
Direct configuration=     2
  -0.00053789 -0.00000000 -0.00000000
   0.00000076  0.12499924  0.12499924
   0.12500000 -0.00000000  0.12553789
   0.12500000  0.12553789 -0.00000000
   0.00001215 -0.00000000  0.25002886
   0.00001097  0.12498903  0.37499786
   0.12500000 -0.00000000  0.37492521
   0.12500000  0.12498785  0.25002886
   0.00001036 -0.00000000  0.50000000
   0.00001097  0.12498903  0.62500214
   0.12500000 -0.00000000  0.62507479
   0.12500000  0.12498964  0.50000000
   0.00001215 -0.00000000  0.74997114
   0.00000076  0.12499924  0.87500076
   0.12500000 -0.00000000  0.87446211
   0.12500000  0.12498785  0.74997114
   0.00001215  0.25002886 -0.00000000
   0.00001097  0.37499786  0.12498903
   0.12500000  0.25002886  0.12498785
   0.12500000  0.37492521 -0.00000000
   0.00001751  0.24997953  0.24997953
  -0.00000683  0.37499940  0.37499940
   0.12500000  0.24997421  0.37498146
   0.12500000  0.37498146  0.24997421
   0.00000403  0.24997552  0.50000000
  -0.00000683  0.37499940  0.62500060
   0.12500000  0.24997421  0.62501854
   0.12500000  0.37502127  0.50000000
   0.00001751  0.24997953  0.75002047
   0.00001097  0.37499786  0.87501097
   0.12500000  0.25002886  0.87501215
   0.12500000  0.37498146  0.75002579
   0.00001036  0.50000000 -0.00000000
   0.00001097  0.62500214  0.12498903
   0.12500000  0.50000000  0.12498964
   0.12500000  0.62507479 -0.00000000
   0.00000403  0.50000000  0.24997552
  -0.00000683  0.62500060  0.37499940
   0.12500000  0.50000000  0.37502127
   0.12500000  0.62501854  0.24997421
  -0.00000061  0.50000000  0.50000000
  -0.00000683  0.62500060  0.62500060
   0.12500000  0.50000000  0.62497873
   0.12500000  0.62497873  0.50000000
   0.00000403  0.50000000  0.75002448
   0.00001097  0.62500214  0.87501097
   0.12500000  0.50000000  0.87501036
   0.12500000  0.62501854  0.75002579
   0.00001215  0.74997114 -0.00000000
   0.00000076  0.87500076  0.12499924
   0.12500000  0.74997114  0.12498785
   0.12500000  0.87446211 -0.00000000
   0.00001751  0.75002047  0.24997953
   0.00001097  0.87501097  0.37499786
   0.12500000  0.75002579  0.37498146
   0.12500000  0.87501215  0.25002886
   0.00000403  0.75002448  0.50000000
   0.00001097  0.87501097  0.62500214
   0.12500000  0.75002579  0.62501854
   0.12500000  0.87501036  0.50000000
   0.00001751  0.75002047  0.75002047
   0.00000076  0.87500076  0.87500076
   0.12500000  0.74997114  0.87501215
   0.12500000  0.87501215  0.74997114
   0.25053789 -0.00000000 -0.00000000
   0.24999924  0.12499924  0.12499924
   0.37502886 -0.00000000  0.12498785
   0.37502886  0.12498785 -0.00000000
   0.24998785 -0.00000000  0.25002886
   0.24998903  0.12498903  0.37499786
   0.37497421 -0.00000000  0.37498146
   0.37497953  0.12498249  0.24997953
   0.24998964 -0.00000000  0.50000000
   0.24998903  0.12498903  0.62500214
   0.37497421 -0.00000000  0.62501854
   0.37497552  0.12499597  0.50000000
   0.24998785 -0.00000000  0.74997114
   0.24999924  0.12499924  0.87500076
   0.37502886 -0.00000000  0.87501215
   0.37497953  0.12498249  0.75002047
   0.24998785  0.25002886 -0.00000000
   0.24998903  0.37499786  0.12498903
   0.37497953  0.24997953  0.12498249
   0.37497421  0.37498146 -0.00000000
   0.24998249  0.24997953  0.24997953
   0.25000683  0.37499940  0.37499940
   0.37500071  0.25000071  0.37499408
   0.37500071  0.37499408  0.25000071
   0.24999597  0.24997552  0.50000000
   0.25000683  0.37499940  0.62500060
   0.37500071  0.25000071  0.62500592
   0.37499599  0.37498997  0.50000000
   0.24998249  0.24997953  0.75002047
   0.24998903  0.37499786  0.87501097
   0.37497953  0.24997953  0.87501751
   0.37500071  0.37499408  0.74999929
   0.24998964  0.50000000 -0.00000000
   0.24998903  0.62500214  0.12498903
   0.37497552  0.50000000  0.12499597
   0.37497421  0.62501854 -0.00000000
   0.24999597  0.50000000  0.24997552
   0.25000683  0.62500060  0.37499940
   0.37499599  0.50000000  0.37498997
   0.37500071  0.62500592  0.25000071
   0.25000061  0.50000000  0.50000000
   0.25000683  0.62500060  0.62500060
   0.37499599  0.50000000  0.62501003
   0.37499599  0.62501003  0.50000000
   0.24999597  0.50000000  0.75002448
   0.24998903  0.62500214  0.87501097
   0.37497552  0.50000000  0.87500403
   0.37500071  0.62500592  0.74999929
   0.24998785  0.74997114 -0.00000000
   0.24999924  0.87500076  0.12499924
   0.37497953  0.75002047  0.12498249
   0.37502886  0.87501215 -0.00000000
   0.24998249  0.75002047  0.24997953
   0.24998903  0.87501097  0.37499786
   0.37500071  0.74999929  0.37499408
   0.37497953  0.87501751  0.24997953
   0.24999597  0.75002448  0.50000000
   0.24998903  0.87501097  0.62500214
   0.37500071  0.74999929  0.62500592
   0.37497552  0.87500403  0.50000000
   0.24998249  0.75002047  0.75002047
   0.24999924  0.87500076  0.87500076
   0.37497953  0.75002047  0.87501751
   0.37497953  0.87501751  0.75002047
   0.49992521 -0.00000000 -0.00000000
   0.49999786  0.12498903  0.12498903
   0.62500000 -0.00000000  0.12498964
   0.62500000  0.12498964 -0.00000000
   0.49998146 -0.00000000  0.24997421
   0.49999940  0.12500683  0.37499940
   0.62500000 -0.00000000  0.37502127
   0.62500000  0.12499597  0.24997552
   0.50002127 -0.00000000  0.50000000
   0.49999940  0.12500683  0.62500060
   0.62500000 -0.00000000  0.62497873
   0.62500000  0.12500061  0.50000000
   0.49998146 -0.00000000  0.75002579
   0.49999786  0.12498903  0.87501097
   0.62500000 -0.00000000  0.87501036
   0.62500000  0.12499597  0.75002448
   0.49998146  0.24997421 -0.00000000
   0.49999940  0.37499940  0.12500683
   0.62500000  0.24997552  0.12499597
   0.62500000  0.37502127 -0.00000000
   0.49999408  0.25000071  0.25000071
   0.49999641  0.37499641  0.37499641
   0.62500000  0.24999599  0.37498997
   0.62500000  0.37498997  0.24999599
   0.49998997  0.24999599  0.50000000
   0.49999641  0.37499641  0.62500359
   0.62500000  0.24999599  0.62501003
   0.62500000  0.37500850  0.50000000
   0.49999408  0.25000071  0.74999929
   0.49999940  0.37499940  0.87499317
   0.62500000  0.24997552  0.87500403
   0.62500000  0.37498997  0.75000401
   0.50002127  0.50000000 -0.00000000
   0.49999940  0.62500060  0.12500683
   0.62500000  0.50000000  0.12500061
   0.62500000  0.62497873 -0.00000000
   0.49998997  0.50000000  0.24999599
   0.49999641  0.62500359  0.37499641
   0.62500000  0.50000000  0.37500850
   0.62500000  0.62501003  0.24999599
   0.50000850  0.50000000  0.50000000
   0.49999641  0.62500359  0.62500359
   0.62500000  0.50000000  0.62499150
   0.62500000  0.62499150  0.50000000
   0.49998997  0.50000000  0.75000401
   0.49999940  0.62500060  0.87499317
   0.62500000  0.50000000  0.87499939
   0.62500000  0.62501003  0.75000401
   0.49998146  0.75002579 -0.00000000
   0.49999786  0.87501097  0.12498903
   0.62500000  0.75002448  0.12499597
   0.62500000  0.87501036 -0.00000000
   0.49999408  0.74999929  0.25000071
   0.49999940  0.87499317  0.37499940
   0.62500000  0.75000401  0.37498997
   0.62500000  0.87500403  0.24997552
   0.49998997  0.75000401  0.50000000
   0.49999940  0.87499317  0.62500060
   0.62500000  0.75000401  0.62501003
   0.62500000  0.87499939  0.50000000
   0.49999408  0.74999929  0.74999929
   0.49999786  0.87501097  0.87501097
   0.62500000  0.75002448  0.87500403
   0.62500000  0.87500403  0.75002448
   0.75007479 -0.00000000 -0.00000000
   0.75000214  0.12498903  0.12498903
   0.87497114 -0.00000000  0.12498785
   0.87497114  0.12498785 -0.00000000
   0.75001854 -0.00000000  0.24997421
   0.75000060  0.12500683  0.37499940
   0.87502579 -0.00000000  0.37498146
   0.87502047  0.12498249  0.24997953
   0.74997873 -0.00000000  0.50000000
   0.75000060  0.12500683  0.62500060
   0.87502579 -0.00000000  0.62501854
   0.87502448  0.12499597  0.50000000
   0.75001854 -0.00000000  0.75002579
   0.75000214  0.12498903  0.87501097
   0.87497114 -0.00000000  0.87501215
   0.87502047  0.12498249  0.75002047
   0.75001854  0.24997421 -0.00000000
   0.75000060  0.37499940  0.12500683
   0.87502047  0.24997953  0.12498249
   0.87502579  0.37498146 -0.00000000
   0.75000592  0.25000071  0.25000071
   0.75000359  0.37499641  0.37499641
   0.87499929  0.25000071  0.37499408
   0.87499929  0.37499408  0.25000071
   0.75001003  0.24999599  0.50000000
   0.75000359  0.37499641  0.62500359
   0.87499929  0.25000071  0.62500592
   0.87500401  0.37498997  0.50000000
   0.75000592  0.25000071  0.74999929
   0.75000060  0.37499940  0.87499317
   0.87502047  0.24997953  0.87501751
   0.87499929  0.37499408  0.74999929
   0.74997873  0.50000000 -0.00000000
   0.75000060  0.62500060  0.12500683
   0.87502448  0.50000000  0.12499597
   0.87502579  0.62501854 -0.00000000
   0.75001003  0.50000000  0.24999599
   0.75000359  0.62500359  0.37499641
   0.87500401  0.50000000  0.37498997
   0.87499929  0.62500592  0.25000071
   0.74999150  0.50000000  0.50000000
   0.75000359  0.62500359  0.62500359
   0.87500401  0.50000000  0.62501003
   0.87500401  0.62501003  0.50000000
   0.75001003  0.50000000  0.75000401
   0.75000060  0.62500060  0.87499317
   0.87502448  0.50000000  0.87500403
   0.87499929  0.62500592  0.74999929
   0.75001854  0.75002579 -0.00000000
   0.75000214  0.87501097  0.12498903
   0.87502047  0.75002047  0.12498249
   0.87497114  0.87501215 -0.00000000
   0.75000592  0.74999929  0.25000071
   0.75000060  0.87499317  0.37499940
   0.87499929  0.74999929  0.37499408
   0.87502047  0.87501751  0.24997953
   0.75001003  0.75000401  0.50000000
   0.75000060  0.87499317  0.62500060
   0.87499929  0.74999929  0.62500592
   0.87502448  0.87500403  0.50000000
   0.75000592  0.74999929  0.74999929
   0.75000214  0.87501097  0.87501097
   0.87502047  0.75002047  0.87501751
   0.87502047  0.87501751  0.75002047
   0.12500000 -0.00000000 -0.00000000
Direct configuration=     3
  -0.00215156 -0.00000000 -0.00000000
   0.00000302  0.12499698  0.12499698
   0.12500000 -0.00000000  0.12715156
   0.12500000  0.12715156 -0.00000000
   0.00004859 -0.00000000  0.25011546
   0.00004386  0.12495614  0.37499145
   0.12500000 -0.00000000  0.37470084
   0.12500000  0.12495141  0.25011546
   0.00004146 -0.00000000  0.50000000
   0.00004386  0.12495614  0.62500855
   0.12500000 -0.00000000  0.62529916
   0.12500000  0.12495854  0.50000000
   0.00004859 -0.00000000  0.74988454
   0.00000302  0.12499698  0.87500302
   0.12500000 -0.00000000  0.87284844
   0.12500000  0.12495141  0.74988454
   0.00004859  0.25011546 -0.00000000
   0.00004386  0.37499145  0.12495614
   0.12500000  0.25011546  0.12495141
   0.12500000  0.37470084 -0.00000000
   0.00007006  0.24991812  0.24991812
  -0.00002733  0.37499762  0.37499762
   0.12500000  0.24989684  0.37492586
   0.12500000  0.37492586  0.24989684
   0.00001612  0.24990208  0.50000000
  -0.00002733  0.37499762  0.62500238
   0.12500000  0.24989684  0.62507414
   0.12500000  0.37508507  0.50000000
   0.00007006  0.24991812  0.75008188
   0.00004386  0.37499145  0.87504386
   0.12500000  0.25011546  0.87504859
   0.12500000  0.37492586  0.75010316
   0.00004146  0.50000000 -0.00000000
   0.00004386  0.62500855  0.12495614
   0.12500000  0.50000000  0.12495854
   0.12500000  0.62529916 -0.00000000
   0.00001612  0.50000000  0.24990208
  -0.00002733  0.62500238  0.37499762
   0.12500000  0.50000000  0.37508507
   0.12500000  0.62507414  0.24989684
  -0.00000243  0.50000000  0.50000000
  -0.00002733  0.62500238  0.62500238
   0.12500000  0.50000000  0.62491493
   0.12500000  0.62491493  0.50000000
   0.00001612  0.50000000  0.75009792
   0.00004386  0.62500855  0.87504386
   0.12500000  0.50000000  0.87504146
   0.12500000  0.62507414  0.75010316
   0.00004859  0.74988454 -0.00000000
   0.00000302  0.87500302  0.12499698
   0.12500000  0.74988454  0.12495141
   0.12500000  0.87284844 -0.00000000
   0.00007006  0.75008188  0.24991812
   0.00004386  0.87504386  0.37499145
   0.12500000  0.75010316  0.37492586
   0.12500000  0.87504859  0.25011546
   0.00001612  0.75009792  0.50000000
   0.00004386  0.87504386  0.62500855
   0.12500000  0.75010316  0.62507414
   0.12500000  0.87504146  0.50000000
   0.00007006  0.75008188  0.75008188
   0.00000302  0.87500302  0.87500302
   0.12500000  0.74988454  0.87504859
   0.12500000  0.87504859  0.74988454
   0.25215156 -0.00000000 -0.00000000
   0.24999698  0.12499698  0.12499698
   0.37511546 -0.00000000  0.12495141
   0.37511546  0.12495141 -0.00000000
   0.24995141 -0.00000000  0.25011546
   0.24995614  0.12495614  0.37499145
   0.37489684 -0.00000000  0.37492586
   0.37491812  0.12492994  0.24991812
   0.24995854 -0.00000000  0.50000000
   0.24995614  0.12495614  0.62500855
   0.37489684 -0.00000000  0.62507414
   0.37490208  0.12498388  0.50000000
   0.24995141 -0.00000000  0.74988454
   0.24999698  0.12499698  0.87500302
   0.37511546 -0.00000000  0.87504859
   0.37491812  0.12492994  0.75008188
   0.24995141  0.25011546 -0.00000000
   0.24995614  0.37499145  0.12495614
   0.37491812  0.24991812  0.12492994
   0.37489684  0.37492586 -0.00000000
   0.24992994  0.24991812  0.24991812
   0.25002733  0.37499762  0.37499762
   0.37500283  0.25000283  0.37497630
   0.37500283  0.37497630  0.25000283
   0.24998388  0.24990208  0.50000000
   0.25002733  0.37499762  0.62500238
   0.37500283  0.25000283  0.62502370
   0.37498398  0.37495990  0.50000000
   0.24992994  0.24991812  0.75008188
   0.24995614  0.37499145  0.87504386
   0.37491812  0.24991812  0.87507006
   0.37500283  0.37497630  0.74999717
   0.24995854  0.50000000 -0.00000000
   0.24995614  0.62500855  0.12495614
   0.37490208  0.50000000  0.12498388
   0.37489684  0.62507414 -0.00000000
   0.24998388  0.50000000  0.24990208
   0.25002733  0.62500238  0.37499762
   0.37498398  0.50000000  0.37495990
   0.37500283  0.62502370  0.25000283
   0.25000243  0.50000000  0.50000000
   0.25002733  0.62500238  0.62500238
   0.37498398  0.50000000  0.62504010
   0.37498398  0.62504010  0.50000000
   0.24998388  0.50000000  0.75009792
   0.24995614  0.62500855  0.87504386
   0.37490208  0.50000000  0.87501612
   0.37500283  0.62502370  0.74999717
   0.24995141  0.74988454 -0.00000000
   0.24999698  0.87500302  0.12499698
   0.37491812  0.75008188  0.12492994
   0.37511546  0.87504859 -0.00000000
   0.24992994  0.75008188  0.24991812
   0.24995614  0.87504386  0.37499145
   0.37500283  0.74999717  0.37497630
   0.37491812  0.87507006  0.24991812
   0.24998388  0.75009792  0.50000000
   0.24995614  0.87504386  0.62500855
   0.37500283  0.74999717  0.62502370
   0.37490208  0.87501612  0.50000000
   0.24992994  0.75008188  0.75008188
   0.24999698  0.87500302  0.87500302
   0.37491812  0.75008188  0.87507006
   0.37491812  0.87507006  0.75008188
   0.49970084 -0.00000000 -0.00000000
   0.49999145  0.12495614  0.12495614
   0.62500000 -0.00000000  0.12495854
   0.62500000  0.12495854 -0.00000000
   0.49992586 -0.00000000  0.24989684
   0.49999762  0.12502733  0.37499762
   0.62500000 -0.00000000  0.37508507
   0.62500000  0.12498388  0.24990208
   0.50008507 -0.00000000  0.50000000
   0.49999762  0.12502733  0.62500238
   0.62500000 -0.00000000  0.62491493
   0.62500000  0.12500243  0.50000000
   0.49992586 -0.00000000  0.75010316
   0.49999145  0.12495614  0.87504386
   0.62500000 -0.00000000  0.87504146
   0.62500000  0.12498388  0.75009792
   0.49992586  0.24989684 -0.00000000
   0.49999762  0.37499762  0.12502733
   0.62500000  0.24990208  0.12498388
   0.62500000  0.37508507 -0.00000000
   0.49997630  0.25000283  0.25000283
   0.49998563  0.37498563  0.37498563
   0.62500000  0.24998398  0.37495990
   0.62500000  0.37495990  0.24998398
   0.49995990  0.24998398  0.50000000
   0.49998563  0.37498563  0.62501437
   0.62500000  0.24998398  0.62504010
   0.62500000  0.37503399  0.50000000
   0.49997630  0.25000283  0.74999717
   0.49999762  0.37499762  0.87497267
   0.62500000  0.24990208  0.87501612
   0.62500000  0.37495990  0.75001602
   0.50008507  0.50000000 -0.00000000
   0.49999762  0.62500238  0.12502733
   0.62500000  0.50000000  0.12500243
   0.62500000  0.62491493 -0.00000000
   0.49995990  0.50000000  0.24998398
   0.49998563  0.62501437  0.37498563
   0.62500000  0.50000000  0.37503399
   0.62500000  0.62504010  0.24998398
   0.50003399  0.50000000  0.50000000
   0.49998563  0.62501437  0.62501437
   0.62500000  0.50000000  0.62496601
   0.62500000  0.62496601  0.50000000
   0.49995990  0.50000000  0.75001602
   0.49999762  0.62500238  0.87497267
   0.62500000  0.50000000  0.87499757
   0.62500000  0.62504010  0.75001602
   0.49992586  0.75010316 -0.00000000
   0.49999145  0.87504386  0.12495614
   0.62500000  0.75009792  0.12498388
   0.62500000  0.87504146 -0.00000000
   0.49997630  0.74999717  0.25000283
   0.49999762  0.87497267  0.37499762
   0.62500000  0.75001602  0.37495990
   0.62500000  0.87501612  0.24990208
   0.49995990  0.75001602  0.50000000
   0.49999762  0.87497267  0.62500238
   0.62500000  0.75001602  0.62504010
   0.62500000  0.87499757  0.50000000
   0.49997630  0.74999717  0.74999717
   0.49999145  0.87504386  0.87504386
   0.62500000  0.75009792  0.87501612
   0.62500000  0.87501612  0.75009792
   0.75029916 -0.00000000 -0.00000000
   0.75000855  0.12495614  0.12495614
   0.87488454 -0.00000000  0.12495141
   0.87488454  0.12495141 -0.00000000
   0.75007414 -0.00000000  0.24989684
   0.75000238  0.12502733  0.37499762
   0.87510316 -0.00000000  0.37492586
   0.87508188  0.12492994  0.24991812
   0.74991493 -0.00000000  0.50000000
   0.75000238  0.12502733  0.62500238
   0.87510316 -0.00000000  0.62507414
   0.87509792  0.12498388  0.50000000
   0.75007414 -0.00000000  0.75010316
   0.75000855  0.12495614  0.87504386
   0.87488454 -0.00000000  0.87504859
   0.87508188  0.12492994  0.75008188
   0.75007414  0.24989684 -0.00000000
   0.75000238  0.37499762  0.12502733
   0.87508188  0.24991812  0.12492994
   0.87510316  0.37492586 -0.00000000
   0.75002370  0.25000283  0.25000283
   0.75001437  0.37498563  0.37498563
   0.87499717  0.25000283  0.37497630
   0.87499717  0.37497630  0.25000283
   0.75004010  0.24998398  0.50000000
   0.75001437  0.37498563  0.62501437
   0.87499717  0.25000283  0.62502370
   0.87501602  0.37495990  0.50000000
   0.75002370  0.25000283  0.74999717
   0.75000238  0.37499762  0.87497267
   0.87508188  0.24991812  0.87507006
   0.87499717  0.37497630  0.74999717
   0.74991493  0.50000000 -0.00000000
   0.75000238  0.62500238  0.12502733
   0.87509792  0.50000000  0.12498388
   0.87510316  0.62507414 -0.00000000
   0.75004010  0.50000000  0.24998398
   0.75001437  0.62501437  0.37498563
   0.87501602  0.50000000  0.37495990
   0.87499717  0.62502370  0.25000283
   0.74996601  0.50000000  0.50000000
   0.75001437  0.62501437  0.62501437
   0.87501602  0.50000000  0.62504010
   0.87501602  0.62504010  0.50000000
   0.75004010  0.50000000  0.75001602
   0.75000238  0.62500238  0.87497267
   0.87509792  0.50000000  0.87501612
   0.87499717  0.62502370  0.74999717
   0.75007414  0.75010316 -0.00000000
   0.75000855  0.87504386  0.12495614
   0.87508188  0.75008188  0.12492994
   0.87488454  0.87504859 -0.00000000
   0.75002370  0.74999717  0.25000283
   0.75000238  0.87497267  0.37499762
   0.87499717  0.74999717  0.37497630
   0.87508188  0.87507006  0.24991812
   0.75004010  0.75001602  0.50000000
   0.75000238  0.87497267  0.62500238
   0.87499717  0.74999717  0.62502370
   0.87509792  0.87501612  0.50000000
   0.75002370  0.74999717  0.74999717
   0.75000855  0.87504386  0.87504386
   0.87508188  0.75008188  0.87507006
   0.87508188  0.87507006  0.75008188
   0.12500000 -0.00000000 -0.00000000
Direct configuration=     4
  -0.00235118 -0.00000000 -0.00000000
   0.00000330  0.12499670  0.12499670
   0.12500000 -0.00000000  0.12735118
   0.12500000  0.12735118 -0.00000000
   0.00005310 -0.00000000  0.25012617
   0.00004793  0.12495207  0.37499065
   0.12500000 -0.00000000  0.37467308
   0.12500000  0.12494690  0.25012617
   0.00004531 -0.00000000  0.50000000
   0.00004793  0.12495207  0.62500935