 254 254   0   0
  0.2268316E+02  0.1514622E-08  0.1514622E-08  0.2900000E-08  0.5000000E-15
  1.000000000000000E-004
  CAR 
 NiAl                                    
      6.02651222    -22.68123465  301     -0.56911967      1.00000000
    -22.681  0.0000E+00  0.0000E+00
    -22.586  0.0000E+00  0.0000E+00
    -22.490  0.0000E+00  0.0000E+00
    -22.394  0.0000E+00  0.0000E+00
    -22.298  0.0000E+00  0.0000E+00
    -22.203  0.0000E+00  0.0000E+00
    -22.107  0.0000E+00  0.0000E+00
    -22.011  0.0000E+00  0.0000E+00
    -21.916  0.0000E+00  0.0000E+00
    -21.820  0.0000E+00  0.0000E+00
    -21.724  0.0000E+00  0.0000E+00
    -21.629  0.9970E-11  0.9541E-12
    -21.533  0.9830E-04  0.9406E-05
    -21.437  0.8855E+00  0.8474E-01
    -21.342  0.1661E+02  0.1674E+01
    -21.246  0.3401E+01  0.2000E+01
    -21.150  0.2349E-02  0.2000E+01
    -21.054  0.1667E-08  0.2000E+01
    -20.959  0.0000E+00  0.2000E+01
    -20.863  0.0000E+00  0.2000E+01
    -20.767  0.0000E+00  0.2000E+01
    -20.672  0.0000E+00  0.2000E+01
    -20.576  0.0000E+00  0.2000E+01
    -20.480  0.0000E+00  0.2000E+01
    -20.385  0.0000E+00  0.2000E+01
    -20.289  0.0000E+00  0.2000E+01
    -20.193  0.0000E+00  0.2000E+01
    -20.098  0.0000E+00  0.2000E+01
    -20.002  0.0000E+00  0.2000E+01
    -19.906  0.0000E+00  0.2000E+01
    -19.810  0.0000E+00  0.2000E+01
    -19.715  0.0000E+00  0.2000E+01
    -19.619  0.0000E+00  0.2000E+01
    -19.523  0.0000E+00  0.2000E+01
    -19.428  0.0000E+00  0.2000E+01
    -19.332  0.0000E+00  0.2000E+01
    -19.236  0.0000E+00  0.2000E+01
    -19.141  0.0000E+00  0.2000E+01
    -19.045  0.0000E+00  0.2000E+01
    -18.949  0.0000E+00  0.2000E+01
    -18.854  0.0000E+00  0.2000E+01
    -18.758  0.0000E+00  0.2000E+01
    -18.662  0.0000E+00  0.2000E+01
    -18.566  0.0000E+00  0.2000E+01
    -18.471  0.0000E+00  0.2000E+01
    -18.375  0.0000E+00  0.2000E+01
    -18.279  0.0000E+00  0.2000E+01
    -18.184  0.0000E+00  0.2000E+01
    -18.088  0.0000E+00  0.2000E+01
    -17.992  0.0000E+00  0.2000E+01
    -17.897  0.0000E+00  0.2000E+01
    -17.801  0.0000E+00  0.2000E+01
    -17.705  0.0000E+00  0.2000E+01
    -17.610  0.0000E+00  0.2000E+01
    -17.514  0.0000E+00  0.2000E+01
    -17.418  0.0000E+00  0.2000E+01
    -17.322  0.0000E+00  0.2000E+01
    -17.227  0.0000E+00  0.2000E+01
    -17.131  0.0000E+00  0.2000E+01
    -17.035  0.0000E+00  0.2000E+01
    -16.940  0.0000E+00  0.2000E+01
    -16.844  0.0000E+00  0.2000E+01
    -16.748  0.0000E+00  0.2000E+01
    -16.653  0.0000E+00  0.2000E+01
    -16.557  0.0000E+00  0.2000E+01
    -16.461  0.0000E+00  0.2000E+01
    -16.366  0.0000E+00  0.2000E+01
    -16.270  0.0000E+00  0.2000E+01
    -16.174  0.0000E+00  0.2000E+01
    -16.078  0.0000E+00  0.2000E+01
    -15.983  0.0000E+00  0.2000E+01
    -15.887  0.0000E+00  0.2000E+01
    -15.791  0.0000E+00  0.2000E+01
    -15.696  0.0000E+00  0.2000E+01
    -15.600  0.0000E+00  0.2000E+01
    -15.504  0.0000E+00  0.2000E+01
    -15.409  0.0000E+00  0.2000E+01
    -15.313  0.0000E+00  0.2000E+01
    -15.217  0.0000E+00  0.2000E+01
    -15.122  0.0000E+00  0.2000E+01
    -15.026  0.0000E+00  0.2000E+01
    -14.930  0.0000E+00  0.2000E+01
    -14.834  0.0000E+00  0.2000E+01
    -14.739  0.0000E+00  0.2000E+01
    -14.643  0.0000E+00  0.2000E+01
    -14.547  0.0000E+00  0.2000E+01
    -14.452  0.0000E+00  0.2000E+01
    -14.356  0.1954E-10  0.2000E+01
    -14.260  0.1508E-03  0.2000E+01
    -14.165  0.1076E+01  0.2103E+01
    -14.069  0.1688E+02  0.3718E+01
    -13.973  0.2945E+01  0.4000E+01
    -13.878  0.1622E-02  0.4000E+01
    -13.782  0.9024E-09  0.4000E+01
    -13.686  0.0000E+00  0.4000E+01
    -13.590  0.0000E+00  0.4000E+01
    -13.495  0.0000E+00  0.4000E+01
    -13.399  0.0000E+00  0.4000E+01
    -13.303  0.0000E+00  0.4000E+01
    -13.208  0.0000E+00  0.4000E+01
    -13.112  0.0000E+00  0.4000E+01
    -13.016  0.0000E+00  0.4000E+01
    -12.921  0.0000E+00  0.4000E+01
    -12.825  0.0000E+00  0.4000E+01
    -12.729  0.0000E+00  0.4000E+01
    -12.634  0.0000E+00  0.4000E+01
    -12.538  0.0000E+00  0.4000E+01
    -12.442  0.0000E+00  0.4000E+01
    -12.346  0.0000E+00  0.4000E+01
    -12.251  0.0000E+00  0.4000E+01
    -12.155  0.0000E+00  0.4000E+01
    -12.059  0.0000E+00  0.4000E+01
    -11.964  0.0000E+00  0.4000E+01
    -11.868  0.0000E+00  0.4000E+01
    -11.772  0.0000E+00  0.4000E+01
    -11.677  0.0000E+00  0.4000E+01
    -11.581  0.0000E+00  0.4000E+01
    -11.485  0.0000E+00  0.4000E+01
    -11.390  0.0000E+00  0.4000E+01
    -11.294  0.0000E+00  0.4000E+01
    -11.198  0.0000E+00  0.4000E+01
    -11.102  0.0000E+00  0.4000E+01
    -11.007  0.0000E+00  0.4000E+01
    -10.911  0.0000E+00  0.4000E+01
    -10.815  0.0000E+00  0.4000E+01
    -10.720  0.0000E+00  0.4000E+01
    -10.624  0.0000E+00  0.4000E+01
    -10.528  0.0000E+00  0.4000E+01
    -10.433  0.0000E+00  0.4000E+01
    -10.337  0.0000E+00  0.4000E+01
    -10.241  0.0000E+00  0.4000E+01
    -10.146  0.0000E+00  0.4000E+01
    -10.050  0.0000E+00  0.4000E+01
     -9.954  0.0000E+00  0.4000E+01
     -9.858  0.0000E+00  0.4000E+01
     -9.763  0.0000E+00  0.4000E+01
     -9.667  0.0000E+00  0.4000E+01
     -9.571  0.0000E+00  0.4000E+01
     -9.476  0.0000E+00  0.4000E+01
     -9.380  0.1421E-13  0.4000E+01
     -9.284  0.8482E-06  0.4000E+01
     -9.189  0.4265E-01  0.4004E+01
     -9.093  0.3747E+01  0.4363E+01
     -8.997  0.1455E+02  0.5755E+01
     -8.902  0.7427E+01  0.6466E+01
     -8.806  0.1476E+02  0.7878E+01
     -8.710  0.1651E+02  0.9459E+01
     -8.614  0.4338E+00  0.9500E+01
     -8.519  0.8361E+00  0.9580E+01
     -8.423  0.6548E+01  0.1021E+02
     -8.327  0.3103E+02  0.1318E+02
     -8.232  0.2720E+02  0.1578E+02
     -8.136  0.3415E+02  0.1905E+02
     -8.040  0.1974E+02  0.2094E+02
     -7.945  0.7115E+00  0.2100E+02
     -7.849  0.1165E+02  0.2212E+02
     -7.753  0.1944E+02  0.2398E+02
     -7.658  0.1251E+02  0.2518E+02
     -7.562  0.2885E+02  0.2794E+02
     -7.466  0.6958E+02  0.3460E+02
     -7.370  0.3485E+02  0.3793E+02
     -7.275  0.5929E+01  0.3850E+02
     -7.179  0.4728E+00  0.3854E+02
     -7.083  0.2766E+02  0.4119E+02
     -6.988  0.7351E+02  0.4823E+02
     -6.892  0.2678E+02  0.5079E+02
     -6.796  0.2273E+02  0.5296E+02
     -6.701  0.7075E+01  0.5364E+02
     -6.605  0.2868E+02  0.5638E+02
     -6.509  0.2411E+02  0.5869E+02
     -6.414  0.3948E+02  0.6247E+02
     -6.318  0.6328E+02  0.6853E+02
     -6.222  0.6074E+02  0.7434E+02
     -6.126  0.1239E+02  0.7552E+02
     -6.031  0.4684E+02  0.8001E+02
     -5.935  0.7529E+02  0.8721E+02
     -5.839  0.8238E+02  0.9509E+02
     -5.744  0.9199E+01  0.9597E+02
     -5.648  0.2431E+01  0.9621E+02
     -5.552  0.3152E+02  0.9922E+02
     -5.457  0.5890E+02  0.1049E+03
     -5.361  0.1395E+03  0.1182E+03
     -5.265  0.8499E+02  0.1263E+03
     -5.170  0.6062E+02  0.1321E+03
     -5.074  0.1079E+03  0.1425E+03
     -4.978  0.1145E+03  0.1534E+03
     -4.882  0.6616E+02  0.1598E+03
     -4.787  0.7420E+02  0.1669E+03
     -4.691  0.2731E+03  0.1930E+03
     -4.595  0.1597E+03  0.2083E+03
     -4.500  0.2370E+03  0.2309E+03
     -4.404  0.2328E+03  0.2532E+03
     -4.308  0.3258E+03  0.2844E+03
     -4.213  0.2262E+03  0.3061E+03
     -4.117  0.2857E+03  0.3334E+03
     -4.021  0.2876E+03  0.3609E+03
     -3.926  0.4442E+03  0.4034E+03
     -3.830  0.5326E+03  0.4544E+03
     -3.734  0.4401E+03  0.4965E+03
     -3.638  0.4717E+03  0.5416E+03
     -3.543  0.4462E+03  0.5843E+03
     -3.447  0.3887E+03  0.6215E+03
     -3.351  0.3463E+03  0.6547E+03
     -3.256  0.3822E+03  0.6912E+03
     -3.160  0.5114E+03  0.7402E+03
     -3.064  0.4812E+03  0.7862E+03
     -2.969  0.3727E+03  0.8219E+03
     -2.873  0.5958E+03  0.8789E+03
     -2.777  0.5125E+03  0.9279E+03
     -2.682  0.5259E+03  0.9783E+03
     -2.586  0.5479E+03  0.1031E+04
     -2.490  0.6617E+03  0.1094E+04
     -2.394  0.7116E+03  0.1162E+04
     -2.299  0.8318E+03  0.1242E+04
     -2.203  0.9053E+03  0.1328E+04
     -2.107  0.7838E+03  0.1403E+04
     -2.012  0.8868E+03  0.1488E+04
     -1.916  0.7442E+03  0.1559E+04
     -1.820  0.5628E+03  0.1613E+04
     -1.725  0.5972E+03  0.1670E+04
     -1.629  0.5422E+03  0.1722E+04
     -1.533  0.5456E+03  0.1775E+04
     -1.438  0.7474E+03  0.1846E+04
     -1.342  0.7663E+03  0.1919E+04
     -1.246  0.5416E+03  0.1971E+04
     -1.150  0.5817E+03  0.2027E+04
     -1.055  0.7682E+03  0.2100E+04
     -0.959  0.8435E+03  0.2181E+04
     -0.863  0.7258E+03  0.2251E+04
     -0.768  0.6665E+03  0.2314E+04
     -0.672  0.9541E+03  0.2406E+04
     -0.576  0.1216E+04  0.2522E+04
     -0.481  0.8488E+03  0.2603E+04
     -0.385  0.4503E+03  0.2646E+04
     -0.289  0.1882E+03  0.2664E+04
     -0.193  0.1245E+03  0.2676E+04
     -0.098  0.1686E+03  0.2692E+04
     -0.002  0.1493E+03  0.2707E+04
      0.094  0.7279E+02  0.2714E+04
      0.189  0.4814E+02  0.2718E+04
      0.285  0.5735E+02  0.2724E+04
      0.381  0.4988E+02  0.2729E+04
      0.476  0.1223E+03  0.2740E+04
      0.572  0.8422E+02  0.2748E+04
      0.668  0.8910E+02  0.2757E+04
      0.763  0.7800E+02  0.2764E+04
      0.859  0.1046E+03  0.2774E+04
      0.955  0.1201E+03  0.2786E+04
      1.051  0.1036E+03  0.2796E+04
      1.146  0.4448E+02  0.2800E+04
      1.242  0.4730E+02  0.2804E+04
      1.338  0.1081E+03  0.2815E+04
      1.433  0.5952E+02  0.2820E+04
      1.529  0.5372E+02  0.2826E+04
      1.625  0.7246E+02  0.2833E+04
      1.720  0.9966E+02  0.2842E+04
      1.816  0.6991E+02  0.2849E+04
      1.912  0.8578E+02  0.2857E+04
      2.007  0.1024E+03  0.2867E+04
      2.103  0.3572E+02  0.2870E+04
      2.199  0.9108E+02  0.2879E+04
      2.295  0.9768E+02  0.2888E+04
      2.390  0.1049E+03  0.2898E+04
      2.486  0.3323E+02  0.2902E+04
      2.582  0.4708E+02  0.2906E+04
      2.677  0.7181E+02  0.2913E+04
      2.773  0.3195E+02  0.2916E+04
      2.869  0.2630E+02  0.2918E+04
      2.964  0.5949E+02  0.2924E+04
      3.060  0.1363E+03  0.2937E+04
      3.156  0.1698E+03  0.2953E+04
      3.251  0.6453E+02  0.2960E+04
      3.347  0.3980E+02  0.2963E+04
      3.443  0.4942E+02  0.2968E+04
      3.539  0.9630E+02  0.2977E+04
      3.634  0.4089E+02  0.2981E+04
      3.730  0.5337E+02  0.2986E+04
      3.826  0.4848E+02  0.2991E+04
      3.921  0.1976E+02  0.2993E+04
      4.017  0.3382E+02  0.2996E+04
      4.113  0.2107E+02  0.2998E+04
      4.208  0.7710E+02  0.3006E+04
      4.304  0.4392E+02  0.3010E+04
      4.400  0.5081E+02  0.3015E+04
      4.495  0.8610E+02  0.3023E+04
      4.591  0.6998E+02  0.3030E+04
      4.687  0.5375E+02  0.3035E+04
      4.783  0.1347E+02  0.3036E+04
      4.878  0.2490E+00  0.3036E+04
      4.974  0.2491E-04  0.3036E+04
      5.070  0.2519E-11  0.3036E+04
      5.165  0.0000E+00  0.3036E+04
      5.261  0.0000E+00  0.3036E+04
      5.357  0.0000E+00  0.3036E+04
      5.452  0.0000E+00  0.3036E+04
      5.548  0.0000E+00  0.3036E+04
      5.644  0.0000E+00  0.3036E+04
      5.739  0.0000E+00  0.3036E+04
      5.835  0.0000E+00  0.3036E+04
      5.931  0.0000E+00  0.3036E+04
      6.027  0.0000E+00  0.3036E+04
