  254  254    1    1
  0.2268316E+02  0.1514622E-08  0.1514622E-08  0.2900000E-08  0.5000000E-15
  1.000000000000000E-004
  CAR 
 NiAl                                    
   2530      3   1518
 
  0.0000000E+00  0.0000000E+00  0.0000000E+00  0.2500000E+00
    1      -21.376232   1.000000
    2      -14.106850   1.000000
    3       -9.103672   1.000000
    4       -8.944527   1.000000
    5       -8.483581   1.000000
    6       -8.243900   1.000000
    7       -8.148828   1.000000
    8       -8.148213   1.000000
    9       -8.148186   1.000000
   10       -8.147614   1.000000
   11       -8.126110   1.000000
   12       -8.083316   1.000000
   13       -7.684123   1.000000
   14       -7.654608   1.000000
   15       -7.642576   1.000000
   16       -7.642441   1.000000
   17       -7.641233   1.000000
   18       -7.603905   1.000000
   19       -7.600427   1.000000
   20       -7.409443   1.000000
   21       -6.856844   1.000000
   22       -6.856762   1.000000
   23       -6.854461   1.000000
   24       -6.854140   1.000000
   25       -6.828597   1.000000
   26       -6.777222   1.000000
   27       -6.621450   1.000000
   28       -6.513269   1.000000
   29       -6.513064   1.000000
   30       -6.512532   1.000000
   31       -6.511010   1.000000
   32       -6.506755   1.000000
   33       -6.504401   1.000000
   34       -6.095291   1.000000
   35       -6.094342   1.000000
   36       -6.092870   1.000000
   37       -6.089584   1.000000
   38       -6.084421   1.000000
   39       -6.078567   1.000000
   40       -5.893675   1.000000
   41       -5.893603   1.000000
   42       -5.892984   1.000000
   43       -5.892133   1.000000
   44       -5.891704   1.000000
   45       -5.891168   1.000000
   46       -5.891021   1.000000
   47       -5.890877   1.000000
   48       -5.888490   1.000000
   49       -5.886100   1.000000
   50       -5.869469   1.000000
   51       -5.800672   1.000000
   52       -5.630577   1.000000
   53       -5.592915   1.000000
   54       -5.566446   1.000000
   55       -5.560568   1.000000
   56       -5.557270   1.000000
   57       -5.555191   1.000000
   58       -5.550035   1.000000
   59       -5.516898   1.000000
   60       -5.469258   1.000000
   61       -5.466444   1.000000
   62       -5.465710   1.000000
   63       -5.463193   1.000000
   64       -5.444086   1.000000
   65       -5.443652   1.000000
   66       -5.121519   1.000000
   67       -5.119475   1.000000
   68       -5.117175   1.000000
   69       -5.110232   1.000000
   70       -5.105433   1.000000
   71       -5.097618   1.000000
   72       -5.021997   1.000000
   73       -4.957852   1.000000
   74       -4.955494   1.000000
   75       -4.954784   1.000000
   76       -4.952913   1.000000
   77       -4.950924   1.000000
   78       -4.883102   1.000000
   79       -4.862337   1.000000
   80       -4.843060   1.000000
   81       -4.783818   1.000000
   82       -4.782092   1.000000
   83       -4.777545   1.000000
   84       -4.748442   1.000000
   85       -4.747859   1.000000
   86       -4.745011   1.000000
   87       -4.743325   1.000000
   88       -4.730031   1.000000
   89       -4.716577   1.000000
   90       -4.668756   1.000000
   91       -4.659830   1.000000
   92       -4.659608   1.000000
   93       -4.652150   1.000000
   94       -4.646613   1.000000
   95       -4.644857   1.000000
   96       -4.640920   1.000000
   97       -4.640452   1.000000
   98       -4.635789   1.000000
   99       -4.553029   1.000000
  100       -4.552777   1.000000
  101       -4.549601   1.000000
  102       -4.548857   1.000000
  103       -4.548577   1.000000
  104       -4.548530   1.000000
  105       -4.548447   1.000000
  106       -4.548190   1.000000
  107       -4.547637   1.000000
  108       -4.547339   1.000000
  109       -4.546190   1.000000
  110       -4.544128   1.000000
  111       -4.512227   1.000000
  112       -4.506354   1.000000
  113       -4.505596   1.000000
  114       -4.440744   1.000000
  115       -4.437461   1.000000
  116       -4.431858   1.000000
  117       -4.411760   1.000000
  118       -4.404373   1.000000
  119       -4.401793   1.000000
  120       -4.401489   1.000000
  121       -4.400392   1.000000
  122       -4.371460   1.000000
  123       -4.365404   1.000000
  124       -4.358036   1.000000
  125       -4.349827   1.000000
  126       -4.345453   1.000000
  127       -4.345183   1.000000
  128       -4.344907   1.000000
  129       -4.344765   1.000000
  130       -4.344666   1.000000
  131       -4.343995   1.000000
  132       -4.343938   1.000000
  133       -4.343393   1.000000
  134       -4.342425   1.000000
  135       -4.339756   1.000000
  136       -4.338169   1.000000
  137       -4.336827   1.000000
  138       -4.335014   1.000000
  139       -4.334776   1.000000
  140       -4.334655   1.000000
  141       -4.333905   1.000000
  142       -4.333636   1.000000
  143       -4.333058   1.000000
  144       -4.333017   1.000000
  145       -4.331474   1.000000
  146       -4.331205   1.000000
  147       -4.292490   1.000000
  148       -4.290093   1.000000
  149       -4.288097   1.000000
  150       -4.287921   1.000000
  151       -4.287508   1.000000
  152       -4.279352   1.000000
  153       -4.259273   1.000000
  154       -4.258845   1.000000
  155       -4.252200   1.000000
  156       -4.250983   1.000000
  157       -4.244416   1.000000
  158       -4.237467   1.000000
  159       -4.231257   1.000000
  160       -4.231037   1.000000
  161       -4.221898   1.000000
  162       -4.213333   1.000000
  163       -4.211243   1.000000
  164       -4.204138   1.000000
  165       -4.199047   1.000000
  166       -4.193989   1.000000
  167       -4.193390   1.000000
  168       -4.192766   1.000000
  169       -4.190729   1.000000
  170       -4.190452   1.000000
  171       -4.187382   1.000000
  172       -4.183242   1.000000
  173       -4.182869   1.000000
  174       -4.133070   1.000000
  175       -4.130848   1.000000
  176       -4.129634   1.000000
  177       -4.111315   1.000000
  178       -4.104370   1.000000
  179       -4.103180   1.000000
  180       -4.102032   1.000000
  181       -4.096986   1.000000
  182       -4.087984   1.000000
  183       -4.080954   1.000000
  184       -4.017035   1.000000
  185       -4.014544   1.000000
  186       -4.012066   1.000000
  187       -4.011316   1.000000
  188       -4.005716   1.000000
  189       -4.005105   1.000000
  190       -3.997191   1.000000
  191       -3.994786   1.000000
  192       -3.994329   1.000000
  193       -3.991982   1.000000
  194       -3.987883   1.000000
  195       -3.987015   1.000000
  196       -3.978237   1.000000
  197       -3.977295   1.000000
  198       -3.962598   1.000000
  199       -3.961696   1.000000
  200       -3.960530   1.000000
  201       -3.951649   1.000000
  202       -3.900780   1.000000
  203       -3.899237   1.000000
  204       -3.898518   1.000000
  205       -3.896075   1.000000
  206       -3.893854   1.000000
  207       -3.893709   1.000000
  208       -3.877439   1.000000
  209       -3.870196   1.000000
  210       -3.860571   1.000000
  211       -3.853997   1.000000
  212       -3.853332   1.000000
  213       -3.852171   1.000000
  214       -3.850951   1.000000
  215       -3.850905   1.000000
  216       -3.850420   1.000000
  217       -3.850332   1.000000
  218       -3.850090   1.000000
  219       -3.849992   1.000000
  220       -3.849582   1.000000
  221       -3.845978   1.000000
  222       -3.844693   1.000000
  223       -3.841498   1.000000
  224       -3.841047   1.000000
  225       -3.838540   1.000000
  226       -3.825239   1.000000
  227       -3.812687   1.000000
  228       -3.792002   1.000000
  229       -3.775385   1.000000
  230       -3.768596   1.000000
  231       -3.761483   1.000000
  232       -3.758246   1.000000
  233       -3.756608   1.000000
  234       -3.756435   1.000000
  235       -3.755915   1.000000
  236       -3.754901   1.000000
  237       -3.753727   1.000000
  238       -3.749259   1.000000
  239       -3.748880   1.000000
  240       -3.738915   1.000000
  241       -3.728077   1.000000
  242       -3.726221   1.000000
  243       -3.725008   1.000000
  244       -3.724918   1.000000
  245       -3.714607   1.000000
  246       -3.711118   1.000000
  247       -3.708798   1.000000
  248       -3.708187   1.000000
  249       -3.706742   1.000000
  250       -3.706488   1.000000
  251       -3.705763   1.000000
  252       -3.704502   1.000000
  253       -3.703459   1.000000
  254       -3.702570   1.000000
  255       -3.701749   1.000000
  256       -3.699182   1.000000
  257       -3.697642   1.000000
  258       -3.697142   1.000000
  259       -3.671973   1.000000
  260       -3.668240   1.000000
  261       -3.663068   1.000000
  262       -3.662633   1.000000
  263       -3.660091   1.000000
  264       -3.658939   1.000000
  265       -3.658611   1.000000
  266       -3.658255   1.000000
  267       -3.657783   1.000000
  268       -3.657387   1.000000
  269       -3.651493   1.000000
  270       -3.649720   1.000000
  271       -3.645836   1.000000
  272       -3.625182   1.000000
  273       -3.619904   1.000000
  274       -3.609893   1.000000
  275       -3.607575   1.000000
  276       -3.605550   1.000000
  277       -3.597719   1.000000
  278       -3.597327   1.000000
  279       -3.593653   1.000000
  280       -3.592138   1.000000
  281       -3.585089   1.000000
  282       -3.572061   1.000000
  283       -3.571689   1.000000
  284       -3.562608   1.000000
  285       -3.559634   1.000000
  286       -3.559242   1.000000
  287       -3.559119   1.000000
  288       -3.557079   1.000000
  289       -3.556462   1.000000
  290       -3.549266   1.000000
  291       -3.548576   1.000000
  292       -3.546310   1.000000
  293       -3.545696   1.000000
  294       -3.542955   1.000000
  295       -3.540223   1.000000
  296       -3.539935   1.000000
  297       -3.532868   1.000000
  298       -3.504627   1.000000
  299       -3.490086   1.000000
  300       -3.479874   1.000000
  301       -3.476222   1.000000
  302       -3.474250   1.000000
  303       -3.474076   1.000000
  304       -3.472693   1.000000
  305       -3.471436   1.000000
  306       -3.470231   1.000000
  307       -3.469129   1.000000
  308       -3.468600   1.000000
  309       -3.467676   1.000000
  310       -3.466111   1.000000
  311       -3.463694   1.000000
  312       -3.461181   1.000000
  313       -3.451412   1.000000
  314       -3.432701   1.000000
  315       -3.425608   1.000000
  316       -3.422963   1.000000
  317       -3.422226   1.000000
  318       -3.421030   1.000000
  319       -3.420107   1.000000
  320       -3.412595   1.000000
  321       -3.408649   1.000000
  322       -3.408171   1.000000
  323       -3.391003   1.000000
  324       -3.389205   1.000000
  325       -3.387503   1.000000
  326       -3.387321   1.000000
  327       -3.385976   1.000000
  328       -3.385226   1.000000
  329       -3.385037   1.000000
  330       -3.384591   1.000000
  331       -3.384200   1.000000
  332       -3.382502   1.000000
  333       -3.382406   1.000000
  334       -3.379441   1.000000
  335       -3.378713   1.000000
  336       -3.373711   1.000000
  337       -3.372347   1.000000
  338       -3.372239   1.000000
  339       -3.371225   1.000000
  340       -3.370802   1.000000
  341       -3.343911   1.000000
  342       -3.299678   1.000000
  343       -3.284637   1.000000
  344       -3.283284   1.000000
  345       -3.266950   1.000000
  346       -3.263277   1.000000
  347       -3.259994   1.000000
  348       -3.256786   1.000000
  349       -3.255096   1.000000
  350       -3.247955   1.000000
  351       -3.236876   1.000000
  352       -3.232308   1.000000
  353       -3.221832   1.000000
  354       -3.218356   1.000000
  355       -3.215885   1.000000
  356       -3.210778   1.000000
  357       -3.210497   1.000000
  358       -3.205053   1.000000
  359       -3.194070   1.000000
  360       -3.193779   1.000000
  361       -3.192575   1.000000
  362       -3.192510   1.000000
  363       -3.185122   1.000000
  364       -3.182956   1.000000
  365       -3.175453   1.000000
  366       -3.173655   1.000000
  367       -3.154055   1.000000
  368       -3.150568   1.000000
  369       -3.147263   1.000000
  370       -3.144613   1.000000
  371       -3.143506   1.000000
  372       -3.134533   1.000000
  373       -3.128653   1.000000
  374       -3.128363   1.000000
  375       -3.123869   1.000000
  376       -3.123265   1.000000
  377       -3.122742   1.000000
  378       -3.122187   1.000000
  379       -3.121732   1.000000
  380       -3.121651   1.000000
  381       -3.121161   1.000000
  382       -3.119320   1.000000
  383       -3.118451   1.000000
  384       -3.110158   1.000000
  385       -3.069866   1.000000
  386       -3.066751   1.000000
  387       -3.063567   1.000000
  388       -3.063456   1.000000
  389       -3.062141   1.000000
  390       -3.058547   1.000000
  391       -3.057190   1.000000
  392       -3.054395   1.000000
  393       -3.054264   1.000000
  394       -3.052141   1.000000
  395       -3.051947   1.000000
  396       -3.048328   1.000000
  397       -3.029239   1.000000
  398       -3.022157   1.000000
  399       -3.018439   1.000000
  400       -3.017654   1.000000
  401       -3.015892   1.000000
  402       -3.015213   1.000000
  403       -2.986784   1.000000
  404       -2.977690   1.000000
  405       -2.966130   1.000000
  406       -2.956134   1.000000
  407       -2.952761   1.000000
  408       -2.951651   1.000000
  409       -2.943770   1.000000
  410       -2.942596   1.000000
  411       -2.940872   1.000000
  412       -2.940818   1.000000
  413       -2.935117   1.000000
  414       -2.934363   1.000000
  415       -2.923911   1.000000
  416       -2.922085   1.000000
  417       -2.920418   1.000000
  418       -2.919512   1.000000
  419       -2.917698   1.000000
  420       -2.915148   1.000000
  421       -2.912589   1.000000
  422       -2.909520   1.000000
  423       -2.907541   1.000000
  424       -2.906677   1.000000
  425       -2.904781   1.000000
  426       -2.898584   1.000000
  427       -2.897462   1.000000
  428       -2.887718   1.000000
  429       -2.884798   1.000000
  430       -2.881103   1.000000
  431       -2.878143   1.000000
  432       -2.875527   1.000000
  433       -2.874707   1.000000
  434       -2.872231   1.000000
  435       -2.872113   1.000000
  436       -2.871365   1.000000
  437       -2.871087   1.000000
  438       -2.870764   1.000000
  439       -2.870517   1.000000
  440       -2.870249   1.000000
  441       -2.869978   1.000000
  442       -2.867180   1.000000
  443       -2.865944   1.000000
  444       -2.865701   1.000000
  445       -2.838547   1.000000
  446       -2.829558   1.000000
  447       -2.826802   1.000000
  448       -2.823547   1.000000
  449       -2.819078   1.000000
  450       -2.815499   1.000000
  451       -2.810672   1.000000
  452       -2.809852   1.000000
  453       -2.808354   1.000000
  454       -2.803424   1.000000
  455       -2.802378   1.000000
  456       -2.801415   1.000000
  457       -2.800368   1.000000
  458       -2.799344   1.000000
  459       -2.798344   1.000000
  460       -2.798106   1.000000
  461       -2.797826   1.000000
  462       -2.797697   1.000000
  463       -2.797679   1.000000
  464       -2.797362   1.000000
  465       -2.796790   1.000000
  466       -2.779095   1.000000
  467       -2.770232   1.000000
  468       -2.765335   1.000000
  469       -2.755985   1.000000
  470       -2.753012   1.000000
  471       -2.749294   1.000000
  472       -2.746480   1.000000
  473       -2.742106   1.000000
  474       -2.735520   1.000000
  475       -2.723209   1.000000
  476       -2.718006   1.000000
  477       -2.716418   1.000000
  478       -2.714963   1.000000
  479       -2.714554   1.000000
  480       -2.713798   1.000000
  481       -2.712762   1.000000
  482       -2.711091   1.000000
  483       -2.710577   1.000000
  484       -2.710030   1.000000
  485       -2.708811   1.000000
  486       -2.707635   1.000000
  487       -2.706245   1.000000
  488       -2.701038   1.000000
  489       -2.700730   1.000000
  490       -2.699767   1.000000
  491       -2.696178   1.000000
  492       -2.693225   1.000000
  493       -2.692161   1.000000
  494       -2.691311   1.000000
  495       -2.690424   1.000000
  496       -2.689753   1.000000
  497       -2.689703   1.000000
  498       -2.687874   1.000000
  499       -2.685301   1.000000
  500       -2.683674   1.000000
  501       -2.683520   1.000000
  502       -2.680318   1.000000
  503       -2.675498   1.000000
  504       -2.662421   1.000000
  505       -2.662047   1.000000
  506       -2.657566   1.000000
  507       -2.652481   1.000000
  508       -2.641062   1.000000
  509       -2.640145   1.000000
  510       -2.630625   1.000000
  511       -2.626575   1.000000
  512       -2.625866   1.000000
  513       -2.622642   1.000000
  514       -2.621876   1.000000
  515       -2.621628   1.000000
  516       -2.619153   1.000000
  517       -2.617050   1.000000
  518       -2.616884   1.000000
  519       -2.609147   1.000000
  520       -2.605200   1.000000
  521       -2.587630   1.000000
  522       -2.586177   1.000000
  523       -2.584830   1.000000
  524       -2.581837   1.000000
  525       -2.575660   1.000000
  526       -2.556614   1.000000
  527       -2.554851   1.000000
  528       -2.547670   1.000000
  529       -2.543259   1.000000
  530       -2.541012   1.000000
  531       -2.537473   1.000000
  532       -2.537466   1.000000
  533       -2.531789   1.000000
  534       -2.530667   1.000000
  535       -2.530302   1.000000
  536       -2.528530   1.000000
  537       -2.527791   1.000000
  538       -2.527724   1.000000
  539       -2.526299   1.000000
  540       -2.526159   1.000000
  541       -2.524411   1.000000
  542       -2.522174   1.000000
  543       -2.519435   1.000000
  544       -2.518262   1.000000
  545       -2.514677   1.000000
  546       -2.502980   1.000000
  547       -2.497664   1.000000
  548       -2.493753   1.000000
  549       -2.491438   1.000000
  550       -2.490628   1.000000
  551       -2.489225   1.000000
  552       -2.485377   1.000000
  553       -2.482438   1.000000
  554       -2.480746   1.000000
  555       -2.479497   1.000000
  556       -2.478973   1.000000
  557       -2.478368   1.000000
  558       -2.470373   1.000000
  559       -2.469726   1.000000
  560       -2.468734   1.000000
  561       -2.465449   1.000000
  562       -2.464279   1.000000
  563       -2.464134   1.000000
  564       -2.454716   1.000000
  565       -2.453437   1.000000
  566       -2.453317   1.000000
  567       -2.452609   1.000000
  568       -2.451868   1.000000
  569       -2.451857   1.000000
  570       -2.451210   1.000000
  571       -2.450299   1.000000
  572       -2.449236   1.000000
  573       -2.446810   1.000000
  574       -2.446183   1.000000
  575       -2.442654   1.000000
  576       -2.434043   1.000000
  577       -2.429327   1.000000
  578       -2.428073   1.000000
  579       -2.425921   1.000000
  580       -2.419555   1.000000
  581       -2.417766   1.000000
  582       -2.414620   1.000000
  583       -2.411289   1.000000
  584       -2.409320   1.000000
  585       -2.406508   1.000000
  586       -2.404970   1.000000
  587       -2.403630   1.000000
  588       -2.401273   1.000000
  589       -2.389928   1.000000
  590       -2.389263   1.000000
  591       -2.386063   1.000000
  592       -2.381562   1.000000
  593       -2.380886   1.000000
  594       -2.378387   1.000000
  595       -2.375687   1.000000
  596       -2.373203   1.000000
  597       -2.366987   1.000000
  598       -2.365070   1.000000
  599       -2.364215   1.000000
  600       -2.362666   1.000000
  601       -2.362422   1.000000
  602       -2.361578   1.000000
  603       -2.361483   1.000000
  604       -2.360441   1.000000
  605       -2.359167   1.000000
  606       -2.358449   1.000000
  607       -2.357455   1.000000
  608       -2.356694   1.000000
  609       -2.356374   1.000000
  610       -2.355534   1.000000
  611       -2.355377   1.000000
  612       -2.351272   1.000000
  613       -2.350379   1.000000
  614       -2.345170   1.000000
  615       -2.334558   1.000000
  616       -2.334058   1.000000
  617       -2.322372   1.000000
  618       -2.309062   1.000000
  619       -2.306438   1.000000
  620       -2.298251   1.000000
  621       -2.293204   1.000000
  622       -2.290080   1.000000
  623       -2.288366   1.000000
  624       -2.285681   1.000000
  625       -2.284483   1.000000
  626       -2.275076   1.000000
  627       -2.272421   1.000000
  628       -2.271613   1.000000
  629       -2.266374   1.000000
  630       -2.262546   1.000000
  631       -2.259627   1.000000
  632       -2.258795   1.000000
  633       -2.258613   1.000000
  634       -2.257947   1.000000
  635       -2.257289   1.000000
  636       -2.257172   1.000000
  637       -2.257079   1.000000
  638       -2.254941   1.000000
  639       -2.254140   1.000000
  640       -2.251763   1.000000
  641       -2.249909   1.000000
  642       -2.240832   1.000000
  643       -2.240019   1.000000
  644       -2.235722   1.000000
  645       -2.235299   1.000000
  646       -2.229218   1.000000
  647       -2.224421   1.000000
  648       -2.223592   1.000000
  649       -2.223232   1.000000
  650       -2.221983   1.000000
  651       -2.217760   1.000000
  652       -2.216893   1.000000
  653       -2.208481   1.000000
  654       -2.206601   1.000000
  655       -2.204747   1.000000
  656       -2.202305   1.000000
  657       -2.201229   1.000000
  658       -2.201057   1.000000
  659       -2.198825   1.000000
  660       -2.198705   1.000000
  661       -2.196811   1.000000
  662       -2.194991   1.000000
  663       -2.194859   1.000000
  664       -2.193212   1.000000
  665       -2.192196   1.000000
  666       -2.190559   1.000000
  667       -2.188843   1.000000
  668       -2.188817   1.000000
  669       -2.188545   1.000000
  670       -2.184589   1.000000
  671       -2.183976   1.000000
  672       -2.181759   1.000000
  673       -2.181601   1.000000
  674       -2.168627   1.000000
  675       -2.163003   1.000000
  676       -2.158304   1.000000
  677       -2.154142   1.000000
  678       -2.153232   1.000000
  679       -2.152134   1.000000
  680       -2.148042   1.000000
  681       -2.146442   1.000000
  682       -2.144609   1.000000
  683       -2.140495   1.000000
  684       -2.139336   1.000000
  685       -2.138393   1.000000
  686       -2.135212   1.000000
  687       -2.133932   1.000000
  688       -2.125085   1.000000
  689       -2.118970   1.000000
  690       -2.113825   1.000000
  691       -2.105940   1.000000
  692       -2.103384   1.000000
  693       -2.102366   1.000000
  694       -2.102012   1.000000
  695       -2.098815   1.000000
  696       -2.097090   1.000000
  697       -2.096913   1.000000
  698       -2.094861   1.000000
  699       -2.091112   1.000000
  700       -2.091108   1.000000
  701       -2.090539   1.000000
  702       -2.089939   1.000000
  703       -2.089742   1.000000
  704       -2.088207   1.000000
  705       -2.087622   1.000000
  706       -2.087147   1.000000
  707       -2.085561   1.000000
  708       -2.085046   1.000000
  709       -2.084831   1.000000
  710       -2.084616   1.000000
  711       -2.084379   1.000000
  712       -2.084088   1.000000
  713       -2.082603   1.000000
  714       -2.081665   1.000000
  715       -2.081373   1.000000
  716       -2.079225   1.000000
  717       -2.073213   1.000000
  718       -2.066505   1.000000
  719       -2.066404   1.000000
  720       -2.066128   1.000000
  721       -2.065663   1.000000
  722       -2.065503   1.000000
  723       -2.065240   1.000000
  724       -2.051468   1.000000
  725       -2.040930   1.000000
  726       -2.036394   1.000000
  727       -2.028223   1.000000
  728       -2.024508   1.000000
  729       -2.020923   1.000000
  730       -2.017879   1.000000
  731       -2.015122   1.000000
  732       -2.013511   1.000000
  733       -2.007274   1.000000
  734       -2.007065   1.000000
  735       -2.006262   1.000000
  736       -2.005865   1.000000
  737       -2.005281   1.000000
  738       -2.004844   1.000000
  739       -2.004497   1.000000
  740       -2.003046   1.000000
  741       -1.997572   1.000000
  742       -1.985852   1.000000
  743       -1.983464   1.000000
  744       -1.980605   1.000000
  745       -1.978053   1.000000
  746       -1.971404   1.000000
  747       -1.971116   1.000000
  748       -1.970047   1.000000
  749       -1.969459   1.000000
  750       -1.967459   1.000000
  751       -1.966372   1.000000
  752       -1.964590   1.000000
  753       -1.962281   1.000000
  754       -1.957724   1.000000
  755       -1.953044   1.000000
  756       -1.950954   1.000000
  757       -1.941408   1.000000
  758       -1.939479   1.000000
  759       -1.932879   1.000000
  760       -1.931629   1.000000
  761       -1.924898   1.000000
  762       -1.918119   1.000000
  763       -1.917885   1.000000
  764       -1.911767   1.000000
  765       -1.911046   1.000000
  766       -1.909262   1.000000
  767       -1.908374   1.000000
  768       -1.908252   1.000000
  769       -1.907592   1.000000
  770       -1.907428   1.000000
  771       -1.905885   1.000000
  772       -1.905639   1.000000
  773       -1.904647   1.000000
  774       -1.904549   1.000000
  775       -1.904009   1.000000
  776       -1.902812   1.000000
  777       -1.899821   1.000000
  778       -1.894792   1.000000
  779       -1.891205   1.000000
  780       -1.885896   1.000000
  781       -1.884605   1.000000
  782       -1.876446   1.000000
  783       -1.874440   1.000000
  784       -1.873162   1.000000
  785       -1.871560   1.000000
  786       -1.868486   1.000000
  787       -1.867597   1.000000
  788       -1.866042   1.000000
  789       -1.865815   1.000000
  790       -1.863752   1.000000
  791       -1.860874   1.000000
  792       -1.857289   1.000000
  793       -1.852383   1.000000
  794       -1.852059   1.000000
  795       -1.843256   1.000000
  796       -1.840867   1.000000
  797       -1.835498   1.000000
  798       -1.833447   1.000000
  799       -1.832549   1.000000
  800       -1.831578   1.000000
  801       -1.825850   1.000000
  802       -1.825128   1.000000
  803       -1.823089   1.000000
  804       -1.821708   1.000000
  805       -1.819777   1.000000
  806       -1.813072   1.000000
  807       -1.808399   1.000000
  808       -1.806549   1.000000
  809       -1.803090   1.000000
  810       -1.794683   1.000000
  811       -1.794139   1.000000
  812       -1.789513   1.000000
  813       -1.786730   1.000000
  814       -1.785434   1.000000
  815       -1.783594   1.000000
  816       -1.780372   1.000000
  817       -1.773193   1.000000
  818       -1.772952   1.000000
  819       -1.771783   1.000000
  820       -1.766528   1.000000
  821       -1.763577   1.000000
  822       -1.762331   1.000000
  823       -1.759715   1.000000
  824       -1.757585   1.000000
  825       -1.756623   1.000000
  826       -1.755817   1.000000
  827       -1.749793   1.000000
  828       -1.748983   1.000000
  829       -1.745409   1.000000
  830       -1.744704   1.000000
  831       -1.744444   1.000000
  832       -1.741639   1.000000
  833       -1.740881   1.000000
  834       -1.739773   1.000000
  835       -1.738508   1.000000
  836       -1.738278   1.000000
  837       -1.736986   1.000000
  838       -1.736787   1.000000
  839       -1.735838   1.000000
  840       -1.734522   1.000000
  841       -1.732517   1.000000
  842       -1.731370   1.000000
  843       -1.730550   1.000000
  844       -1.730165   1.000000
  845       -1.727465   1.000000
  846       -1.726845   1.000000
  847       -1.724791   1.000000
  848       -1.717466   1.000000
  849       -1.717052   1.000000
  850       -1.715087   1.000000
  851       -1.710947   1.000000
  852       -1.710087   1.000000
  853       -1.708526   1.000000
  854       -1.702941   1.000000
  855       -1.699240   1.000000
  856       -1.695866   1.000000
  857       -1.694212   1.000000
  858       -1.691253   1.000000
  859       -1.686692   1.000000
  860       -1.682710   1.000000
  861       -1.677391   1.000000
  862       -1.674257   1.000000
  863       -1.666342   1.000000
  864       -1.663979   1.000000
  865       -1.659947   1.000000
  866       -1.658135   1.000000
  867       -1.656535   1.000000
  868       -1.655201   1.000000
  869       -1.652365   1.000000
  870       -1.648952   1.000000
  871       -1.638592   1.000000
  872       -1.621321   1.000000
  873       -1.619725   1.000000
  874       -1.619501   1.000000
  875       -1.618422   1.000000
  876       -1.618004   1.000000
  877       -1.615425   1.000000
  878       -1.614511   1.000000
  879       -1.611409   1.000000
  880       -1.609053   1.000000
  881       -1.608237   1.000000
  882       -1.605741   1.000000
  883       -1.605028   1.000000
  884       -1.593538   1.000000
  885       -1.593448   1.000000
  886       -1.591078   1.000000
  887       -1.579244   1.000000
  888       -1.578535   1.000000
  889       -1.571039   1.000000
  890       -1.568127   1.000000
  891       -1.562802   1.000000
  892       -1.560673   1.000000
  893       -1.559259   1.000000
  894       -1.546889   1.000000
  895       -1.535159   1.000000
  896       -1.518329   1.000000
  897       -1.515738   1.000000
  898       -1.496673   1.000000
  899       -1.492115   1.000000
  900       -1.491434   1.000000
  901       -1.489203   1.000000