  10  10   0   0
  0.3048625E+03  0.1450000E-08  0.1450000E-08  0.1450000E-08  0.1000000E-15
  1.000000000000000E-004
  CAR 
 NiAl                                    
      1.17523243    -29.45176147  301     -9.53145419      1.00000000
    -29.452  0.0000E+00  0.0000E+00
    -29.350  0.0000E+00  0.0000E+00
    -29.248  0.0000E+00  0.0000E+00
    -29.145  0.0000E+00  0.0000E+00
    -29.043  0.0000E+00  0.0000E+00
    -28.941  0.0000E+00  0.0000E+00
    -28.839  0.0000E+00  0.0000E+00
    -28.737  0.0000E+00  0.0000E+00
    -28.635  0.0000E+00  0.0000E+00
    -28.533  0.0000E+00  0.0000E+00
    -28.431  0.0000E+00  0.0000E+00
    -28.329  0.5285E-15  0.5396E-16
    -28.227  0.4701E-07  0.4799E-08
    -28.125  0.1723E-02  0.1760E-03
    -28.023  0.9682E-01  0.1006E-01
    -27.920  0.8084E-01  0.1831E-01
    -27.818  0.1648E-01  0.2000E-01
    -27.716  0.3812E-04  0.2000E-01
    -27.614  0.4215E-10  0.2000E-01
    -27.512  0.0000E+00  0.2000E-01
    -27.410  0.0000E+00  0.2000E-01
    -27.308  0.0000E+00  0.2000E-01
    -27.206  0.0000E+00  0.2000E-01
    -27.104  0.0000E+00  0.2000E-01
    -27.002  0.0000E+00  0.2000E-01
    -26.900  0.0000E+00  0.2000E-01
    -26.797  0.0000E+00  0.2000E-01
    -26.695  0.0000E+00  0.2000E-01
    -26.593  0.0000E+00  0.2000E-01
    -26.491  0.0000E+00  0.2000E-01
    -26.389  0.0000E+00  0.2000E-01
    -26.287  0.0000E+00  0.2000E-01
    -26.185  0.0000E+00  0.2000E-01
    -26.083  0.0000E+00  0.2000E-01
    -25.981  0.0000E+00  0.2000E-01
    -25.879  0.0000E+00  0.2000E-01
    -25.777  0.0000E+00  0.2000E-01
    -25.674  0.0000E+00  0.2000E-01
    -25.572  0.0000E+00  0.2000E-01
    -25.470  0.0000E+00  0.2000E-01
    -25.368  0.0000E+00  0.2000E-01
    -25.266  0.0000E+00  0.2000E-01
    -25.164  0.0000E+00  0.2000E-01
    -25.062  0.0000E+00  0.2000E-01
    -24.960  0.0000E+00  0.2000E-01
    -24.858  0.0000E+00  0.2000E-01
    -24.756  0.0000E+00  0.2000E-01
    -24.654  0.0000E+00  0.2000E-01
    -24.551  0.0000E+00  0.2000E-01
    -24.449  0.0000E+00  0.2000E-01
    -24.347  0.0000E+00  0.2000E-01
    -24.245  0.0000E+00  0.2000E-01
    -24.143  0.0000E+00  0.2000E-01
    -24.041  0.0000E+00  0.2000E-01
    -23.939  0.0000E+00  0.2000E-01
    -23.837  0.0000E+00  0.2000E-01
    -23.735  0.0000E+00  0.2000E-01
    -23.633  0.0000E+00  0.2000E-01
    -23.531  0.0000E+00  0.2000E-01
    -23.428  0.0000E+00  0.2000E-01
    -23.326  0.0000E+00  0.2000E-01
    -23.224  0.0000E+00  0.2000E-01
    -23.122  0.0000E+00  0.2000E-01
    -23.020  0.0000E+00  0.2000E-01
    -22.918  0.0000E+00  0.2000E-01
    -22.816  0.0000E+00  0.2000E-01
    -22.714  0.0000E+00  0.2000E-01
    -22.612  0.0000E+00  0.2000E-01
    -22.510  0.0000E+00  0.2000E-01
    -22.408  0.0000E+00  0.2000E-01
    -22.305  0.0000E+00  0.2000E-01
    -22.203  0.0000E+00  0.2000E-01
    -22.101  0.0000E+00  0.2000E-01
    -21.999  0.0000E+00  0.2000E-01
    -21.897  0.0000E+00  0.2000E-01
    -21.795  0.0000E+00  0.2000E-01
    -21.693  0.0000E+00  0.2000E-01
    -21.591  0.0000E+00  0.2000E-01
    -21.489  0.0000E+00  0.2000E-01
    -21.387  0.0000E+00  0.2000E-01
    -21.285  0.0000E+00  0.2000E-01
    -21.182  0.0000E+00  0.2000E-01
    -21.080  0.0000E+00  0.2000E-01
    -20.978  0.0000E+00  0.2000E-01
    -20.876  0.0000E+00  0.2000E-01
    -20.774  0.0000E+00  0.2000E-01
    -20.672  0.0000E+00  0.2000E-01
    -20.570  0.0000E+00  0.2000E-01
    -20.468  0.0000E+00  0.2000E-01
    -20.366  0.0000E+00  0.2000E-01
    -20.264  0.0000E+00  0.2000E-01
    -20.162  0.0000E+00  0.2000E-01
    -20.059  0.0000E+00  0.2000E-01
    -19.957  0.0000E+00  0.2000E-01
    -19.855  0.0000E+00  0.2000E-01
    -19.753  0.0000E+00  0.2000E-01
    -19.651  0.0000E+00  0.2000E-01
    -19.549  0.0000E+00  0.2000E-01
    -19.447  0.0000E+00  0.2000E-01
    -19.345  0.0000E+00  0.2000E-01
    -19.243  0.0000E+00  0.2000E-01
    -19.141  0.0000E+00  0.2000E-01
    -19.039  0.0000E+00  0.2000E-01
    -18.936  0.0000E+00  0.2000E-01
    -18.834  0.0000E+00  0.2000E-01
    -18.732  0.0000E+00  0.2000E-01
    -18.630  0.0000E+00  0.2000E-01
    -18.528  0.0000E+00  0.2000E-01
    -18.426  0.0000E+00  0.2000E-01
    -18.324  0.0000E+00  0.2000E-01
    -18.222  0.0000E+00  0.2000E-01
    -18.120  0.0000E+00  0.2000E-01
    -18.018  0.0000E+00  0.2000E-01
    -17.916  0.0000E+00  0.2000E-01
    -17.814  0.0000E+00  0.2000E-01
    -17.711  0.0000E+00  0.2000E-01
    -17.609  0.0000E+00  0.2000E-01
    -17.507  0.0000E+00  0.2000E-01
    -17.405  0.0000E+00  0.2000E-01
    -17.303  0.0000E+00  0.2000E-01
    -17.201  0.0000E+00  0.2000E-01
    -17.099  0.0000E+00  0.2000E-01
    -16.997  0.0000E+00  0.2000E-01
    -16.895  0.0000E+00  0.2000E-01
    -16.793  0.0000E+00  0.2000E-01
    -16.691  0.0000E+00  0.2000E-01
    -16.588  0.0000E+00  0.2000E-01
    -16.486  0.0000E+00  0.2000E-01
    -16.384  0.0000E+00  0.2000E-01
    -16.282  0.0000E+00  0.2000E-01
    -16.180  0.0000E+00  0.2000E-01
    -16.078  0.0000E+00  0.2000E-01
    -15.976  0.0000E+00  0.2000E-01
    -15.874  0.0000E+00  0.2000E-01
    -15.772  0.0000E+00  0.2000E-01
    -15.670  0.0000E+00  0.2000E-01
    -15.568  0.0000E+00  0.2000E-01
    -15.465  0.0000E+00  0.2000E-01
    -15.363  0.0000E+00  0.2000E-01
    -15.261  0.0000E+00  0.2000E-01
    -15.159  0.0000E+00  0.2000E-01
    -15.057  0.0000E+00  0.2000E-01
    -14.955  0.0000E+00  0.2000E-01
    -14.853  0.0000E+00  0.2000E-01
    -14.751  0.0000E+00  0.2000E-01
    -14.649  0.0000E+00  0.2000E-01
    -14.547  0.0000E+00  0.2000E-01
    -14.445  0.0000E+00  0.2000E-01
    -14.342  0.0000E+00  0.2000E-01
    -14.240  0.0000E+00  0.2000E-01
    -14.138  0.0000E+00  0.2000E-01
    -14.036  0.0000E+00  0.2000E-01
    -13.934  0.0000E+00  0.2000E-01
    -13.832  0.9743E-12  0.2000E-01
    -13.730  0.5028E-05  0.2000E-01
    -13.628  0.1361E-01  0.2139E-01
    -13.526  0.1233E+00  0.3398E-01
    -13.424  0.5052E-01  0.3913E-01
    -13.322  0.8483E-02  0.4000E-01
    -13.219  0.4710E-05  0.4000E-01
    -13.117  0.1055E-11  0.4000E-01
    -13.015  0.0000E+00  0.4000E-01
    -12.913  0.0000E+00  0.4000E-01
    -12.811  0.0000E+00  0.4000E-01
    -12.709  0.0000E+00  0.4000E-01
    -12.607  0.0000E+00  0.4000E-01
    -12.505  0.0000E+00  0.4000E-01
    -12.403  0.0000E+00  0.4000E-01
    -12.301  0.0000E+00  0.4000E-01
    -12.199  0.0000E+00  0.4000E-01
    -12.096  0.0000E+00  0.4000E-01
    -11.994  0.0000E+00  0.4000E-01
    -11.892  0.0000E+00  0.4000E-01
    -11.790  0.0000E+00  0.4000E-01
    -11.688  0.5530E-11  0.4000E-01
    -11.586  0.1224E-04  0.4000E-01
    -11.484  0.1167E-01  0.4119E-01
    -11.382  0.4735E-01  0.4603E-01
    -11.280  0.1086E+00  0.5712E-01
    -11.178  0.1492E+00  0.7234E-01
    -11.076  0.7420E-01  0.7992E-01
    -10.973  0.7946E-03  0.8000E-01
    -10.871  0.6984E-08  0.8000E-01
    -10.769  0.2175E-16  0.8000E-01
    -10.667  0.0000E+00  0.8000E-01
    -10.565  0.0000E+00  0.8000E-01
    -10.463  0.0000E+00  0.8000E-01
    -10.361  0.0000E+00  0.8000E-01
    -10.259  0.7878E-14  0.8000E-01
    -10.157  0.2464E-06  0.8000E-01
    -10.055  0.2725E-02  0.8028E-01
     -9.953  0.4340E-01  0.8471E-01
     -9.850  0.8897E-01  0.9379E-01
     -9.748  0.5142E-01  0.9904E-01
     -9.646  0.9391E-02  0.1000E+00
     -9.544  0.6261E-05  0.1000E+00
     -9.442  0.1722E-11  0.1000E+00
     -9.340  0.0000E+00  0.1000E+00
     -9.238  0.0000E+00  0.1000E+00
     -9.136  0.0000E+00  0.1000E+00
     -9.034  0.0000E+00  0.1000E+00
     -8.932  0.0000E+00  0.1000E+00
     -8.830  0.0000E+00  0.1000E+00
     -8.727  0.0000E+00  0.1000E+00
     -8.625  0.0000E+00  0.1000E+00
     -8.523  0.0000E+00  0.1000E+00
     -8.421  0.0000E+00  0.1000E+00
     -8.319  0.0000E+00  0.1000E+00
     -8.217  0.0000E+00  0.1000E+00
     -8.115  0.0000E+00  0.1000E+00
     -8.013  0.0000E+00  0.1000E+00
     -7.911  0.0000E+00  0.1000E+00
     -7.809  0.0000E+00  0.1000E+00
     -7.707  0.0000E+00  0.1000E+00
     -7.605  0.0000E+00  0.1000E+00
     -7.502  0.0000E+00  0.1000E+00
     -7.400  0.0000E+00  0.1000E+00
     -7.298  0.0000E+00  0.1000E+00
     -7.196  0.0000E+00  0.1000E+00
     -7.094  0.0000E+00  0.1000E+00
     -6.992  0.0000E+00  0.1000E+00
     -6.890  0.0000E+00  0.1000E+00
     -6.788  0.0000E+00  0.1000E+00
     -6.686  0.0000E+00  0.1000E+00
     -6.584  0.0000E+00  0.1000E+00
     -6.482  0.0000E+00  0.1000E+00
     -6.379  0.0000E+00  0.1000E+00
     -6.277  0.0000E+00  0.1000E+00
     -6.175  0.0000E+00  0.1000E+00
     -6.073  0.0000E+00  0.1000E+00
     -5.971  0.0000E+00  0.1000E+00
     -5.869  0.0000E+00  0.1000E+00
     -5.767  0.0000E+00  0.1000E+00
     -5.665  0.0000E+00  0.1000E+00
     -5.563  0.0000E+00  0.1000E+00
     -5.461  0.0000E+00  0.1000E+00
     -5.359  0.0000E+00  0.1000E+00
     -5.256  0.0000E+00  0.1000E+00
     -5.154  0.0000E+00  0.1000E+00
     -5.052  0.0000E+00  0.1000E+00
     -4.950  0.0000E+00  0.1000E+00
     -4.848  0.0000E+00  0.1000E+00
     -4.746  0.0000E+00  0.1000E+00
     -4.644  0.0000E+00  0.1000E+00
     -4.542  0.0000E+00  0.1000E+00
     -4.440  0.0000E+00  0.1000E+00
     -4.338  0.0000E+00  0.1000E+00
     -4.236  0.0000E+00  0.1000E+00
     -4.133  0.0000E+00  0.1000E+00
     -4.031  0.0000E+00  0.1000E+00
     -3.929  0.0000E+00  0.1000E+00
     -3.827  0.0000E+00  0.1000E+00
     -3.725  0.0000E+00  0.1000E+00
     -3.623  0.0000E+00  0.1000E+00
     -3.521  0.0000E+00  0.1000E+00
     -3.419  0.0000E+00  0.1000E+00
     -3.317  0.0000E+00  0.1000E+00
     -3.215  0.0000E+00  0.1000E+00
     -3.113  0.0000E+00  0.1000E+00
     -3.010  0.0000E+00  0.1000E+00
     -2.908  0.0000E+00  0.1000E+00
     -2.806  0.0000E+00  0.1000E+00
     -2.704  0.0000E+00  0.1000E+00
     -2.602  0.0000E+00  0.1000E+00
     -2.500  0.0000E+00  0.1000E+00
     -2.398  0.2001E-15  0.1000E+00
     -2.296  0.2449E-07  0.1000E+00
     -2.194  0.1084E-02  0.1001E+00
     -2.092  0.6541E-01  0.1068E+00
     -1.990  0.9873E-01  0.1169E+00
     -1.887  0.1251E+00  0.1296E+00
     -1.785  0.8022E-01  0.1378E+00
     -1.683  0.2122E-01  0.1400E+00
     -1.581  0.9248E-04  0.1400E+00
     -1.479  0.2174E-09  0.1400E+00
     -1.377  0.0000E+00  0.1400E+00
     -1.275  0.0000E+00  0.1400E+00
     -1.173  0.0000E+00  0.1400E+00
     -1.071  0.0000E+00  0.1400E+00
     -0.969  0.0000E+00  0.1400E+00
     -0.867  0.0000E+00  0.1400E+00
     -0.764  0.0000E+00  0.1400E+00
     -0.662  0.0000E+00  0.1400E+00
     -0.560  0.0000E+00  0.1400E+00
     -0.458  0.1721E-12  0.1400E+00
     -0.356  0.1613E-05  0.1400E+00
     -0.254  0.5752E-02  0.1406E+00
     -0.152  0.3213E-01  0.1439E+00
     -0.050  0.1296E-02  0.1440E+00
      0.052  0.4507E-07  0.1440E+00
      0.154  0.5263E-15  0.1440E+00
      0.256  0.0000E+00  0.1440E+00
      0.359  0.0000E+00  0.1440E+00
      0.461  0.0000E+00  0.1440E+00
      0.563  0.0000E+00  0.1440E+00
      0.665  0.0000E+00  0.1440E+00
      0.767  0.0000E+00  0.1440E+00
      0.869  0.0000E+00  0.1440E+00
      0.971  0.0000E+00  0.1440E+00
      1.073  0.0000E+00  0.1440E+00
      1.175  0.0000E+00  0.1440E+00
