   10   10  500    1
  0.3048625E+03  0.1450000E-08  0.1450000E-08  0.1450000E-08  0.1000000E-15
  1.000000000000000E-004
  CAR 
 NiAl                                    
     50      1     36
 
  0.0000000E+00  0.0000000E+00  0.0000000E+00  0.1000000E+01
    1      -28.059625   1.000000
    2      -28.036128   1.000000
    3      -28.029898   1.000000
    4      -28.015853   1.000000
    5      -27.927866   1.000000
    6      -13.599466   1.000000
    7      -13.582432   1.000000
    8      -13.558927   1.000000
    9      -13.546643   1.000000
   10      -13.451379   1.000000
   11      -11.465076   1.000000
   12      -11.375858   1.000000
   13      -11.331562   1.000000
   14      -11.289002   1.000000
   15      -11.272869   1.000000
   16      -11.250589   1.000000
   17      -11.238063   1.000000
   18      -11.183064   1.000000
   19      -11.161539   1.000000
   20      -11.155847   1.000000
   21      -10.002347   1.000000
   22       -9.921440   1.000000
   23       -9.898982   1.000000
   24       -9.854088   1.000000
   25       -9.773544   1.000000
   26       -2.124381   0.000000
   27       -2.093169   0.000000
   28       -2.078030   0.000000
   29       -2.003954   0.000000
   30       -1.975160   0.000000
   31       -1.960006   0.000000
   32       -1.918667   0.000000
   33       -1.876594   0.000000
   34       -1.862936   0.000000
   35       -1.783184   0.000000
   36       -0.216904   0.000000
