NiAl                                    
           1
    14.500000    0.000000    0.000000
     0.000000   14.500000    0.000000
     0.000000    0.000000   14.500000
   N 
  10
Direct configuration=     1
   0.00000000  0.00000000  0.00000000
   0.07586207  0.00000000  0.00000000
   0.03448276  0.96551724  0.13793103
   0.03448276  0.03448276  0.13793103
   0.13793103  0.13103448  0.00000000
   0.13793103  0.20000000  0.00000000
   0.13793103  0.34482759  0.00000000
   0.13793103  0.34482759  0.06896552
   0.13793103  0.20689655  0.34482759
   0.20689655  0.20689655  0.34482759
Direct configuration=     2
  -0.00290979  0.00008011 -0.00260561
   0.07802400 -0.00175865 -0.00248282
   0.03442058  0.94668850  0.14050729
   0.03437567  0.05329175  0.14049650
   0.13892557  0.11361385  0.00005474
   0.13782931  0.21633997 -0.00058044
   0.13794581  0.34666425 -0.01831810
   0.13795014  0.34581094  0.08778409
   0.11925618  0.20687478  0.34481648
   0.22556184  0.20687725  0.34481062
Direct configuration=     3
  -0.00194811  0.00005363 -0.00174446
   0.07730948 -0.00117742 -0.00166225
   0.03444113  0.95291137  0.13965584
   0.03441106  0.04707541  0.13964862
   0.13859688  0.11937134  0.00003665
   0.13786293  0.21093963 -0.00038861
   0.13794093  0.34605724 -0.01226400
   0.13794383  0.34548594  0.08156458
   0.12542819  0.20688198  0.34482015
   0.21939299  0.20688363  0.34481623
Direct configuration=     4
  -0.00130616  0.00003596 -0.00116962
   0.07683252 -0.00078943 -0.00111450
   0.03445485  0.95706532  0.13908747
   0.03443469  0.04292582  0.13908263
   0.13837747  0.12321464  0.00002457
   0.13788537  0.20733475 -0.00026055
   0.13793767  0.34565204 -0.00822271
   0.13793961  0.34526900  0.07741288
   0.12954819  0.20688678  0.34482260
   0.21527511  0.20688789  0.34481997
Direct configuration=     5
  -0.00065308  0.00001798 -0.00058481
   0.07634730 -0.00039471 -0.00055725
   0.03446880  0.96129128  0.13850925
   0.03445872  0.03870429  0.13850683
   0.13815425  0.12712456  0.00001229
   0.13790820  0.20366738 -0.00013028
   0.13793435  0.34523981 -0.00411135
   0.13793532  0.34504829  0.07318920
   0.13373961  0.20689167  0.34482509
   0.21108583  0.20689222  0.34482378
Direct configuration=     6
  -0.00067870  0.00001868 -0.00060775
   0.07636633 -0.00041020 -0.00057911
   0.03446826  0.96112550  0.13853194
   0.03445778  0.03886989  0.13852942
   0.13816301  0.12697118  0.00001277
   0.13790731  0.20381124 -0.00013539
   0.13793448  0.34525598 -0.00427263
   0.13793549  0.34505695  0.07335488
   0.13357519  0.20689147  0.34482500
   0.21125017  0.20689205  0.34482363
Direct configuration=     7
  -0.00066944  0.00001843 -0.00059945
   0.07635945 -0.00040460 -0.00057121
   0.03446845  0.96118544  0.13852374
   0.03445812  0.03881002  0.13852125
   0.13815984  0.12702663  0.00001259
   0.13790763  0.20375923 -0.00013354
   0.13793443  0.34525014 -0.00421433
   0.13793543  0.34505382  0.07329498
   0.13363463  0.20689154  0.34482503
   0.21119075  0.20689211  0.34482368
Direct configuration=     8
  -0.00182193  0.00010134 -0.00260316
   0.07678616 -0.00203849 -0.00252468
   0.03443042  0.96092148  0.14051588
   0.03435639  0.03905615  0.14051931
   0.13912511  0.12707319  0.00010460
   0.13778945  0.20267167 -0.00077712
   0.13794796  0.34686748 -0.00408783
   0.13795038  0.34606848  0.07371092
   0.13358743  0.20687895  0.34481407
   0.21122794  0.20688253  0.34481079
Direct configuration=     9
  -0.00461971  0.00030261 -0.00746738
   0.07782204 -0.00600494 -0.00726695
   0.03433808  0.96028068  0.14535201
   0.03410942  0.03965365  0.14536979
   0.14146841  0.12718620  0.00032796
   0.13750255  0.20003150 -0.00233950
   0.13798081  0.35079376 -0.00378076
   0.13798667  0.34853167  0.07472064
   0.13347285  0.20684837  0.34478745
   0.21131820  0.20685926  0.34477948
Direct configuration=    10
  -0.00468843  0.00030415 -0.00807269
   0.07765900 -0.00649426 -0.00786399
   0.03432540  0.96032415  0.14595574
   0.03407931  0.03960576  0.14597284
   0.14179616  0.12685251  0.00037727
   0.13744185  0.20004608 -0.00255687
   0.13798594  0.35129566 -0.00365984
   0.13799196  0.34884866  0.07477078
   0.13348965  0.20684408  0.34478404
   0.21129847  0.20685596  0.34477548
Direct configuration=    11
  -0.00489457  0.00030876 -0.00988862
   0.07716987 -0.00796223 -0.00965514
   0.03428735  0.96045456  0.14776691
   0.03398895  0.03946210  0.14778200
   0.14277939  0.12585143  0.00052518
   0.13725976  0.20008983 -0.00320896
   0.13800136  0.35280138 -0.00329711
   0.13800785  0.34979964  0.07492120
   0.13354005  0.20683122  0.34477381
   0.21123929  0.20684606  0.34476349
Direct configuration=    12
  -0.00530686  0.00031798 -0.01352047
   0.07619163 -0.01089816 -0.01323744
   0.03421126  0.96071538  0.15138927
   0.03380825  0.03917479  0.15140031
   0.14474586  0.12384928  0.00082101
   0.13689558  0.20017732 -0.00451316
   0.13803218  0.35581280 -0.00257165
   0.13803964  0.35170160  0.07522203
   0.13364084  0.20680549  0.34475336
   0.21112093  0.20682626  0.34473950
Direct configuration=    13
  -0.00613142  0.00033643 -0.02078419
   0.07423513 -0.01677003 -0.02040203
   0.03405907  0.96123702  0.15863398
   0.03344684  0.03860015  0.15863693
   0.14867880  0.11984498  0.00141267
   0.13616723  0.20035232 -0.00712155
   0.13809382  0.36183566 -0.00112072
   0.13810320  0.35550553  0.07582369
   0.13384244  0.20675404  0.34471247
   0.21088420  0.20678666  0.34469152
Direct configuration=    14
  -0.00518466  0.00005174 -0.02330556
   0.07222734 -0.01864824 -0.02293505
   0.03399924  0.96140587  0.16116058
   0.03331927  0.03841512  0.16115231
   0.14996718  0.11987638  0.00153701
   0.13608369  0.19893898 -0.00796567
   0.13812318  0.36405363 -0.00065125
   0.13813131  0.35688912  0.07612220
   0.13377489  0.20673108  0.34469598
   0.21093787  0.20676908  0.34467221
Direct configuration=    15
  -0.00339894 -0.00048522 -0.02806122
   0.06844038 -0.02219082 -0.02771269
   0.03388638  0.96172435  0.16592610
   0.03307866  0.03806612  0.16589668
   0.15239725  0.11993562  0.00177155
   0.13592613  0.19627323 -0.00955779
   0.13817855  0.36823702  0.00023424
   0.13818432  0.35949876  0.07668522
   0.13364749  0.20668778  0.34466489
   0.21103909  0.20673592  0.34463578
Direct configuration=    16
  -0.00409206 -0.00030667 -0.02980223
   0.06831004 -0.02396632 -0.02948169
   0.03384093  0.96128736  0.16766571
   0.03298245  0.03849449  0.16762387
   0.15325619  0.12076415  0.00181141
   0.13599227  0.19447184 -0.01009980
   0.13820655  0.36988230  0.00036908
   0.13820946  0.36047243  0.07712419
   0.13359402  0.20666504  0.34465200
   0.21107947  0.20671815  0.34462020
Direct configuration=    17
  -0.00435617 -0.00023864 -0.03046563
   0.06826037 -0.02464286 -0.03015575
   0.03382361  0.96112084  0.16832858
   0.03294579  0.03865771  0.16828201
   0.15358348  0.12107985  0.00182660
   0.13601747  0.19378544 -0.01030633
   0.13821721  0.37050922  0.00042046
   0.13821905  0.36084344  0.07729146
   0.13357364  0.20665637  0.34464709
   0.21109485  0.20671138  0.34461427
Direct configuration=    18
  -0.00504149 -0.00006093 -0.03113654
   0.06854420 -0.02553448 -0.03086235
   0.03379393  0.96105341  0.16900249
   0.03290796  0.03872457  0.16894587
   0.15424471  0.12057910  0.00204544
   0.13579978  0.19389922 -0.01072509
   0.13823565  0.37121679  0.00055856
   0.13823459  0.36126478  0.07740943
   0.13361431  0.20664118  0.34463983
   0.21104568  0.20669912  0.34460511
Direct configuration=    19
  -0.00532367  0.00001224 -0.03141278
   0.06866107 -0.02590159 -0.03115329
   0.03378171  0.96102564  0.16927997
   0.03289238  0.03875209  0.16921921
   0.15451697  0.12037292  0.00213555
   0.13571015  0.19394607 -0.01089751
   0.13824324  0.37150813  0.00061543
   0.13824099  0.36143826  0.07745800
   0.13363105  0.20663493  0.34463684
   0.21102543  0.20669408  0.34460133
Direct configuration=    20
  -0.00517994 -0.00010757 -0.03181205
   0.06819654 -0.02630532 -0.03160342
   0.03375130  0.96118877  0.16968958
   0.03286968  0.03859206  0.16961746
   0.15504207  0.12005949  0.00233193
   0.13553306  0.19401202 -0.01122338
   0.13826227  0.37200306  0.00079297
   0.13825616  0.36173837  0.07746740
   0.13364261  0.20661996  0.34462998
   0.21100554  0.20668192  0.34459229
Direct configuration=    21
  -0.00504136 -0.00022308 -0.03219698
   0.06774869 -0.02669456 -0.03203739
   0.03372198  0.96134604  0.17008449
   0.03284780  0.03843777  0.17000140
   0.15554832  0.11975732  0.00252125
   0.13536234  0.19407559 -0.01153756
   0.13828061  0.37248023  0.00096414
   0.13827080  0.36202770  0.07747646
   0.13365376  0.20660554  0.34462337
   0.21098637  0.20667021  0.34458358
Direct configuration=    22
  -0.00492413 -0.00034571 -0.03255747
   0.06729218 -0.02710150 -0.03245898
   0.03368983  0.96135172  0.17045980
   0.03282423  0.03843737  0.17036171
   0.15597224  0.11993832  0.00264870
   0.13530210  0.19365735 -0.01178980
   0.13830323  0.37298768  0.00106502
   0.13828867  0.36231270  0.07756505
   0.13363058  0.20658849  0.34461564
   0.21100039  0.20665633  0.34457309
Direct configuration=    23
  -0.00466850 -0.00061311 -0.03334355
   0.06629670 -0.02798888 -0.03337833
   0.03361972  0.96136408  0.17127823
   0.03277282  0.03843652  0.17114740
   0.15689663  0.12033303  0.00292659
   0.13517074  0.19274532 -0.01233985
   0.13835256  0.37409424  0.00128501
   0.13832764  0.36293416  0.07775822
   0.13358005  0.20655130  0.34459880
   0.21103095  0.20662608  0.34455024
Direct configuration=    24
  -0.00485502 -0.00061018 -0.03363392
   0.06619092 -0.02843937 -0.03372333
   0.03359205  0.96130633  0.17158295
   0.03275274  0.03849992  0.17143811
   0.15727294  0.12045672  0.00304819
   0.13510528  0.19242512 -0.01256573
   0.13837306  0.37452404  0.00135304
   0.13834405  0.36317041  0.07785051
   0.13357101  0.20653614  0.34459205
   0.21103229  0.20661363  0.34454089
Direct configuration=    25
  -0.00541460 -0.00060140 -0.03450501
   0.06587357 -0.02979084 -0.03475834
   0.03350904  0.96113307  0.17249709
   0.03269249  0.03869011  0.17231022
   0.15840187  0.12082778  0.00341297
   0.13490890  0.19146450 -0.01324336
   0.13843456  0.37581345  0.00155715
   0.13839329  0.36387914  0.07812739
   0.13354389  0.20649065  0.34457181
   0.21103629  0.20657629  0.34451283
Direct configuration=    26
  -0.00653376 -0.00058384 -0.03624720
   0.06523888 -0.03249378 -0.03682835
   0.03334302  0.96078657  0.17432538
   0.03257200  0.03907049  0.17405446
   0.16065972  0.12156990  0.00414254
   0.13451613  0.18954327 -0.01459862
   0.13855756  0.37839227  0.00196536
   0.13849178  0.36529660  0.07868114
   0.13348967  0.20639968  0.34453132
   0.21104430  0.20650161  0.34445673
Direct configuration=    27
  -0.00588912 -0.00059395 -0.03524369
   0.06560446 -0.03093688 -0.03563602
   0.03343864  0.96098616  0.17327228
   0.03264141  0.03885139  0.17304977
   0.15935919  0.12114244  0.00372230
   0.13474237  0.19064990 -0.01381799
   0.13848671  0.37690686  0.00173023
   0.13843505  0.36448014  0.07836218
   0.13352090  0.20645208  0.34455464
   0.21103969  0.20654462  0.34448905
Direct configuration=    28
  -0.00609487 -0.00061447 -0.03563411
   0.06540299 -0.03153182 -0.03610264
   0.03339873  0.96099323  0.17368347
   0.03261517  0.03885296  0.17344062
   0.15997668  0.12104862  0.00396213
   0.13455473  0.19047590 -0.01420121
   0.13851650  0.37748892  0.00186941
   0.13845892  0.36481226  0.07844351
   0.13352870  0.20643046  0.34454553
   0.21102175  0.20652669  0.34447604
Direct configuration=    29
  -0.00671213 -0.00067600 -0.03680537
   0.06479859 -0.03331664 -0.03750250
   0.03327900  0.96101447  0.17491705
   0.03253647  0.03885768  0.17461318
   0.16182914  0.12076719  0.00468159
   0.13399183  0.18995390 -0.01535090
   0.13860585  0.37923510  0.00228695
   0.13853053  0.36580862  0.07868750
   0.13355210  0.20636558  0.34451821
   0.21096792  0.20647287  0.34443704
Direct configuration=    30
  -0.00692508 -0.00069723 -0.03720945
   0.06459007 -0.03393240 -0.03798544
   0.03323770  0.96102179  0.17534263
   0.03250932  0.03885930  0.17501770
   0.16246823  0.12067009  0.00492980
   0.13379763  0.18977382 -0.01574753
   0.13863668  0.37983752  0.00243099
   0.13855523  0.36615236  0.07877168
   0.13356017  0.20634320  0.34450879
   0.21094935  0.20645431  0.34442358
Direct configuration=    31
  -0.00679468 -0.00091362 -0.03770388
   0.06392675 -0.03450648 -0.03857263
   0.03318348  0.96117010  0.17585995
   0.03247731  0.03872288  0.17550699
   0.16322838  0.12065823  0.00521601
   0.13359381  0.18944218 -0.01621691
   0.13867799  0.38057534  0.00266479
   0.13858889  0.36659176  0.07882349
   0.13356462  0.20631326  0.34449801
   0.21093276  0.20642912  0.34440695
Direct configuration=    32
  -0.00655409 -0.00131290 -0.03861617
   0.06270284 -0.03556574 -0.03965609
   0.03308344  0.96144374  0.17681449
   0.03241823  0.03847115  0.17640980
   0.16463096  0.12063634  0.00574409
   0.13321773  0.18883025 -0.01708299
   0.13875421  0.38193674  0.00309617
   0.13865100  0.36740253  0.07891908
   0.13357282  0.20625801  0.34447811
   0.21090216  0.20638264  0.34437626
Direct configuration=    33
  -0.00650238 -0.00148318 -0.03904724
   0.06216573 -0.03610375 -0.04017707
   0.03303273  0.96140846  0.17726752
   0.03238725  0.03851663  0.17683165
   0.16513165  0.12105526  0.00587028
   0.13322217  0.18810361 -0.01737027
   0.13879497  0.38261506  0.00322646
   0.13868385  0.36778727  0.07904919
   0.13354281  0.20622718  0.34447032
   0.21092053  0.20635621  0.34436191
Direct configuration=    34
  -0.00645150 -0.00165073 -0.03947139
   0.06163724 -0.03663313 -0.04068969
   0.03298284  0.96137374  0.17771328
   0.03235677  0.03856139  0.17724672
   0.16562431  0.12146747  0.00599444
   0.13322654  0.18738862 -0.01765293
   0.13883507  0.38328250  0.00335466
   0.13871616  0.36816583  0.07917722
   0.13351328  0.20619686  0.34446266
   0.21093860  0.20633021  0.34434779
Direct configuration=    35
  -0.00683163 -0.00157504 -0.03978567
   0.06163988 -0.03725060 -0.04109023
   0.03293994  0.96124298  0.17804987
   0.03233050  0.03869741  0.17755335
   0.16607007  0.12170302  0.00613508
   0.13317855  0.18692046 -0.01791123
   0.13886874  0.38381132  0.00342337
   0.13874321  0.36846038  0.07931150
   0.13350096  0.20616804  0.34445901
   0.21093908  0.20630478  0.34433771
Direct configuration=    36
  -0.00699675 -0.00154216 -0.03992219
   0.06164103 -0.03751883 -0.04126422
   0.03292131  0.96118618  0.17819609
   0.03231909  0.03875650  0.17768655
   0.16626371  0.12180535  0.00619618
   0.13315771  0.18671709 -0.01802344
   0.13888337  0.38404104  0.00345321
   0.13875496  0.36858833  0.07936983
   0.13349560  0.20615552  0.34445742
   0.21093929  0.20629373  0.34433333
Direct configuration=    37
  -0.00715898 -0.00154653 -0.04011769
   0.06155582 -0.03786119 -0.04151316
   0.03288797  0.96121527  0.17840026
   0.03230160  0.03872816  0.17786951
   0.16670880  0.12168157  0.00640091
   0.13297809  0.18669839 -0.01829730
   0.13890725  0.38437003  0.00355320
   0.13877457  0.36879363  0.07940165
   0.13350839  0.20613153  0.34445747
   0.21091581  0.20627190  0.34432791
Direct configuration=    38
  -0.00722551 -0.00154832 -0.04019787
   0.06152088 -0.03800159 -0.04161525
   0.03287429  0.96122719  0.17848399
   0.03229442  0.03871654  0.17794455
   0.16689133  0.12163081  0.00648487
   0.13290443  0.18669072 -0.01840961
   0.13891705  0.38450494  0.00359421
   0.13878261  0.36887783  0.07941469
   0.13351363  0.20612169  0.34445749
   0.21090617  0.20626294  0.34432569
Direct configuration=    39
  -0.00711554 -0.00168968 -0.04035507
   0.06120560 -0.03814101 -0.04180673
   0.03284226  0.96130591  0.17863938
   0.03227895  0.03863576  0.17808104
   0.16720242  0.12165984  0.00661180
   0.13281825  0.18655231 -0.01858619
   0.13893885  0.38477015  0.00369056
   0.13880074  0.36905249  0.07942609
   0.13351188  0.20609693  0.34445975
   0.21089589  0.20624006  0.34432212
Direct configuration=    40
  -0.00705060 -0.00177315 -0.04044789
   0.06101942 -0.03822335 -0.04191981
   0.03282334  0.96135239  0.17873114
   0.03226982  0.03858807  0.17816165
   0.16738612  0.12167698  0.00668675
   0.13276736  0.18647057 -0.01869047
   0.13895172  0.38492676  0.00374746
   0.13881145  0.36915564  0.07943283
   0.13351085  0.20608232  0.34446109
   0.21088982  0.20622655  0.34432001
Direct configuration=    41
  -0.00705619 -0.00186975 -0.04061518
   0.06079437 -0.03843905 -0.04213145
   0.03278443  0.96132508  0.17889711
   0.03224996  0.03861055  0.17830278
   0.16763179  0.12192483  0.00675226
   0.13277950  0.18610698 -0.01880530
   0.13897814  0.38523422  0.00380272
   0.13883338  0.36934313  0.07949775
   0.13349003  0.20605015  0.34446544
   0.21089387  0.20619662  0.34431663
Direct configuration=    42
  -0.00706124 -0.00195723 -0.04076666
   0.06059058 -0.03863437 -0.04232311
   0.03274919  0.96130035  0.17904741
   0.03223198  0.03863091  0.17843058
   0.16785426  0.12214926  0.00681157
   0.13279049  0.18577774 -0.01890928
   0.13900207  0.38551264  0.00385276
   0.13885324  0.36951291  0.07955653
   0.13347119  0.20602103  0.34446939
   0.21089755  0.20616952  0.34431356
Direct configuration=    43
  -0.00719833 -0.00196624 -0.04089672
   0.06054152 -0.03887677 -0.04249494
   0.03271598  0.96126052  0.17917831
   0.03221494  0.03866560  0.17854013
   0.16810670  0.12226112  0.00690320
   0.13274947  0.18557590 -0.01903796
   0.13902402  0.38576135  0.00389641
   0.13887150  0.36966488  0.07960959
   0.13346178  0.20599304  0.34447366
   0.21089174  0.20614335  0.34431108
Direct configuration=    44
  -0.00760961 -0.00199327 -0.04128691
   0.06039432 -0.03960396 -0.04301043
   0.03261636  0.96114105  0.17957101
   0.03216383  0.03876967  0.17886878
   0.16886401  0.12259670  0.00717808
   0.13262639  0.18497038 -0.01942400
   0.13908987  0.38650751  0.00402736
   0.13892628  0.37012081  0.07976875
   0.13343354  0.20590906  0.34448646
   0.21087432  0.20606482  0.34430366
Direct configuration=    45
  -0.00768336 -0.00204290 -0.04142344
   0.06027444 -0.03981618 -0.04318668
   0.03258028  0.96115327  0.17970550
   0.03214597  0.03875105  0.17898143
   0.16917967  0.12262675  0.00731154
   0.13253286  0.18484969 -0.01959423
   0.13911268  0.38676172  0.00409710
   0.13894563  0.37028459  0.07979885
   0.13343135  0.20587857  0.34449141
   0.21085978  0.20603621  0.34430128
Direct configuration=    46
  -0.00790461 -0.00219176 -0.04183302
   0.05991481 -0.04045285 -0.04371540
   0.03247206  0.96118991  0.18010899
   0.03209239  0.03869518  0.17931939
   0.17012663  0.12271690  0.00771191
   0.13225227  0.18448762 -0.02010493
   0.13918113  0.38752436  0.00430632
   0.13900368  0.37077593  0.07988913
   0.13342479  0.20578709  0.34450623
   0.21081617  0.20595037  0.34429414
Direct configuration=    47
  -0.00799266 -0.00225100 -0.04199602
   0.05977168 -0.04070622 -0.04392581
   0.03242899  0.96120450  0.18026957
   0.03207106  0.03867295  0.17945388
   0.17050348  0.12275278  0.00787124
   0.13214061  0.18434353 -0.02030817
   0.13920837  0.38782786  0.00438958
   0.13902678  0.37097146  0.07992506
   0.13342218  0.20575069  0.34451213
   0.21079881  0.20591621  0.34429130
Direct configuration=    48
  -0.00798654 -0.00238893 -0.04219603
   0.05948621 -0.04094749 -0.04417590
   0.03237569  0.96123968  0.18046265
   0.03204495  0.03862777  0.17961551
   0.17090087  0.12289295  0.00802039
   0.13206566  0.18407575 -0.02050828
   0.13924155  0.38819564  0.00449089
   0.13905509  0.37120846  0.07996597
   0.13341139  0.20570531  0.34451968
   0.21078444  0.20587362  0.34428789
Direct configuration=    49
  -0.00796818 -0.00280273 -0.04279607
   0.05862980 -0.04167131 -0.04492617
   0.03221578  0.96134523  0.18104188
   0.03196662  0.03849223  0.18010041
   0.17209302  0.12331344  0.00846784
   0.13184080  0.18327243 -0.02110862
   0.13934110  0.38929899  0.00479479
   0.13914002  0.37191946  0.08008871
   0.13337901  0.20556916  0.34454234
   0.21074133  0.20574586  0.34427764
Direct configuration=    50
  -0.00805360 -0.00293540 -0.04306181
   0.05834206 -0.04204820 -0.04526330
   0.03214342  0.96129352  0.18130159
   0.03193115  0.03852969  0.18031633
   0.17249257  0.12369854  0.00857113
   0.13187306  0.18272217 -0.02127652
   0.13938641  0.38980296  0.00488514
   0.13917858  0.37222623  0.08018453
   0.13334770  0.20550633  0.34455284
   0.21073796  0.20568693  0.34427283
Direct configuration=    51
  -0.00818369 -0.00313747 -0.04346656
   0.05790382 -0.04262223 -0.04577675
   0.03203322  0.96121476  0.18169713
   0.03187714  0.03858673  0.18064518
   0.17310111  0.12428505  0.00872845
   0.13192218  0.18188412 -0.02153224
   0.13945542  0.39057053  0.00502273
   0.13923729  0.37269346  0.08033046
   0.13330000  0.20541064  0.34456885
   0.21073282  0.20559717  0.34426550
Direct configuration=    52
  -0.00844604 -0.00317816 -0.04374328
   0.05777193 -0.04312098 -0.04613689
   0.03195523  0.96115431  0.18197219
   0.03183990  0.03863238  0.18087588
   0.17362881  0.12453705  0.00891712
   0.13184998  0.18146387 -0.02178467
   0.13950438  0.39110030  0.00512483
   0.13927952  0.37301818  0.08041802
   0.13328216  0.20534262  0.34457975
   0.21071344  0.20553319  0.34425981
Direct configuration=    53
  -0.00874059 -0.00322385 -0.04405397
   0.05762385 -0.04368094 -0.04654124
   0.03186767  0.96108644  0.18228100
   0.03179809  0.03868363  0.18113489
   0.17422128  0.12481996  0.00912894
   0.13176892  0.18099204 -0.02206808
   0.13955935  0.39169510  0.00523946
   0.13932693  0.37338276  0.08051633
   0.13326212  0.20526625  0.34459200
   0.21069169  0.20546136  0.34425342
Direct configuration=    54
  -0.00886973 -0.00337837 -0.04437983
   0.05730187 -0.04414508 -0.04694417
   0.03177738  0.96113216  0.18259624
   0.03175633  0.03862279  0.18140415
   0.17492824  0.12495989  0.00942528
   0.13157978  0.18066610 -0.02243244
   0.13961646  0.39228734  0.00539921
   0.13937724  0.37376311  0.08056480
   0.13325593  0.20518765  0.34460371
   0.21065581  0.20538718  0.34424581
Direct configuration=    55
  -0.00894400 -0.00346724 -0.04456723
   0.05711669 -0.04441201 -0.04717589
   0.03172545  0.96115845  0.18277753
   0.03173232  0.03858780  0.18155899
   0.17533481  0.12504035  0.00959570
   0.13147100  0.18047865 -0.02264197
   0.13964930  0.39262793  0.00549108
   0.13940618  0.37398184  0.08059267
   0.13325238  0.20514245  0.34461044
   0.21063518  0.20534452  0.34424144
Direct configuration=    56
  -0.00886250 -0.00370306 -0.04482994
   0.05668646 -0.04465535 -0.04747659
   0.03165610  0.96121780  0.18302442
   0.03170120  0.03851945  0.18177210
   0.17575981  0.12528877  0.00974079
   0.13143919  0.18009357 -0.02283548
   0.13969525  0.39308277  0.00560743
   0.13944729  0.37427097  0.08062775
   0.13323540  0.20508127  0.34461839
   0.21062111  0.20528657  0.34423390
Direct configuration=    57
  -0.00883612 -0.00377939 -0.04491497
   0.05654720 -0.04473412 -0.04757392
   0.03163366  0.96123702  0.18310434
   0.03169112  0.03849732  0.18184108
   0.17589737  0.12536918  0.00978774
   0.13142889  0.17996893 -0.02289812
   0.13971012  0.39322999  0.00564509
   0.13946059  0.37436455  0.08063910
   0.13322991  0.20506147  0.34462096
   0.21061656  0.20526781  0.34423146
Direct configuration=    58
  -0.00890955 -0.00385168 -0.04507643
   0.05640340 -0.04495969 -0.04776149
   0.03159188  0.96119045  0.18326278
   0.03167331  0.03854160  0.18197725
   0.17605941  0.12563240  0.00980917
   0.13150304  0.17962711 -0.02294532
   0.13974048  0.39351786  0.00567722
   0.13948840  0.37452996  0.08069011
   0.13320984  0.20502338  0.34462456
   0.21061911  0.20523139  0.34422491
Direct configuration=    59
  -0.00892809 -0.00386994 -0.04511720
   0.05636709 -0.04501665 -0.04780885
   0.03158134  0.96117870  0.18330278
   0.03166881  0.03855277  0.18201163
   0.17610033  0.12569886  0.00981458
   0.13152176  0.17954080 -0.02295724
   0.13974815  0.39359054  0.00568534
   0.13949542  0.37457173  0.08070299
   0.13320477  0.20501376  0.34462547
   0.21061975  0.20522219  0.34422326
Direct configuration=    60
  -0.00907928 -0.00385900 -0.04522606
   0.05636907 -0.04523021 -0.04793724
   0.03155433  0.96114533  0.18341494
   0.03165813  0.03858837  0.18210976
   0.17628029  0.12577737  0.00988645
   0.13149560  0.17941408 -0.02304262
   0.13977004  0.39378128  0.00570852
   0.13951672  0.37468049  0.08072560
   0.13320113  0.20498801  0.34462641
   0.21061328  0.20519705  0.34421700
Direct configuration=    61
  -0.00911951 -0.00385609 -0.04525503
   0.05636960 -0.04528703 -0.04797140
   0.03154715  0.96113645  0.18344478
   0.03165529  0.03859784  0.18213587
   0.17632817  0.12579825  0.00990558
   0.13148864  0.17938037 -0.02306534
   0.13977587  0.39383203  0.00571469
   0.13952239  0.37470943  0.08073162
   0.13320016  0.20498116  0.34462666
   0.21061155  0.20519036  0.34421533
Direct configuration=    62
  -0.00915059 -0.00391259 -0.04535450
   0.05627219 -0.04540283 -0.04807406
   0.03152545  0.96116811  0.18354390
   0.03164746  0.03857184  0.18222592
   0.17652164  0.12580242  0.01000165
   0.13141996  0.17933998 -0.02316956
   0.13979556  0.39398497  0.00575241
   0.13954279  0.37480282  0.08072294
   0.13320369  0.20495943  0.34462591
   0.21060116  0.20516861  0.34420816
Direct configuration=    63
  -0.00916078 -0.00393111 -0.04538711
   0.05624025 -0.04544079 -0.04810772
   0.03151834  0.96117849  0.18357639
   0.03164489  0.03856332  0.18225544
   0.17658506  0.12580378  0.01003314
   0.13139744  0.17932674 -0.02320373
   0.13980202  0.39403511  0.00576477
   0.13954947  0.37483343  0.08072009
   0.13320485  0.20495230  0.34462567
   0.21059776  0.20516147  0.34420581
Direct configuration=    64
  -0.00912903 -0.00403879 -0.04550105
   0.05606604 -0.04552141 -0.04821521
   0.03149563  0.96120925  0.18368972
   0.03163783  0.03854233  0.18235922
   0.17671121  0.12589723  0.01008003
   0.13140219  0.17919812 -0.02325697
   0.13982476  0.39420146  0.00579236
   0.13957381  0.37492863  0.08071528
   0.13320085  0.20492863  0.34462337
   0.21059601  0.20513732  0.34419601
Direct configuration=    65
  -0.00911483 -0.00408694 -0.04555200
   0.05598815 -0.04555746 -0.04826327
   0.03148547  0.96122300  0.18374039
   0.03163467  0.03853294  0.18240563
   0.17676762  0.12593901  0.01010100
   0.13140432  0.17914061 -0.02328078
   0.13983493  0.39427583  0.00580470
   0.13958469  0.37497120  0.08071313
   0.13319906  0.20491805  0.34462234
   0.21059523  0.20512651  0.34419164
Direct configuration=    66
  -0.00916639 -0.00413373 -0.04565041
   0.05591272 -0.04567659 -0.04836016
   0.03146589  0.96121055  0.18384406
   0.03162960  0.03855641  0.18249960
   0.17684713  0.12605146  0.01012171
   0.13143698  0.17899972 -0.02330577
   0.13985583  0.39442417  0.00581160
   0.13960723  0.37504844  0.08072105
   0.13319285  0.20489731  0.34461932
   0.21059748  0.20510502  0.34418177
Direct configuration=    67
  -0.00924260 -0.00420289 -0.04579588
   0.05580121 -0.04585269 -0.04850337
   0.03143695  0.96119215  0.18399730
   0.03162211  0.03859111  0.18263852
   0.17696466  0.12621768  0.01015232
   0.13148525  0.17879145 -0.02334272
   0.13988672  0.39464344  0.00582180
   0.13964056  0.37516263  0.08073276
   0.13318366  0.20486665  0.34461487
   0.21060080  0.20507324  0.34416717
Direct configuration=    68
  -0.00931369 -0.00422696 -0.04587933
   0.05576271 -0.04597015 -0.04858661
   0.03142044  0.96118733  0.18408734
   0.03161845  0.03860683  0.18272040
   0.17706808  0.12626868  0.01019752
   0.13147625  0.17871726 -0.02339097
   0.13990510  0.39476752  0.00583174
   0.13966033  0.37522835  0.08073279
   0.13318281  0.20484908  0.34461173
   0.21059884  0.20505480  0.34415813
Direct configuration=    69
  -0.00952697 -0.00429915 -0.04612966
   0.05564720 -0.04632252 -0.04883634
   0.03137093  0.96117286  0.18435749
   0.03160749  0.03865400  0.18296606
   0.17737835  0.12642166  0.01033314
   0.13144923  0.17849470 -0.02353573
   0.13996023  0.39513978  0.00586159
   0.13971963  0.37542554  0.08073289
   0.13318025  0.20479639  0.34460232
   0.21059296  0.20499950  0.34413099
Direct configuration=    70
  -0.00956161 -0.00438549 -0.04625983
   0.05551313 -0.04644933 -0.04895778
   0.03134653  0.96121002  0.18449528
   0.03160338  0.03863572  0.18309301
   0.17756398  0.12645918  0.01042546
   0.13140449  0.17842335 -0.02363170
   0.13998905  0.39532141  0.00589116
   0.13975026  0.37552641  0.08071415
   0.13318383  0.20477005  0.34459671
   0.21058627  0.20497145  0.34411630
Direct configuration=    71
  -0.00960765 -0.00450022 -0.04643280
   0.05533497 -0.04661785 -0.04911917
   0.03131411  0.96125941  0.18467839
   0.03159792  0.03861142  0.18326170
   0.17781065  0.12650902  0.01054813
   0.13134504  0.17832854 -0.02375923
   0.14002735  0.39556277  0.00593045
   0.13979096  0.37566045  0.08068925
   0.13318858  0.20473504  0.34458925
   0.21057737  0.20493417  0.34409678
Direct configuration=    72
  -0.00963343 -0.00461850 -0.04659117
   0.05515377 -0.04675563 -0.04926372
   0.03128515  0.96128841  0.18484700
   0.03159477  0.03860746  0.18341725
   0.17796692  0.12662387  0.01061185
   0.13135727  0.17817430 -0.02382642
   0.14006294  0.39578329  0.00595285
   0.13982847  0.37577600  0.08067559
   0.13318662  0.20470345  0.34458165
   0.21057683  0.20490010  0.34407788
Direct configuration=    73
  -0.00967800 -0.00482298 -0.04686497
   0.05484049 -0.04699383 -0.04951364
   0.03123510  0.96133855  0.18513849
   0.03158933  0.03860060  0.18368619
   0.17823710  0.12682241  0.01072202
   0.13137841  0.17790765 -0.02394260
   0.14012447  0.39616454  0.00599156
   0.13989330  0.37597576  0.08065198
   0.13318322  0.20464884  0.34456852
   0.21057590  0.20484120  0.34404521
Direct configuration=    74