 254 254   0   0
  0.2268316E+02  0.1514622E-08  0.1514622E-08  0.2900000E-08  0.5000000E-15
  1.000000000000000E-004
  CAR 
 NiAl                                    
      6.20452409    -26.60496815  301     -0.56511967      1.00000000
    -26.605  0.0000E+00  0.0000E+00
    -26.496  0.0000E+00  0.0000E+00
    -26.386  0.0000E+00  0.0000E+00
    -26.277  0.0000E+00  0.0000E+00
    -26.168  0.0000E+00  0.0000E+00
    -26.058  0.0000E+00  0.0000E+00
    -25.949  0.0000E+00  0.0000E+00
    -25.839  0.0000E+00  0.0000E+00
    -25.730  0.0000E+00  0.0000E+00
    -25.621  0.0000E+00  0.0000E+00
    -25.511  0.0000E+00  0.0000E+00
    -25.402  0.3045E-14  0.3331E-15
    -25.293  0.3681E-05  0.4025E-06
    -25.183  0.4419E+00  0.4832E-01
    -25.074  0.1544E+02  0.1737E+01
    -24.964  0.2407E+01  0.2000E+01
    -24.855  0.2314E-03  0.2000E+01
    -24.746  0.2531E-11  0.2000E+01
    -24.636  0.0000E+00  0.2000E+01
    -24.527  0.0000E+00  0.2000E+01
    -24.418  0.0000E+00  0.2000E+01
    -24.308  0.0000E+00  0.2000E+01
    -24.199  0.0000E+00  0.2000E+01
    -24.090  0.0000E+00  0.2000E+01
    -23.980  0.0000E+00  0.2000E+01
    -23.871  0.0000E+00  0.2000E+01
    -23.761  0.0000E+00  0.2000E+01
    -23.652  0.0000E+00  0.2000E+01
    -23.543  0.0000E+00  0.2000E+01
    -23.433  0.0000E+00  0.2000E+01
    -23.324  0.0000E+00  0.2000E+01
    -23.215  0.0000E+00  0.2000E+01
    -23.105  0.0000E+00  0.2000E+01
    -22.996  0.0000E+00  0.2000E+01
    -22.887  0.0000E+00  0.2000E+01
    -22.777  0.0000E+00  0.2000E+01
    -22.668  0.0000E+00  0.2000E+01
    -22.558  0.0000E+00  0.2000E+01
    -22.449  0.0000E+00  0.2000E+01
    -22.340  0.0000E+00  0.2000E+01
    -22.230  0.0000E+00  0.2000E+01
    -22.121  0.0000E+00  0.2000E+01
    -22.012  0.0000E+00  0.2000E+01
    -21.902  0.0000E+00  0.2000E+01
    -21.793  0.0000E+00  0.2000E+01
    -21.684  0.0000E+00  0.2000E+01
    -21.574  0.0000E+00  0.2000E+01
    -21.465  0.0000E+00  0.2000E+01
    -21.355  0.0000E+00  0.2000E+01
    -21.246  0.0000E+00  0.2000E+01
    -21.137  0.0000E+00  0.2000E+01
    -21.027  0.0000E+00  0.2000E+01
    -20.918  0.0000E+00  0.2000E+01
    -20.809  0.0000E+00  0.2000E+01
    -20.699  0.0000E+00  0.2000E+01
    -20.590  0.0000E+00  0.2000E+01
    -20.481  0.0000E+00  0.2000E+01
    -20.371  0.0000E+00  0.2000E+01
    -20.262  0.0000E+00  0.2000E+01
    -20.152  0.0000E+00  0.2000E+01
    -20.043  0.0000E+00  0.2000E+01
    -19.934  0.0000E+00  0.2000E+01
    -19.824  0.0000E+00  0.2000E+01
    -19.715  0.0000E+00  0.2000E+01
    -19.606  0.0000E+00  0.2000E+01
    -19.496  0.0000E+00  0.2000E+01
    -19.387  0.0000E+00  0.2000E+01
    -19.278  0.0000E+00  0.2000E+01
    -19.168  0.0000E+00  0.2000E+01
    -19.059  0.0000E+00  0.2000E+01
    -18.949  0.0000E+00  0.2000E+01
    -18.840  0.0000E+00  0.2000E+01
    -18.731  0.0000E+00  0.2000E+01
    -18.621  0.0000E+00  0.2000E+01
    -18.512  0.0000E+00  0.2000E+01
    -18.403  0.0000E+00  0.2000E+01
    -18.293  0.0000E+00  0.2000E+01
    -18.184  0.0000E+00  0.2000E+01
    -18.075  0.0000E+00  0.2000E+01
    -17.965  0.0000E+00  0.2000E+01
    -17.856  0.0000E+00  0.2000E+01
    -17.746  0.0000E+00  0.2000E+01
    -17.637  0.0000E+00  0.2000E+01
    -17.528  0.0000E+00  0.2000E+01
    -17.418  0.0000E+00  0.2000E+01
    -17.309  0.0000E+00  0.2000E+01
    -17.200  0.0000E+00  0.2000E+01
    -17.090  0.0000E+00  0.2000E+01
    -16.981  0.0000E+00  0.2000E+01
    -16.871  0.0000E+00  0.2000E+01
    -16.762  0.0000E+00  0.2000E+01
    -16.653  0.0000E+00  0.2000E+01
    -16.543  0.0000E+00  0.2000E+01
    -16.434  0.0000E+00  0.2000E+01
    -16.325  0.0000E+00  0.2000E+01
    -16.215  0.0000E+00  0.2000E+01
    -16.106  0.0000E+00  0.2000E+01
    -15.997  0.0000E+00  0.2000E+01
    -15.887  0.0000E+00  0.2000E+01
    -15.778  0.0000E+00  0.2000E+01
    -15.668  0.0000E+00  0.2000E+01
    -15.559  0.0000E+00  0.2000E+01
    -15.450  0.0000E+00  0.2000E+01
    -15.340  0.0000E+00  0.2000E+01
    -15.231  0.0000E+00  0.2000E+01
    -15.122  0.0000E+00  0.2000E+01
    -15.012  0.0000E+00  0.2000E+01
    -14.903  0.0000E+00  0.2000E+01
    -14.794  0.0000E+00  0.2000E+01
    -14.684  0.0000E+00  0.2000E+01
    -14.575  0.0000E+00  0.2000E+01
    -14.465  0.0000E+00  0.2000E+01
    -14.356  0.0000E+00  0.2000E+01
    -14.247  0.0000E+00  0.2000E+01
    -14.137  0.0000E+00  0.2000E+01
    -14.028  0.0000E+00  0.2000E+01
    -13.919  0.0000E+00  0.2000E+01
    -13.809  0.0000E+00  0.2000E+01
    -13.700  0.0000E+00  0.2000E+01
    -13.591  0.0000E+00  0.2000E+01
    -13.481  0.0000E+00  0.2000E+01
    -13.372  0.0000E+00  0.2000E+01
    -13.262  0.0000E+00  0.2000E+01
    -13.153  0.0000E+00  0.2000E+01
    -13.044  0.0000E+00  0.2000E+01
    -12.934  0.0000E+00  0.2000E+01
    -12.825  0.0000E+00  0.2000E+01
    -12.716  0.0000E+00  0.2000E+01
    -12.606  0.0000E+00  0.2000E+01
    -12.497  0.0000E+00  0.2000E+01
    -12.388  0.0000E+00  0.2000E+01
    -12.278  0.0000E+00  0.2000E+01
    -12.169  0.0000E+00  0.2000E+01
    -12.059  0.0000E+00  0.2000E+01
    -11.950  0.0000E+00  0.2000E+01
    -11.841  0.0000E+00  0.2000E+01
    -11.731  0.0000E+00  0.2000E+01
    -11.622  0.0000E+00  0.2000E+01
    -11.513  0.0000E+00  0.2000E+01
    -11.403  0.0000E+00  0.2000E+01
    -11.294  0.0000E+00  0.2000E+01
    -11.185  0.0000E+00  0.2000E+01
    -11.075  0.0000E+00  0.2000E+01
    -10.966  0.0000E+00  0.2000E+01
    -10.856  0.0000E+00  0.2000E+01
    -10.747  0.0000E+00  0.2000E+01
    -10.638  0.0000E+00  0.2000E+01
    -10.528  0.8121E-14  0.2000E+01
    -10.419  0.6645E-05  0.2000E+01
    -10.310  0.5740E+00  0.2063E+01
    -10.200  0.1572E+02  0.3782E+01
    -10.091  0.1991E+01  0.4000E+01
     -9.981  0.1389E-03  0.4000E+01
     -9.872  0.1078E-11  0.4000E+01
     -9.763  0.0000E+00  0.4000E+01
     -9.653  0.0000E+00  0.4000E+01
     -9.544  0.0000E+00  0.4000E+01
     -9.435  0.0000E+00  0.4000E+01
     -9.325  0.8883E-10  0.4000E+01
     -9.216  0.1034E-02  0.4000E+01
     -9.107  0.2456E+01  0.4269E+01
     -8.997  0.1742E+02  0.6174E+01
     -8.888  0.3430E+01  0.6549E+01
     -8.778  0.2179E+02  0.8932E+01
     -8.669  0.5192E+01  0.9500E+01
     -8.560  0.2883E+00  0.9531E+01
     -8.450  0.5251E+01  0.1011E+02
     -8.341  0.3692E+02  0.1414E+02
     -8.232  0.3314E+02  0.1777E+02
     -8.122  0.2143E+02  0.2011E+02
     -8.013  0.8119E+01  0.2100E+02
     -7.904  0.1452E+01  0.2116E+02
     -7.794  0.2399E+02  0.2378E+02
     -7.685  0.6481E+01  0.2449E+02
     -7.575  0.2678E+02  0.2742E+02
     -7.466  0.6031E+02  0.3402E+02
     -7.357  0.2269E+02  0.3650E+02
     -7.247  0.2905E-01  0.3650E+02
     -7.138  0.4003E+01  0.3694E+02
     -7.029  0.6445E+02  0.4399E+02
     -6.919  0.4274E+02  0.4866E+02
     -6.810  0.2351E+02  0.5123E+02
     -6.701  0.1901E+02  0.5331E+02
     -6.591  0.2875E+02  0.5646E+02
     -6.482  0.3012E+02  0.5975E+02
     -6.372  0.4045E+02  0.6417E+02
     -6.263  0.7646E+02  0.7254E+02
     -6.154  0.2336E+02  0.7509E+02
     -6.044  0.3981E+02  0.7944E+02
     -5.935  0.7034E+02  0.8714E+02
     -5.826  0.7648E+02  0.9550E+02
     -5.716  0.4628E+01  0.9601E+02
     -5.607  0.5586E+01  0.9662E+02
     -5.498  0.3227E+02  0.1001E+03
     -5.388  0.9660E+02  0.1107E+03
     -5.279  0.1191E+03  0.1237E+03
     -5.169  0.5637E+02  0.1299E+03
     -5.060  0.1090E+03  0.1418E+03
     -4.951  0.1093E+03  0.1538E+03
     -4.841  0.4686E+02  0.1589E+03
     -4.732  0.1375E+03  0.1739E+03
     -4.623  0.2499E+03  0.2013E+03
     -4.513  0.1958E+03  0.2227E+03
     -4.404  0.2313E+03  0.2480E+03
     -4.295  0.3200E+03  0.2830E+03
     -4.185  0.2324E+03  0.3084E+03
     -4.076  0.2575E+03  0.3366E+03
     -3.966  0.3826E+03  0.3784E+03
     -3.857  0.4968E+03  0.4327E+03
     -3.748  0.4665E+03  0.4838E+03
     -3.638  0.4663E+03  0.5348E+03
     -3.529  0.4498E+03  0.5839E+03
     -3.420  0.3767E+03  0.6251E+03
     -3.310  0.3398E+03  0.6623E+03
     -3.201  0.4292E+03  0.7092E+03
     -3.091  0.5533E+03  0.7698E+03
     -2.982  0.3480E+03  0.8078E+03
     -2.873  0.5717E+03  0.8703E+03
     -2.763  0.5168E+03  0.9269E+03
     -2.654  0.5291E+03  0.9847E+03
     -2.545  0.5535E+03  0.1045E+04
     -2.435  0.6899E+03  0.1121E+04
     -2.326  0.7830E+03  0.1206E+04
     -2.217  0.9300E+03  0.1308E+04
     -2.107  0.7880E+03  0.1394E+04
     -1.998  0.8979E+03  0.1492E+04
     -1.888  0.7010E+03  0.1569E+04
     -1.779  0.5791E+03  0.1632E+04
     -1.670  0.5750E+03  0.1695E+04
     -1.560  0.5333E+03  0.1754E+04
     -1.451  0.6699E+03  0.1827E+04
     -1.342  0.8041E+03  0.1915E+04
     -1.232  0.5254E+03  0.1972E+04
     -1.123  0.6414E+03  0.2042E+04
     -1.014  0.7551E+03  0.2125E+04
     -0.904  0.8777E+03  0.2221E+04
     -0.795  0.6209E+03  0.2289E+04
     -0.685  0.8790E+03  0.2385E+04
     -0.576  0.1208E+04  0.2517E+04
     -0.467  0.8528E+03  0.2611E+04
     -0.357  0.3914E+03  0.2653E+04
     -0.248  0.1534E+03  0.2670E+04
     -0.139  0.1340E+03  0.2685E+04
     -0.029  0.1623E+03  0.2703E+04
      0.080  0.1133E+03  0.2715E+04
      0.189  0.3928E+02  0.2719E+04
      0.299  0.4781E+02  0.2724E+04
      0.408  0.5156E+02  0.2730E+04
      0.518  0.1178E+03  0.2743E+04
      0.627  0.9555E+02  0.2753E+04
      0.736  0.7739E+02  0.2762E+04
      0.846  0.8708E+02  0.2771E+04
      0.955  0.1309E+03  0.2786E+04
      1.064  0.1071E+03  0.2797E+04
      1.174  0.1663E+02  0.2799E+04
      1.283  0.7200E+02  0.2807E+04
      1.392  0.1044E+03  0.2819E+04
      1.502  0.4974E+02  0.2824E+04
      1.611  0.6570E+02  0.2831E+04
      1.721  0.1068E+03  0.2843E+04
      1.830  0.7130E+02  0.2851E+04
      1.939  0.9730E+02  0.2861E+04
      2.049  0.8088E+02  0.2870E+04
      2.158  0.5221E+02  0.2876E+04
      2.267  0.9222E+02  0.2886E+04
      2.377  0.1119E+03  0.2898E+04
      2.486  0.5013E+02  0.2904E+04
      2.595  0.5658E+02  0.2910E+04
      2.705  0.5847E+02  0.2916E+04
      2.814  0.1262E+02  0.2918E+04
      2.924  0.3857E+02  0.2922E+04
      3.033  0.9150E+02  0.2932E+04
      3.142  0.2111E+03  0.2955E+04
      3.252  0.7363E+02  0.2963E+04
      3.361  0.3956E+02  0.2967E+04
      3.470  0.3643E+02  0.2971E+04
      3.580  0.9702E+02  0.2982E+04
      3.689  0.2634E+02  0.2985E+04
      3.798  0.7441E+02  0.2993E+04
      3.908  0.2880E+02  0.2996E+04
      4.017  0.2350E+02  0.2999E+04
      4.127  0.3471E+02  0.3002E+04
      4.236  0.6787E+02  0.3010E+04
      4.345  0.3791E+02  0.3014E+04
      4.455  0.8403E+02  0.3023E+04
      4.564  0.5787E+02  0.3030E+04
      4.673  0.4472E+02  0.3034E+04
      4.783  0.1448E+02  0.3036E+04
      4.892  0.1303E+00  0.3036E+04
      5.002  0.9672E-06  0.3036E+04
      5.111  0.1015E-14  0.3036E+04
      5.220  0.0000E+00  0.3036E+04
      5.330  0.0000E+00  0.3036E+04
      5.439  0.0000E+00  0.3036E+04
      5.548  0.0000E+00  0.3036E+04
      5.658  0.0000E+00  0.3036E+04
      5.767  0.0000E+00  0.3036E+04
      5.876  0.0000E+00  0.3036E+04
      5.986  0.0000E+00  0.3036E+04
      6.095  0.0000E+00  0.3036E+04
      6.205  0.0000E+00  0.3036E+04
