  254  254    1    1
  0.2268316E+02  0.1514622E-08  0.1514622E-08  0.2900000E-08  0.5000000E-15
  1.000000000000000E-004
  CAR 
 NiAl                                    
   2530      4   1518
 
  0.0000000E+00  0.0000000E+00  0.0000000E+00  0.2500000E+00
    1      -25.113273   1.000000
    2      -10.243742   1.000000
    3       -9.091655   1.000000
    4       -8.998899   1.000000
    5       -8.505588   1.000000
    6       -8.391340   1.000000
    7       -8.143727   1.000000
    8       -8.143614   1.000000
    9       -8.143526   1.000000
   10       -8.142792   1.000000
   11       -8.140728   1.000000
   12       -8.133501   1.000000
   13       -7.687149   1.000000
   14       -7.637875   1.000000
   15       -7.637716   1.000000
   16       -7.637656   1.000000
   17       -7.636115   1.000000
   18       -7.634198   1.000000
   19       -7.612776   1.000000
   20       -6.891741   1.000000
   21       -6.852276   1.000000
   22       -6.852229   1.000000
   23       -6.851623   1.000000
   24       -6.850035   1.000000
   25       -6.849069   1.000000
   26       -6.725873   1.000000
   27       -6.580577   1.000000
   28       -6.507970   1.000000
   29       -6.507927   1.000000
   30       -6.507703   1.000000
   31       -6.507587   1.000000
   32       -6.507420   1.000000
   33       -6.502106   1.000000
   34       -6.087746   1.000000
   35       -6.087572   1.000000
   36       -6.087170   1.000000
   37       -6.086751   1.000000
   38       -6.085880   1.000000
   39       -6.081539   1.000000
   40       -5.886912   1.000000
   41       -5.886891   1.000000
   42       -5.886830   1.000000
   43       -5.886786   1.000000
   44       -5.886768   1.000000
   45       -5.886708   1.000000
   46       -5.886405   1.000000
   47       -5.886373   1.000000
   48       -5.886193   1.000000
   49       -5.883905   1.000000
   50       -5.883615   1.000000
   51       -5.824477   1.000000
   52       -5.639150   1.000000
   53       -5.555332   1.000000
   54       -5.555223   1.000000
   55       -5.554967   1.000000
   56       -5.554876   1.000000
   57       -5.554125   1.000000
   58       -5.552562   1.000000
   59       -5.460825   1.000000
   60       -5.460521   1.000000
   61       -5.460091   1.000000
   62       -5.459424   1.000000
   63       -5.458099   1.000000
   64       -5.447085   1.000000
   65       -5.107844   1.000000
   66       -5.107754   1.000000
   67       -5.107358   1.000000
   68       -5.107293   1.000000
   69       -5.106058   1.000000
   70       -5.105143   1.000000
   71       -5.019483   1.000000
   72       -4.950521   1.000000
   73       -4.950462   1.000000
   74       -4.950345   1.000000
   75       -4.949613   1.000000
   76       -4.948952   1.000000
   77       -4.903623   1.000000
   78       -4.848231   1.000000
   79       -4.778032   1.000000
   80       -4.777887   1.000000
   81       -4.777841   1.000000
   82       -4.739053   1.000000
   83       -4.738554   1.000000
   84       -4.738251   1.000000
   85       -4.737580   1.000000
   86       -4.736423   1.000000
   87       -4.723199   1.000000
   88       -4.655494   1.000000
   89       -4.655238   1.000000
   90       -4.654982   1.000000
   91       -4.654718   1.000000
   92       -4.653592   1.000000
   93       -4.649569   1.000000
   94       -4.637163   1.000000
   95       -4.637089   1.000000
   96       -4.636829   1.000000
   97       -4.544441   1.000000
   98       -4.544301   1.000000
   99       -4.544260   1.000000
  100       -4.544165   1.000000
  101       -4.544086   1.000000
  102       -4.544034   1.000000
  103       -4.543977   1.000000
  104       -4.543934   1.000000
  105       -4.543870   1.000000
  106       -4.543818   1.000000
  107       -4.543765   1.000000
  108       -4.543722   1.000000
  109       -4.502316   1.000000
  110       -4.501945   1.000000
  111       -4.501747   1.000000
  112       -4.431912   1.000000
  113       -4.431744   1.000000
  114       -4.431648   1.000000
  115       -4.397165   1.000000
  116       -4.396767   1.000000
  117       -4.396577   1.000000
  118       -4.396413   1.000000
  119       -4.396258   1.000000
  120       -4.371016   1.000000
  121       -4.341181   1.000000
  122       -4.340875   1.000000
  123       -4.340683   1.000000
  124       -4.340581   1.000000
  125       -4.340551   1.000000
  126       -4.340505   1.000000
  127       -4.340420   1.000000
  128       -4.340370   1.000000
  129       -4.340358   1.000000
  130       -4.340244   1.000000
  131       -4.340081   1.000000
  132       -4.340047   1.000000
  133       -4.330121   1.000000
  134       -4.330097   1.000000
  135       -4.329981   1.000000
  136       -4.329833   1.000000
  137       -4.329808   1.000000
  138       -4.329700   1.000000
  139       -4.329575   1.000000
  140       -4.329566   1.000000
  141       -4.329421   1.000000
  142       -4.329315   1.000000
  143       -4.329144   1.000000
  144       -4.329056   1.000000
  145       -4.283870   1.000000
  146       -4.283525   1.000000
  147       -4.283440   1.000000
  148       -4.283360   1.000000
  149       -4.283149   1.000000
  150       -4.272572   1.000000
  151       -4.248515   1.000000
  152       -4.247671   1.000000
  153       -4.247613   1.000000
  154       -4.247207   1.000000
  155       -4.246695   1.000000
  156       -4.239178   1.000000
  157       -4.226958   1.000000
  158       -4.226933   1.000000
  159       -4.225917   1.000000
  160       -4.189701   1.000000
  161       -4.189432   1.000000
  162       -4.189295   1.000000
  163       -4.188843   1.000000
  164       -4.188802   1.000000
  165       -4.188627   1.000000
  166       -4.188455   1.000000
  167       -4.188423   1.000000
  168       -4.188370   1.000000
  169       -4.188221   1.000000
  170       -4.187940   1.000000
  171       -4.187684   1.000000
  172       -4.126002   1.000000
  173       -4.125946   1.000000
  174       -4.125785   1.000000
  175       -4.097636   1.000000
  176       -4.097195   1.000000
  177       -4.096981   1.000000
  178       -4.096809   1.000000
  179       -4.096158   1.000000
  180       -4.085767   1.000000
  181       -4.022827   1.000000
  182       -4.018756   1.000000
  183       -4.018727   1.000000
  184       -3.993439   1.000000
  185       -3.992066   1.000000
  186       -3.991396   1.000000
  187       -3.991318   1.000000
  188       -3.991272   1.000000
  189       -3.990923   1.000000
  190       -3.990763   1.000000
  191       -3.990714   1.000000
  192       -3.990647   1.000000
  193       -3.990491   1.000000
  194       -3.990039   1.000000
  195       -3.989443   1.000000
  196       -3.956973   1.000000
  197       -3.956616   1.000000
  198       -3.956411   1.000000
  199       -3.898194   1.000000
  200       -3.894434   1.000000
  201       -3.894391   1.000000
  202       -3.891994   1.000000
  203       -3.891864   1.000000
  204       -3.891752   1.000000
  205       -3.891267   1.000000
  206       -3.890917   1.000000
  207       -3.887499   1.000000
  208       -3.846518   1.000000
  209       -3.846413   1.000000
  210       -3.846392   1.000000
  211       -3.846316   1.000000
  212       -3.846149   1.000000
  213       -3.846112   1.000000
  214       -3.846051   1.000000
  215       -3.846046   1.000000
  216       -3.845954   1.000000
  217       -3.845859   1.000000
  218       -3.845849   1.000000
  219       -3.845712   1.000000
  220       -3.836072   1.000000
  221       -3.835504   1.000000
  222       -3.835227   1.000000
  223       -3.834583   1.000000
  224       -3.834542   1.000000
  225       -3.833099   1.000000
  226       -3.755686   1.000000
  227       -3.752848   1.000000
  228       -3.752479   1.000000
  229       -3.752307   1.000000
  230       -3.751484   1.000000
  231       -3.751467   1.000000
  232       -3.751341   1.000000
  233       -3.751207   1.000000
  234       -3.751195   1.000000
  235       -3.751063   1.000000
  236       -3.750593   1.000000
  237       -3.750304   1.000000
  238       -3.720299   1.000000
  239       -3.720161   1.000000
  240       -3.720103   1.000000
  241       -3.719890   1.000000
  242       -3.719807   1.000000
  243       -3.716344   1.000000
  244       -3.704395   1.000000
  245       -3.704261   1.000000
  246       -3.704082   1.000000
  247       -3.703969   1.000000
  248       -3.700298   1.000000
  249       -3.700247   1.000000
  250       -3.700149   1.000000
  251       -3.699729   1.000000
  252       -3.699450   1.000000
  253       -3.697760   1.000000
  254       -3.694268   1.000000
  255       -3.694184   1.000000
  256       -3.656370   1.000000
  257       -3.655360   1.000000
  258       -3.655143   1.000000
  259       -3.654485   1.000000
  260       -3.654289   1.000000
  261       -3.654158   1.000000
  262       -3.654093   1.000000
  263       -3.653992   1.000000
  264       -3.653927   1.000000
  265       -3.653880   1.000000
  266       -3.653822   1.000000
  267       -3.653771   1.000000
  268       -3.644885   1.000000
  269       -3.644579   1.000000
  270       -3.644275   1.000000
  271       -3.597586   1.000000
  272       -3.596745   1.000000
  273       -3.596134   1.000000
  274       -3.595129   1.000000
  275       -3.594956   1.000000
  276       -3.594042   1.000000
  277       -3.588264   1.000000
  278       -3.588010   1.000000
  279       -3.587610   1.000000
  280       -3.587515   1.000000
  281       -3.568120   1.000000
  282       -3.568086   1.000000
  283       -3.552596   1.000000
  284       -3.552252   1.000000
  285       -3.552227   1.000000
  286       -3.552087   1.000000
  287       -3.552034   1.000000
  288       -3.549716   1.000000
  289       -3.541397   1.000000
  290       -3.541287   1.000000
  291       -3.540549   1.000000
  292       -3.540467   1.000000
  293       -3.536165   1.000000
  294       -3.536134   1.000000
  295       -3.473695   1.000000
  296       -3.473073   1.000000
  297       -3.469071   1.000000
  298       -3.468985   1.000000
  299       -3.467882   1.000000
  300       -3.465770   1.000000
  301       -3.465614   1.000000
  302       -3.465061   1.000000
  303       -3.464763   1.000000
  304       -3.464570   1.000000
  305       -3.464561   1.000000
  306       -3.464438   1.000000
  307       -3.464279   1.000000
  308       -3.464105   1.000000
  309       -3.463302   1.000000
  310       -3.462868   1.000000
  311       -3.418163   1.000000
  312       -3.418069   1.000000
  313       -3.418058   1.000000
  314       -3.417975   1.000000
  315       -3.417916   1.000000
  316       -3.417765   1.000000
  317       -3.389891   1.000000
  318       -3.384206   1.000000
  319       -3.383455   1.000000
  320       -3.382650   1.000000
  321       -3.382420   1.000000
  322       -3.382213   1.000000
  323       -3.382110   1.000000
  324       -3.381670   1.000000
  325       -3.381551   1.000000
  326       -3.379359   1.000000
  327       -3.378917   1.000000
  328       -3.378754   1.000000
  329       -3.378590   1.000000
  330       -3.378418   1.000000
  331       -3.378318   1.000000
  332       -3.378187   1.000000
  333       -3.378147   1.000000
  334       -3.377955   1.000000
  335       -3.364113   1.000000
  336       -3.363796   1.000000
  337       -3.363167   1.000000
  338       -3.362588   1.000000
  339       -3.362295   1.000000
  340       -3.358839   1.000000
  341       -3.269214   1.000000
  342       -3.268411   1.000000
  343       -3.266265   1.000000
  344       -3.245342   1.000000
  345       -3.243329   1.000000
  346       -3.242854   1.000000
  347       -3.242293   1.000000
  348       -3.242271   1.000000
  349       -3.241826   1.000000
  350       -3.203103   1.000000
  351       -3.203041   1.000000
  352       -3.197294   1.000000
  353       -3.192372   1.000000
  354       -3.192248   1.000000
  355       -3.190221   1.000000
  356       -3.189091   1.000000
  357       -3.188717   1.000000
  358       -3.188360   1.000000
  359       -3.188099   1.000000
  360       -3.187857   1.000000
  361       -3.187724   1.000000
  362       -3.187622   1.000000
  363       -3.185825   1.000000
  364       -3.162493   1.000000
  365       -3.162367   1.000000
  366       -3.126251   1.000000
  367       -3.126067   1.000000
  368       -3.125639   1.000000
  369       -3.124460   1.000000
  370       -3.124044   1.000000
  371       -3.121127   1.000000
  372       -3.120041   1.000000
  373       -3.118864   1.000000
  374       -3.118744   1.000000
  375       -3.118491   1.000000
  376       -3.118450   1.000000
  377       -3.116737   1.000000
  378       -3.116588   1.000000
  379       -3.115366   1.000000
  380       -3.115255   1.000000
  381       -3.114869   1.000000
  382       -3.114720   1.000000
  383       -3.114633   1.000000
  384       -3.052970   1.000000
  385       -3.051161   1.000000
  386       -3.048938   1.000000
  387       -3.048438   1.000000
  388       -3.048170   1.000000
  389       -3.047965   1.000000
  390       -3.047769   1.000000
  391       -3.047724   1.000000
  392       -3.047675   1.000000
  393       -3.047430   1.000000
  394       -3.047190   1.000000
  395       -3.046299   1.000000
  396       -3.012933   1.000000
  397       -3.011575   1.000000
  398       -3.011414   1.000000
  399       -3.011100   1.000000
  400       -3.010948   1.000000
  401       -3.010880   1.000000
  402       -2.941327   1.000000
  403       -2.939551   1.000000
  404       -2.939512   1.000000
  405       -2.939252   1.000000
  406       -2.939206   1.000000
  407       -2.938973   1.000000
  408       -2.929649   1.000000
  409       -2.928394   1.000000
  410       -2.927652   1.000000
  411       -2.927548   1.000000
  412       -2.927407   1.000000
  413       -2.920075   1.000000
  414       -2.911895   1.000000
  415       -2.911856   1.000000
  416       -2.911703   1.000000
  417       -2.911574   1.000000
  418       -2.911536   1.000000
  419       -2.910238   1.000000
  420       -2.891648   1.000000
  421       -2.891029   1.000000
  422       -2.889123   1.000000
  423       -2.888896   1.000000
  424       -2.888555   1.000000
  425       -2.886046   1.000000
  426       -2.871214   1.000000
  427       -2.869733   1.000000
  428       -2.867482   1.000000
  429       -2.867305   1.000000
  430       -2.867221   1.000000
  431       -2.867108   1.000000
  432       -2.867042   1.000000
  433       -2.866882   1.000000
  434       -2.866690   1.000000
  435       -2.866596   1.000000
  436       -2.866303   1.000000
  437       -2.866131   1.000000
  438       -2.865329   1.000000
  439       -2.865285   1.000000
  440       -2.864252   1.000000
  441       -2.863982   1.000000
  442       -2.863765   1.000000
  443       -2.857312   1.000000
  444       -2.806527   1.000000
  445       -2.805973   1.000000
  446       -2.804190   1.000000
  447       -2.802425   1.000000
  448       -2.800776   1.000000
  449       -2.800580   1.000000
  450       -2.800143   1.000000
  451       -2.800093   1.000000
  452       -2.798722   1.000000
  453       -2.795284   1.000000
  454       -2.794871   1.000000
  455       -2.794670   1.000000
  456       -2.794540   1.000000
  457       -2.794476   1.000000
  458       -2.794245   1.000000
  459       -2.793889   1.000000
  460       -2.793790   1.000000
  461       -2.793745   1.000000
  462       -2.793570   1.000000
  463       -2.793336   1.000000
  464       -2.792727   1.000000
  465       -2.743667   1.000000
  466       -2.743154   1.000000
  467       -2.743028   1.000000
  468       -2.742912   1.000000
  469       -2.713719   1.000000
  470       -2.710361   1.000000
  471       -2.709729   1.000000
  472       -2.709678   1.000000
  473       -2.709575   1.000000
  474       -2.709261   1.000000
  475       -2.708880   1.000000
  476       -2.707924   1.000000
  477       -2.707284   1.000000
  478       -2.706986   1.000000
  479       -2.706678   1.000000
  480       -2.705033   1.000000
  481       -2.704252   1.000000
  482       -2.704028   1.000000
  483       -2.703793   1.000000
  484       -2.701952   1.000000
  485       -2.701441   1.000000
  486       -2.700957   1.000000
  487       -2.689505   1.000000
  488       -2.689069   1.000000
  489       -2.688066   1.000000
  490       -2.686382   1.000000
  491       -2.686342   1.000000
  492       -2.686314   1.000000
  493       -2.686261   1.000000
  494       -2.686185   1.000000
  495       -2.686080   1.000000
  496       -2.685960   1.000000
  497       -2.685908   1.000000
  498       -2.685742   1.000000
  499       -2.679223   1.000000
  500       -2.679127   1.000000
  501       -2.650845   1.000000
  502       -2.650745   1.000000
  503       -2.650725   1.000000
  504       -2.650621   1.000000
  505       -2.650499   1.000000
  506       -2.645376   1.000000
  507       -2.617584   1.000000
  508       -2.617185   1.000000
  509       -2.616253   1.000000
  510       -2.616066   1.000000
  511       -2.615986   1.000000
  512       -2.615475   1.000000
  513       -2.612149   1.000000
  514       -2.586865   1.000000
  515       -2.585850   1.000000
  516       -2.582942   1.000000
  517       -2.582868   1.000000
  518       -2.581208   1.000000
  519       -2.581115   1.000000
  520       -2.577720   1.000000
  521       -2.576379   1.000000
  522       -2.575193   1.000000
  523       -2.573720   1.000000
  524       -2.571013   1.000000
  525       -2.531707   1.000000
  526       -2.530163   1.000000
  527       -2.525368   1.000000
  528       -2.525136   1.000000
  529       -2.524771   1.000000
  530       -2.524732   1.000000
  531       -2.524591   1.000000
  532       -2.524460   1.000000
  533       -2.524421   1.000000
  534       -2.524134   1.000000
  535       -2.524013   1.000000
  536       -2.523810   1.000000
  537       -2.518618   1.000000
  538       -2.518142   1.000000
  539       -2.516394   1.000000
  540       -2.513571   1.000000
  541       -2.512510   1.000000
  542       -2.512359   1.000000
  543       -2.512248   1.000000
  544       -2.511930   1.000000
  545       -2.503486   1.000000
  546       -2.487080   1.000000
  547       -2.486995   1.000000
  548       -2.486916   1.000000
  549       -2.477517   1.000000
  550       -2.476968   1.000000
  551       -2.476872   1.000000
  552       -2.476721   1.000000
  553       -2.476281   1.000000
  554       -2.471476   1.000000
  555       -2.461979   1.000000
  556       -2.461172   1.000000
  557       -2.459534   1.000000
  558       -2.458402   1.000000
  559       -2.457843   1.000000
  560       -2.448997   1.000000
  561       -2.448468   1.000000
  562       -2.448402   1.000000
  563       -2.447898   1.000000
  564       -2.447657   1.000000
  565       -2.447402   1.000000
  566       -2.447282   1.000000
  567       -2.447174   1.000000
  568       -2.447069   1.000000
  569       -2.446805   1.000000
  570       -2.446707   1.000000
  571       -2.446106   1.000000
  572       -2.443256   1.000000
  573       -2.443027   1.000000
  574       -2.436322   1.000000
  575       -2.422524   1.000000
  576       -2.422403   1.000000
  577       -2.405511   1.000000
  578       -2.404715   1.000000
  579       -2.403224   1.000000
  580       -2.403189   1.000000
  581       -2.403050   1.000000
  582       -2.401597   1.000000
  583       -2.401326   1.000000
  584       -2.400737   1.000000
  585       -2.400428   1.000000
  586       -2.400368   1.000000
  587       -2.400304   1.000000
  588       -2.393292   1.000000
  589       -2.377103   1.000000
  590       -2.376969   1.000000
  591       -2.376214   1.000000
  592       -2.375693   1.000000
  593       -2.375659   1.000000
  594       -2.373405   1.000000
  595       -2.366147   1.000000
  596       -2.359177   1.000000
  597       -2.358843   1.000000
  598       -2.357793   1.000000
  599       -2.356917   1.000000
  600       -2.356721   1.000000
  601       -2.356607   1.000000
  602       -2.356476   1.000000
  603       -2.356329   1.000000
  604       -2.356078   1.000000
  605       -2.352502   1.000000
  606       -2.352331   1.000000
  607       -2.352229   1.000000
  608       -2.351975   1.000000
  609       -2.351891   1.000000
  610       -2.351818   1.000000
  611       -2.346694   1.000000
  612       -2.346494   1.000000
  613       -2.296487   1.000000
  614       -2.295416   1.000000
  615       -2.292625   1.000000
  616       -2.287425   1.000000
  617       -2.286938   1.000000
  618       -2.286776   1.000000
  619       -2.285925   1.000000
  620       -2.280625   1.000000
  621       -2.280548   1.000000
  622       -2.280175   1.000000
  623       -2.280092   1.000000
  624       -2.279409   1.000000
  625       -2.255587   1.000000
  626       -2.255453   1.000000
  627       -2.255170   1.000000
  628       -2.254731   1.000000
  629       -2.254390   1.000000
  630       -2.254249   1.000000
  631       -2.253183   1.000000
  632       -2.252952   1.000000
  633       -2.252876   1.000000
  634       -2.252736   1.000000
  635       -2.252547   1.000000
  636       -2.252442   1.000000
  637       -2.238244   1.000000
  638       -2.234571   1.000000
  639       -2.233458   1.000000
  640       -2.233144   1.000000
  641       -2.231616   1.000000
  642       -2.227452   1.000000
  643       -2.220521   1.000000
  644       -2.220338   1.000000
  645       -2.216940   1.000000
  646       -2.214480   1.000000
  647       -2.201450   1.000000
  648       -2.201085   1.000000
  649       -2.200783   1.000000
  650       -2.199942   1.000000
  651       -2.198603   1.000000
  652       -2.198556   1.000000
  653       -2.198300   1.000000
  654       -2.198177   1.000000
  655       -2.197957   1.000000
  656       -2.197908   1.000000
  657       -2.193144   1.000000
  658       -2.190957   1.000000
  659       -2.190013   1.000000
  660       -2.189168   1.000000
  661       -2.187781   1.000000
  662       -2.187249   1.000000
  663       -2.187015   1.000000
  664       -2.186154   1.000000
  665       -2.185632   1.000000
  666       -2.185191   1.000000
  667       -2.184621   1.000000
  668       -2.184496   1.000000
  669       -2.184291   1.000000
  670       -2.182220   1.000000
  671       -2.178126   1.000000
  672       -2.178029   1.000000
  673       -2.146579   1.000000
  674       -2.146423   1.000000
  675       -2.145821   1.000000
  676       -2.145134   1.000000
  677       -2.144470   1.000000
  678       -2.143826   1.000000
  679       -2.136905   1.000000
  680       -2.135390   1.000000
  681       -2.134996   1.000000
  682       -2.134630   1.000000
  683       -2.134340   1.000000
  684       -2.134274   1.000000
  685       -2.124152   1.000000
  686       -2.121900   1.000000
  687       -2.108724   1.000000
  688       -2.094080   1.000000
  689       -2.093101   1.000000
  690       -2.092116   1.000000
  691       -2.091637   1.000000
  692       -2.091099   1.000000
  693       -2.091079   1.000000
  694       -2.090673   1.000000
  695       -2.090622   1.000000
  696       -2.090303   1.000000
  697       -2.090196   1.000000
  698       -2.089752   1.000000
  699       -2.086881   1.000000
  700       -2.084103   1.000000
  701       -2.083673   1.000000
  702       -2.082925   1.000000
  703       -2.082731   1.000000
  704       -2.081830   1.000000
  705       -2.081689   1.000000
  706       -2.081619   1.000000
  707       -2.081057   1.000000
  708       -2.080959   1.000000
  709       -2.080873   1.000000
  710       -2.080285   1.000000
  711       -2.080220   1.000000
  712       -2.079944   1.000000
  713       -2.079914   1.000000
  714       -2.079484   1.000000
  715       -2.079237   1.000000
  716       -2.076243   1.000000
  717       -2.076158   1.000000
  718       -2.061286   1.000000
  719       -2.061226   1.000000
  720       -2.061000   1.000000
  721       -2.060945   1.000000
  722       -2.060910   1.000000
  723       -2.060679   1.000000
  724       -2.020919   1.000000
  725       -2.016165   1.000000
  726       -2.005717   1.000000
  727       -2.004339   1.000000
  728       -2.004230   1.000000
  729       -2.003343   1.000000
  730       -2.002986   1.000000
  731       -2.002298   1.000000
  732       -2.001255   1.000000
  733       -2.000640   1.000000
  734       -2.000457   1.000000
  735       -2.000271   1.000000
  736       -2.000113   1.000000
  737       -2.000058   1.000000
  738       -1.999929   1.000000
  739       -1.999696   1.000000
  740       -1.999440   1.000000
  741       -1.989806   1.000000
  742       -1.966293   1.000000
  743       -1.965845   1.000000
  744       -1.965344   1.000000
  745       -1.965270   1.000000
  746       -1.965234   1.000000
  747       -1.964997   1.000000
  748       -1.960775   1.000000
  749       -1.960162   1.000000
  750       -1.959795   1.000000
  751       -1.959483   1.000000
  752       -1.958909   1.000000
  753       -1.954746   1.000000
  754       -1.923030   1.000000
  755       -1.920059   1.000000
  756       -1.911171   1.000000
  757       -1.909589   1.000000
  758       -1.909066   1.000000
  759       -1.908600   1.000000
  760       -1.905922   1.000000
  761       -1.905215   1.000000
  762       -1.903752   1.000000
  763       -1.903013   1.000000
  764       -1.902380   1.000000
  765       -1.901681   1.000000
  766       -1.901390   1.000000
  767       -1.901357   1.000000
  768       -1.901223   1.000000
  769       -1.901087   1.000000
  770       -1.900889   1.000000
  771       -1.900790   1.000000
  772       -1.900716   1.000000
  773       -1.900600   1.000000
  774       -1.900280   1.000000
  775       -1.899949   1.000000
  776       -1.899858   1.000000
  777       -1.894129   1.000000
  778       -1.872604   1.000000
  779       -1.871700   1.000000
  780       -1.871276   1.000000
  781       -1.864209   1.000000
  782       -1.863931   1.000000
  783       -1.863782   1.000000
  784       -1.863601   1.000000
  785       -1.863500   1.000000
  786       -1.863267   1.000000
  787       -1.846003   1.000000
  788       -1.844928   1.000000
  789       -1.843223   1.000000
  790       -1.842913   1.000000
  791       -1.842422   1.000000
  792       -1.842346   1.000000
  793       -1.830220   1.000000
  794       -1.824606   1.000000
  795       -1.821125   1.000000
  796       -1.820265   1.000000
  797       -1.819686   1.000000
  798       -1.819221   1.000000
  799       -1.818924   1.000000
  800       -1.818696   1.000000
  801       -1.811714   1.000000
  802       -1.809915   1.000000
  803       -1.808974   1.000000
  804       -1.800353   1.000000
  805       -1.793235   1.000000
  806       -1.791691   1.000000
  807       -1.785453   1.000000
  808       -1.782535   1.000000
  809       -1.782415   1.000000
  810       -1.781471   1.000000
  811       -1.781253   1.000000
  812       -1.780813   1.000000
  813       -1.780682   1.000000
  814       -1.780322   1.000000
  815       -1.779370   1.000000
  816       -1.777617   1.000000
  817       -1.750706   1.000000
  818       -1.750145   1.000000
  819       -1.744880   1.000000
  820       -1.744782   1.000000
  821       -1.743063   1.000000
  822       -1.741358   1.000000
  823       -1.741227   1.000000
  824       -1.740533   1.000000
  825       -1.740212   1.000000
  826       -1.739980   1.000000
  827       -1.739913   1.000000
  828       -1.739650   1.000000
  829       -1.736936   1.000000
  830       -1.736754   1.000000
  831       -1.733829   1.000000
  832       -1.733710   1.000000
  833       -1.733447   1.000000
  834       -1.733334   1.000000
  835       -1.732703   1.000000
  836       -1.732515   1.000000
  837       -1.732397   1.000000
  838       -1.731898   1.000000
  839       -1.731873   1.000000
  840       -1.731847   1.000000
  841       -1.726397   1.000000
  842       -1.726359   1.000000
  843       -1.726115   1.000000
  844       -1.726048   1.000000
  845       -1.725901   1.000000
  846       -1.724842   1.000000
  847       -1.714228   1.000000
  848       -1.713550   1.000000
  849       -1.712206   1.000000
  850       -1.711559   1.000000
  851       -1.711326   1.000000
  852       -1.700144   1.000000
  853       -1.699688   1.000000
  854       -1.698498   1.000000
  855       -1.693185   1.000000
  856       -1.677647   1.000000
  857       -1.676201   1.000000
  858       -1.672229   1.000000
  859       -1.670864   1.000000
  860       -1.670831   1.000000
  861       -1.667967   1.000000
  862       -1.655609   1.000000
  863       -1.655242   1.000000
  864       -1.654816   1.000000
  865       -1.653096   1.000000
  866       -1.653062   1.000000
  867       -1.653008   1.000000
  868       -1.652838   1.000000
  869       -1.652533   1.000000
  870       -1.642720   1.000000
  871       -1.611838   1.000000
  872       -1.609225   1.000000
  873       -1.608360   1.000000
  874       -1.605783   1.000000
  875       -1.605665   1.000000
  876       -1.605325   1.000000
  877       -1.604708   1.000000
  878       -1.604269   1.000000
  879       -1.604214   1.000000
  880       -1.603768   1.000000
  881       -1.603056   1.000000
  882       -1.602899   1.000000
  883       -1.591885   1.000000
  884       -1.591111   1.000000
  885       -1.589059   1.000000
  886       -1.588664   1.000000
  887       -1.588417   1.000000
  888       -1.567532   1.000000
  889       -1.558511   1.000000
  890       -1.558003   1.000000
  891       -1.555302   1.000000
  892       -1.555166   1.000000
  893       -1.555099   1.000000
  894       -1.554972   1.000000
  895       -1.517047   1.000000
  896       -1.489184   1.000000
  897       -1.487822   1.000000
  898       -1.486716   1.000000
  899       -1.486283   1.000000
  900       -1.485721   1.000000
  901       -1.485474   1.000000