       N       E                     dE             d eps       ncg     rms          rms(c)
DAV:   1     0.182382428772E+05    0.18238E+05   -0.91732E+05 12216   0.112E+03
DAV:   2    -0.160360497740E+03   -0.18399E+05   -0.17411E+05 12828   0.400E+02
DAV:   3    -0.140502603134E+04   -0.12447E+04   -0.10286E+04 14184   0.103E+02
DAV:   4    -0.157354447918E+04   -0.16852E+03   -0.14919E+03 21852   0.379E+01
DAV:   5    -0.157996268903E+04   -0.64182E+01   -0.60785E+01 20472   0.717E+00    0.146E+02
DAV:   6    -0.184129557001E+04   -0.26133E+03   -0.31950E+03 13512   0.141E+02    0.245E+02
DAV:   7    -0.192193041460E+04   -0.80635E+02   -0.13280E+03 13152   0.152E+02    0.200E+02
DAV:   8    -0.173416337183E+04    0.18777E+03   -0.53162E+02 14808   0.895E+01    0.198E+02
DAV:   9    -0.185453422067E+04   -0.12037E+03   -0.17473E+02 12876   0.112E+02    0.211E+02
DAV:  10    -0.149484087163E+04    0.35969E+03   -0.31658E+02 14520   0.777E+01    0.186E+02
DAV:  11    -0.152636080229E+04   -0.31520E+02   -0.26986E+02 12792   0.736E+01    0.169E+02
DAV:  12    -0.151995166641E+04    0.64091E+01   -0.24525E+02 12816   0.726E+01    0.168E+02
DAV:  13    -0.138056368780E+04    0.13939E+03   -0.13344E+02 12792   0.520E+01    0.113E+02
DAV:  14    -0.137602359892E+04    0.45401E+01   -0.60289E+01 13104   0.408E+01    0.129E+02
DAV:  15    -0.133921856593E+04    0.36805E+02   -0.45005E+01 13032   0.337E+01    0.812E+01
DAV:  16    -0.136134213401E+04   -0.22124E+02   -0.32163E+01 13632   0.320E+01    0.126E+02
DAV:  17    -0.133403573145E+04    0.27306E+02   -0.31497E+01 13176   0.259E+01    0.877E+01
DAV:  18    -0.131963333944E+04    0.14402E+02   -0.21242E+01 13068   0.215E+01    0.617E+01
DAV:  19    -0.131565029345E+04    0.39830E+01   -0.12036E+01 13056   0.155E+01    0.521E+01
DAV:  20    -0.131339412814E+04    0.22562E+01   -0.71036E+00 13056   0.121E+01    0.529E+01
DAV:  21    -0.131381363900E+04   -0.41951E+00   -0.52096E+00 13128   0.104E+01    0.582E+01
DAV:  22    -0.131132341406E+04    0.24902E+01   -0.45711E+00 13140   0.969E+00    0.485E+01
DAV:  23    -0.130877495081E+04    0.25485E+01   -0.34829E+00 13128   0.842E+00    0.357E+01
DAV:  24    -0.130782710791E+04    0.94784E+00   -0.25337E+00 13224   0.740E+00    0.315E+01
DAV:  25    -0.131094240607E+04   -0.31153E+01   -0.31005E+00 13236   0.899E+00    0.479E+01
DAV:  26    -0.131129683563E+04   -0.35443E+00   -0.33197E+00 13224   0.851E+00    0.502E+01
DAV:  27    -0.131113075211E+04    0.16608E+00   -0.25819E+00 13260   0.756E+00    0.494E+01
DAV:  28    -0.130973816554E+04    0.13926E+01   -0.27278E+00 13224   0.762E+00    0.447E+01
DAV:  29    -0.130715745707E+04    0.25807E+01   -0.23732E+00 13248   0.647E+00    0.295E+01
DAV:  30    -0.130603119634E+04    0.11263E+01   -0.15348E+00 13260   0.579E+00    0.230E+01
DAV:  31    -0.130586244886E+04    0.16875E+00   -0.14455E+00 13236   0.538E+00    0.214E+01
DAV:  32    -0.130581147024E+04    0.50979E-01   -0.15043E+00 13272   0.562E+00    0.245E+01
DAV:  33    -0.130561401216E+04    0.19746E+00   -0.14588E+00 13236   0.542E+00    0.240E+01
DAV:  34    -0.130570271783E+04   -0.88706E-01   -0.13844E+00 13248   0.468E+00    0.238E+01
DAV:  35    -0.130545334443E+04    0.24937E+00   -0.10385E+00 13248   0.444E+00    0.212E+01
DAV:  36    -0.130513258550E+04    0.32076E+00   -0.73592E-01 13392   0.374E+00    0.192E+01
DAV:  37    -0.130491727392E+04    0.21531E+00   -0.44903E-01 13212   0.283E+00    0.170E+01
DAV:  38    -0.130483955792E+04    0.77716E-01   -0.30568E-01 13260   0.241E+00    0.151E+01
DAV:  39    -0.130472999943E+04    0.10956E+00   -0.39420E-01 13224   0.258E+00    0.131E+01
DAV:  40    -0.130454202546E+04    0.18797E+00   -0.32780E-01 13260   0.216E+00    0.108E+01
DAV:  41    -0.130446520535E+04    0.76820E-01   -0.11608E-01 13248   0.142E+00    0.968E+00
DAV:  42    -0.130439641406E+04    0.68791E-01   -0.69991E-02 13212   0.102E+00    0.798E+00
DAV:  43    -0.130432110090E+04    0.75313E-01   -0.56851E-02 13212   0.104E+00    0.537E+00
DAV:  44    -0.130431576299E+04    0.53379E-02   -0.39568E-02 13224   0.878E-01    0.515E+00
DAV:  45    -0.130436559368E+04   -0.49831E-01   -0.64410E-02 13284   0.107E+00    0.687E+00
DAV:  46    -0.130431760246E+04    0.47991E-01   -0.83230E-02 13284   0.117E+00    0.533E+00
DAV:  47    -0.130427314046E+04    0.44462E-01   -0.36092E-02 13224   0.784E-01    0.359E+00
DAV:  48    -0.130426911439E+04    0.40261E-02   -0.19863E-02 13236   0.513E-01    0.348E+00
DAV:  49    -0.130427643971E+04   -0.73253E-02   -0.28282E-02 13200   0.656E-01    0.366E+00
DAV:  50    -0.130425518031E+04    0.21259E-01   -0.25285E-02 13176   0.655E-01    0.229E+00
DAV:  51    -0.130425573098E+04   -0.55067E-03   -0.23759E-02 13536   0.666E-01    0.212E+00
DAV:  52    -0.130425099581E+04    0.47352E-02   -0.16110E-02 13296   0.510E-01    0.175E+00
DAV:  53    -0.130424867195E+04    0.23239E-02   -0.11282E-02 13152   0.444E-01    0.136E+00
DAV:  54    -0.130424615854E+04    0.25134E-02   -0.69407E-03 13152   0.343E-01    0.881E-01
DAV:  55    -0.130425033083E+04   -0.41723E-02   -0.62517E-03 13728   0.335E-01    0.127E+00
DAV:  56    -0.130425184573E+04   -0.15149E-02   -0.72783E-03 13512   0.386E-01    0.137E+00
DAV:  57    -0.130424878847E+04    0.30573E-02   -0.44942E-03 13392   0.298E-01    0.758E-01
DAV:  58    -0.130424897941E+04   -0.19094E-03   -0.19722E-03 13224   0.186E-01    0.572E-01
DAV:  59    -0.130424996005E+04   -0.98064E-03   -0.16353E-03 13200   0.174E-01    0.690E-01
DAV:  60    -0.130425025968E+04   -0.29963E-03   -0.11595E-03 13200   0.144E-01
   1 F= -.13042503E+04 E0= -.13035531E+04  d E =-.139434E+01
