 254 254   0   0
  0.2268316E+02  0.1514622E-08  0.1514622E-08  0.2900000E-08  0.5000000E-15
  1.000000000000000E-004
  CAR 
 NiAl                                    
      5.97179537    -22.66841558  301     -0.58311191      1.00000000
    -22.668  0.0000E+00  0.0000E+00
    -22.573  0.0000E+00  0.0000E+00
    -22.477  0.0000E+00  0.0000E+00
    -22.382  0.0000E+00  0.0000E+00
    -22.287  0.0000E+00  0.0000E+00
    -22.191  0.0000E+00  0.0000E+00
    -22.096  0.0000E+00  0.0000E+00
    -22.000  0.0000E+00  0.0000E+00
    -21.905  0.0000E+00  0.0000E+00
    -21.809  0.0000E+00  0.0000E+00
    -21.714  0.0000E+00  0.0000E+00
    -21.618  0.1126E-10  0.1075E-11
    -21.523  0.1032E-03  0.9855E-05
    -21.427  0.8946E+00  0.8541E-01
    -21.332  0.1663E+02  0.1673E+01
    -21.236  0.3423E+01  0.2000E+01
    -21.141  0.2440E-02  0.2000E+01
    -21.045  0.1848E-08  0.2000E+01
    -20.950  0.0000E+00  0.2000E+01
    -20.855  0.0000E+00  0.2000E+01
    -20.759  0.0000E+00  0.2000E+01
    -20.664  0.0000E+00  0.2000E+01
    -20.568  0.0000E+00  0.2000E+01
    -20.473  0.0000E+00  0.2000E+01
    -20.377  0.0000E+00  0.2000E+01
    -20.282  0.0000E+00  0.2000E+01
    -20.186  0.0000E+00  0.2000E+01
    -20.091  0.0000E+00  0.2000E+01
    -19.995  0.0000E+00  0.2000E+01
    -19.900  0.0000E+00  0.2000E+01
    -19.804  0.0000E+00  0.2000E+01
    -19.709  0.0000E+00  0.2000E+01
    -19.613  0.0000E+00  0.2000E+01
    -19.518  0.0000E+00  0.2000E+01
    -19.423  0.0000E+00  0.2000E+01
    -19.327  0.0000E+00  0.2000E+01
    -19.232  0.0000E+00  0.2000E+01
    -19.136  0.0000E+00  0.2000E+01
    -19.041  0.0000E+00  0.2000E+01
    -18.945  0.0000E+00  0.2000E+01
    -18.850  0.0000E+00  0.2000E+01
    -18.754  0.0000E+00  0.2000E+01
    -18.659  0.0000E+00  0.2000E+01
    -18.563  0.0000E+00  0.2000E+01
    -18.468  0.0000E+00  0.2000E+01
    -18.372  0.0000E+00  0.2000E+01
    -18.277  0.0000E+00  0.2000E+01
    -18.181  0.0000E+00  0.2000E+01
    -18.086  0.0000E+00  0.2000E+01
    -17.991  0.0000E+00  0.2000E+01
    -17.895  0.0000E+00  0.2000E+01
    -17.800  0.0000E+00  0.2000E+01
    -17.704  0.0000E+00  0.2000E+01
    -17.609  0.0000E+00  0.2000E+01
    -17.513  0.0000E+00  0.2000E+01
    -17.418  0.0000E+00  0.2000E+01
    -17.322  0.0000E+00  0.2000E+01
    -17.227  0.0000E+00  0.2000E+01
    -17.131  0.0000E+00  0.2000E+01
    -17.036  0.0000E+00  0.2000E+01
    -16.940  0.0000E+00  0.2000E+01
    -16.845  0.0000E+00  0.2000E+01
    -16.749  0.0000E+00  0.2000E+01
    -16.654  0.0000E+00  0.2000E+01
    -16.559  0.0000E+00  0.2000E+01
    -16.463  0.0000E+00  0.2000E+01
    -16.368  0.0000E+00  0.2000E+01
    -16.272  0.0000E+00  0.2000E+01
    -16.177  0.0000E+00  0.2000E+01
    -16.081  0.0000E+00  0.2000E+01
    -15.986  0.0000E+00  0.2000E+01
    -15.890  0.0000E+00  0.2000E+01
    -15.795  0.0000E+00  0.2000E+01
    -15.699  0.0000E+00  0.2000E+01
    -15.604  0.0000E+00  0.2000E+01
    -15.508  0.0000E+00  0.2000E+01
    -15.413  0.0000E+00  0.2000E+01
    -15.317  0.0000E+00  0.2000E+01
    -15.222  0.0000E+00  0.2000E+01
    -15.126  0.0000E+00  0.2000E+01
    -15.031  0.0000E+00  0.2000E+01
    -14.936  0.0000E+00  0.2000E+01
    -14.840  0.0000E+00  0.2000E+01
    -14.745  0.0000E+00  0.2000E+01
    -14.649  0.0000E+00  0.2000E+01
    -14.554  0.0000E+00  0.2000E+01
    -14.458  0.0000E+00  0.2000E+01
    -14.363  0.0000E+00  0.2000E+01
    -14.267  0.0000E+00  0.2000E+01
    -14.172  0.0000E+00  0.2000E+01
    -14.076  0.0000E+00  0.2000E+01
    -13.981  0.0000E+00  0.2000E+01
    -13.885  0.0000E+00  0.2000E+01
    -13.790  0.0000E+00  0.2000E+01
    -13.694  0.0000E+00  0.2000E+01
    -13.599  0.0000E+00  0.2000E+01
    -13.504  0.0000E+00  0.2000E+01
    -13.408  0.0000E+00  0.2000E+01
    -13.313  0.0000E+00  0.2000E+01
    -13.217  0.0000E+00  0.2000E+01
    -13.122  0.0000E+00  0.2000E+01
    -13.026  0.0000E+00  0.2000E+01
    -12.931  0.0000E+00  0.2000E+01
    -12.835  0.0000E+00  0.2000E+01
    -12.740  0.0000E+00  0.2000E+01
    -12.644  0.0000E+00  0.2000E+01
    -12.549  0.0000E+00  0.2000E+01
    -12.453  0.0000E+00  0.2000E+01
    -12.358  0.0000E+00  0.2000E+01
    -12.262  0.0000E+00  0.2000E+01
    -12.167  0.0000E+00  0.2000E+01
    -12.072  0.0000E+00  0.2000E+01
    -11.976  0.0000E+00  0.2000E+01
    -11.881  0.0000E+00  0.2000E+01
    -11.785  0.0000E+00  0.2000E+01
    -11.690  0.0000E+00  0.2000E+01
    -11.594  0.0000E+00  0.2000E+01
    -11.499  0.0000E+00  0.2000E+01
    -11.403  0.0000E+00  0.2000E+01
    -11.308  0.0000E+00  0.2000E+01
    -11.212  0.0000E+00  0.2000E+01
    -11.117  0.0000E+00  0.2000E+01
    -11.021  0.0000E+00  0.2000E+01
    -10.926  0.0000E+00  0.2000E+01
    -10.830  0.0000E+00  0.2000E+01
    -10.735  0.0000E+00  0.2000E+01
    -10.640  0.0000E+00  0.2000E+01
    -10.544  0.6425E-09  0.2000E+01
    -10.449  0.1288E-02  0.2000E+01
    -10.353  0.2662E+01  0.2254E+01
    -10.258  0.1704E+02  0.3881E+01
    -10.162  0.1243E+01  0.4000E+01
    -10.067  0.2137E-03  0.4000E+01
     -9.971  0.3547E-10  0.4000E+01
     -9.876  0.0000E+00  0.4000E+01
     -9.780  0.0000E+00  0.4000E+01
     -9.685  0.0000E+00  0.4000E+01
     -9.589  0.0000E+00  0.4000E+01
     -9.494  0.0000E+00  0.4000E+01
     -9.398  0.0000E+00  0.4000E+01
     -9.303  0.8810E-10  0.4000E+01
     -9.208  0.2230E-03  0.4000E+01
     -9.112  0.5732E+00  0.4055E+01
     -9.017  0.4294E+01  0.4465E+01
     -8.921  0.6408E+00  0.4526E+01
     -8.826  0.1937E+02  0.6375E+01
     -8.730  0.1174E+02  0.7496E+01
     -8.635  0.5795E-01  0.7502E+01
     -8.539  0.2599E+01  0.7750E+01
     -8.444  0.3949E+01  0.8127E+01
     -8.348  0.2985E+02  0.1098E+02
     -8.253  0.3039E+02  0.1388E+02
     -8.157  0.1857E+02  0.1565E+02
     -8.062  0.1407E+02  0.1699E+02
     -7.966  0.1768E+00  0.1701E+02
     -7.871  0.1536E+02  0.1848E+02
     -7.776  0.1606E+02  0.2001E+02
     -7.680  0.1210E+02  0.2116E+02
     -7.585  0.2586E+02  0.2363E+02
     -7.489  0.6635E+02  0.2997E+02
     -7.394  0.2644E+02  0.3249E+02
     -7.298  0.7854E-01  0.3250E+02
     -7.203  0.2673E+00  0.3253E+02
     -7.107  0.2614E+02  0.3502E+02
     -7.012  0.8356E+02  0.4300E+02
     -6.916  0.1910E+02  0.4482E+02
     -6.821  0.2572E+02  0.4728E+02
     -6.725  0.4480E+01  0.4770E+02
     -6.630  0.2886E+02  0.5046E+02
     -6.534  0.2162E+02  0.5252E+02
     -6.439  0.4500E+02  0.5682E+02
     -6.343  0.5501E+02  0.6207E+02
     -6.248  0.6843E+02  0.6860E+02
     -6.153  0.1275E+02  0.6982E+02
     -6.057  0.5388E+02  0.7496E+02
     -5.962  0.7269E+02  0.8190E+02
     -5.866  0.1079E+03  0.9220E+02
     -5.771  0.1869E+02  0.9399E+02
     -5.675  0.2498E+01  0.9423E+02
     -5.580  0.1869E+02  0.9601E+02
     -5.484  0.6065E+02  0.1018E+03
     -5.389  0.1311E+03  0.1143E+03
     -5.293  0.1001E+03  0.1239E+03
     -5.198  0.5768E+02  0.1294E+03
     -5.102  0.1010E+03  0.1390E+03
     -5.007  0.1091E+03  0.1494E+03
     -4.911  0.8019E+02  0.1571E+03
     -4.816  0.4572E+02  0.1615E+03
     -4.721  0.2406E+03  0.1844E+03
     -4.625  0.1909E+03  0.2027E+03
     -4.530  0.2183E+03  0.2235E+03
     -4.434  0.2253E+03  0.2450E+03
     -4.339  0.3106E+03  0.2747E+03
     -4.243  0.2408E+03  0.2977E+03
     -4.148  0.2897E+03  0.3253E+03
     -4.052  0.2445E+03  0.3487E+03
     -3.957  0.4412E+03  0.3908E+03
     -3.861  0.5215E+03  0.4406E+03
     -3.766  0.4505E+03  0.4836E+03
     -3.670  0.4716E+03  0.5286E+03
     -3.575  0.4560E+03  0.5721E+03
     -3.479  0.3785E+03  0.6082E+03
     -3.384  0.3719E+03  0.6438E+03
     -3.289  0.3415E+03  0.6764E+03
     -3.193  0.4937E+03  0.7235E+03
     -3.098  0.5353E+03  0.7746E+03
     -3.002  0.3380E+03  0.8069E+03
     -2.907  0.5544E+03  0.8598E+03
     -2.811  0.5548E+03  0.9128E+03
     -2.716  0.4844E+03  0.9590E+03
     -2.620  0.5506E+03  0.1012E+04
     -2.525  0.6249E+03  0.1071E+04
     -2.429  0.6955E+03  0.1138E+04
     -2.334  0.7957E+03  0.1214E+04
     -2.238  0.9433E+03  0.1304E+04
     -2.143  0.7796E+03  0.1378E+04
     -2.047  0.8848E+03  0.1463E+04
     -1.952  0.8353E+03  0.1542E+04
     -1.857  0.5538E+03  0.1595E+04
     -1.761  0.6167E+03  0.1654E+04
     -1.666  0.5465E+03  0.1706E+04
     -1.570  0.5449E+03  0.1758E+04
     -1.475  0.6692E+03  0.1822E+04
     -1.379  0.8152E+03  0.1900E+04
     -1.284  0.6188E+03  0.1959E+04
     -1.188  0.4747E+03  0.2004E+04
     -1.093  0.7938E+03  0.2080E+04
     -0.997  0.7783E+03  0.2154E+04
     -0.902  0.8385E+03  0.2234E+04
     -0.806  0.6229E+03  0.2294E+04
     -0.711  0.8679E+03  0.2377E+04
     -0.615  0.1189E+04  0.2490E+04
     -0.520  0.1005E+04  0.2586E+04
     -0.425  0.5449E+03  0.2638E+04
     -0.329  0.2555E+03  0.2663E+04
     -0.234  0.1210E+03  0.2674E+04
     -0.138  0.1427E+03  0.2688E+04
     -0.043  0.1629E+03  0.2703E+04
      0.053  0.1224E+03  0.2715E+04
      0.148  0.2991E+02  0.2718E+04
      0.244  0.6431E+02  0.2724E+04
      0.339  0.1319E+02  0.2725E+04
      0.435  0.1324E+03  0.2738E+04
      0.530  0.8230E+02  0.2746E+04
      0.626  0.1084E+03  0.2756E+04
      0.721  0.6509E+02  0.2762E+04
      0.817  0.1035E+03  0.2772E+04
      0.912  0.1374E+03  0.2785E+04
      1.007  0.1465E+03  0.2799E+04
      1.103  0.2993E+02  0.2802E+04
      1.198  0.2658E+02  0.2805E+04
      1.294  0.9835E+02  0.2814E+04
      1.389  0.9343E+02  0.2823E+04
      1.485  0.2846E+02  0.2826E+04
      1.580  0.6946E+02  0.2832E+04
      1.676  0.1042E+03  0.2842E+04
      1.771  0.8841E+02  0.2851E+04
      1.867  0.7229E+02  0.2858E+04
      1.962  0.1120E+03  0.2868E+04
      2.058  0.5518E+02  0.2874E+04
      2.153  0.4533E+02  0.2878E+04
      2.249  0.1005E+03  0.2888E+04
      2.344  0.1197E+03  0.2899E+04
      2.440  0.6696E+02  0.2905E+04
      2.535  0.2303E+02  0.2908E+04
      2.630  0.7396E+02  0.2915E+04
      2.726  0.2962E+02  0.2917E+04
      2.821  0.6193E+01  0.2918E+04
      2.917  0.5372E+02  0.2923E+04
      3.012  0.9874E+02  0.2933E+04
      3.108  0.2232E+03  0.2954E+04
      3.203  0.1115E+03  0.2965E+04
      3.299  0.2294E+02  0.2967E+04
      3.394  0.2018E+02  0.2969E+04
      3.490  0.9582E+02  0.2978E+04
      3.585  0.5927E+02  0.2983E+04
      3.681  0.2665E+02  0.2986E+04
      3.776  0.9074E+02  0.2995E+04
      3.872  0.1070E+02  0.2996E+04
      3.967  0.2846E+02  0.2998E+04
      4.062  0.8187E+01  0.2999E+04
      4.158  0.7287E+02  0.3006E+04
      4.253  0.5485E+02  0.3011E+04
      4.349  0.3152E+02  0.3014E+04
      4.444  0.9945E+02  0.3024E+04
      4.540  0.6486E+02  0.3030E+04
      4.635  0.3334E+02  0.3033E+04
      4.731  0.2801E+02  0.3036E+04
      4.826  0.5617E+00  0.3036E+04
      4.922  0.5137E-04  0.3036E+04
      5.017  0.5383E-11  0.3036E+04
      5.113  0.0000E+00  0.3036E+04
      5.208  0.0000E+00  0.3036E+04
      5.304  0.0000E+00  0.3036E+04
      5.399  0.0000E+00  0.3036E+04
      5.494  0.0000E+00  0.3036E+04
      5.590  0.0000E+00  0.3036E+04
      5.685  0.0000E+00  0.3036E+04
      5.781  0.0000E+00  0.3036E+04
      5.876  0.0000E+00  0.3036E+04
      5.972  0.0000E+00  0.3036E+04
