  254  254    1    1
  0.2268316E+02  0.1514622E-08  0.1514622E-08  0.2900000E-08  0.5000000E-15
  1.000000000000000E-004
  CAR 
 NiAl                                    
   2530      4   1518
 
  0.0000000E+00  0.0000000E+00  0.0000000E+00  0.2500000E+00
    1      -21.366509   1.000000
    2      -10.312699   1.000000
    3       -9.068590   1.000000
    4       -8.539207   1.000000
    5       -8.162472   1.000000
    6       -8.161849   1.000000
    7       -8.161743   1.000000
    8       -8.161714   1.000000
    9       -8.161633   1.000000
   10       -8.161478   1.000000
   11       -7.713513   1.000000
   12       -7.658447   1.000000
   13       -7.655982   1.000000
   14       -7.655791   1.000000
   15       -7.655757   1.000000
   16       -7.655678   1.000000
   17       -7.655613   1.000000
   18       -6.881346   1.000000
   19       -6.870859   1.000000
   20       -6.870299   1.000000
   21       -6.870250   1.000000
   22       -6.870222   1.000000
   23       -6.870106   1.000000
   24       -6.692615   1.000000
   25       -6.527008   1.000000
   26       -6.526340   1.000000
   27       -6.526253   1.000000
   28       -6.526188   1.000000
   29       -6.526064   1.000000
   30       -6.526050   1.000000
   31       -6.133757   1.000000
   32       -6.106965   1.000000
   33       -6.105835   1.000000
   34       -6.105778   1.000000
   35       -6.105667   1.000000
   36       -6.105641   1.000000
   37       -6.069913   1.000000
   38       -5.925434   1.000000
   39       -5.905148   1.000000
   40       -5.905120   1.000000
   41       -5.905098   1.000000
   42       -5.905079   1.000000
   43       -5.905045   1.000000
   44       -5.905029   1.000000
   45       -5.904541   1.000000
   46       -5.904448   1.000000
   47       -5.904406   1.000000
   48       -5.904288   1.000000
   49       -5.870151   1.000000
   50       -5.841916   1.000000
   51       -5.669917   1.000000
   52       -5.573958   1.000000
   53       -5.573453   1.000000
   54       -5.573400   1.000000
   55       -5.573334   1.000000
   56       -5.572907   1.000000
   57       -5.572260   1.000000
   58       -5.519258   1.000000
   59       -5.478807   1.000000
   60       -5.478638   1.000000
   61       -5.478565   1.000000
   62       -5.478120   1.000000
   63       -5.477613   1.000000
   64       -5.468529   1.000000
   65       -5.125821   1.000000
   66       -5.125760   1.000000
   67       -5.125731   1.000000
   68       -5.125688   1.000000
   69       -5.125431   1.000000
   70       -5.124611   1.000000
   71       -5.039603   1.000000
   72       -4.968592   1.000000
   73       -4.968420   1.000000
   74       -4.968387   1.000000
   75       -4.968239   1.000000
   76       -4.967898   1.000000
   77       -4.950188   1.000000
   78       -4.869498   1.000000
   79       -4.796199   1.000000
   80       -4.796184   1.000000
   81       -4.796132   1.000000
   82       -4.756821   1.000000
   83       -4.756611   1.000000
   84       -4.756515   1.000000
   85       -4.756475   1.000000
   86       -4.756173   1.000000
   87       -4.752609   1.000000
   88       -4.673179   1.000000
   89       -4.673069   1.000000
   90       -4.673062   1.000000
   91       -4.673003   1.000000
   92       -4.672854   1.000000
   93       -4.671883   1.000000
   94       -4.655267   1.000000
   95       -4.655253   1.000000
   96       -4.655156   1.000000
   97       -4.562592   1.000000
   98       -4.562486   1.000000
   99       -4.562370   1.000000
  100       -4.562315   1.000000
  101       -4.562304   1.000000
  102       -4.562272   1.000000
  103       -4.562192   1.000000
  104       -4.562189   1.000000
  105       -4.562160   1.000000
  106       -4.562130   1.000000
  107       -4.562047   1.000000
  108       -4.561968   1.000000
  109       -4.520127   1.000000
  110       -4.520105   1.000000
  111       -4.520020   1.000000
  112       -4.449768   1.000000
  113       -4.449746   1.000000
  114       -4.449649   1.000000
  115       -4.414785   1.000000
  116       -4.414542   1.000000
  117       -4.414458   1.000000
  118       -4.414394   1.000000
  119       -4.414327   1.000000
  120       -4.406790   1.000000
  121       -4.358780   1.000000
  122       -4.358766   1.000000
  123       -4.358760   1.000000
  124       -4.358706   1.000000
  125       -4.358655   1.000000
  126       -4.358639   1.000000
  127       -4.358631   1.000000
  128       -4.358583   1.000000
  129       -4.358563   1.000000
  130       -4.358517   1.000000
  131       -4.358457   1.000000
  132       -4.358437   1.000000
  133       -4.348086   1.000000
  134       -4.348043   1.000000
  135       -4.347939   1.000000
  136       -4.347872   1.000000
  137       -4.347819   1.000000
  138       -4.347797   1.000000
  139       -4.347788   1.000000
  140       -4.347726   1.000000
  141       -4.347688   1.000000
  142       -4.347633   1.000000
  143       -4.347569   1.000000
  144       -4.347564   1.000000
  145       -4.301568   1.000000
  146       -4.301534   1.000000
  147       -4.301407   1.000000
  148       -4.301385   1.000000
  149       -4.301200   1.000000
  150       -4.298594   1.000000
  151       -4.265511   1.000000
  152       -4.265440   1.000000
  153       -4.265324   1.000000
  154       -4.265312   1.000000
  155       -4.265220   1.000000
  156       -4.264164   1.000000
  157       -4.244697   1.000000
  158       -4.244657   1.000000
  159       -4.244514   1.000000
  160       -4.206725   1.000000
  161       -4.206691   1.000000
  162       -4.206644   1.000000
  163       -4.206560   1.000000
  164       -4.206531   1.000000
  165       -4.206513   1.000000
  166       -4.206493   1.000000
  167       -4.206481   1.000000
  168       -4.206420   1.000000
  169       -4.206351   1.000000
  170       -4.206334   1.000000
  171       -4.206293   1.000000
  172       -4.144168   1.000000
  173       -4.144153   1.000000
  174       -4.143979   1.000000
  175       -4.115439   1.000000
  176       -4.115182   1.000000
  177       -4.115125   1.000000
  178       -4.115066   1.000000
  179       -4.115010   1.000000
  180       -4.112993   1.000000
  181       -4.036455   1.000000
  182       -4.036270   1.000000
  183       -4.036184   1.000000
  184       -4.008997   1.000000
  185       -4.008914   1.000000
  186       -4.008817   1.000000
  187       -4.008715   1.000000
  188       -4.008687   1.000000
  189       -4.008630   1.000000
  190       -4.008600   1.000000
  191       -4.008549   1.000000
  192       -4.008484   1.000000
  193       -4.008480   1.000000
  194       -4.008439   1.000000
  195       -4.008351   1.000000
  196       -3.975030   1.000000
  197       -3.974987   1.000000
  198       -3.974850   1.000000
  199       -3.911047   1.000000
  200       -3.910862   1.000000
  201       -3.910768   1.000000
  202       -3.909836   1.000000
  203       -3.909787   1.000000
  204       -3.909718   1.000000
  205       -3.909686   1.000000
  206       -3.909596   1.000000
  207       -3.909071   1.000000
  208       -3.864748   1.000000
  209       -3.864651   1.000000
  210       -3.864308   1.000000
  211       -3.864302   1.000000
  212       -3.864275   1.000000
  213       -3.864230   1.000000
  214       -3.864147   1.000000
  215       -3.864125   1.000000
  216       -3.864044   1.000000
  217       -3.863989   1.000000
  218       -3.863971   1.000000
  219       -3.863874   1.000000
  220       -3.852792   1.000000
  221       -3.852752   1.000000
  222       -3.852653   1.000000
  223       -3.852627   1.000000
  224       -3.852556   1.000000
  225       -3.852333   1.000000
  226       -3.769941   1.000000
  227       -3.769699   1.000000
  228       -3.769587   1.000000
  229       -3.769470   1.000000
  230       -3.769441   1.000000
  231       -3.769393   1.000000
  232       -3.769345   1.000000
  233       -3.769311   1.000000
  234       -3.769291   1.000000
  235       -3.769259   1.000000
  236       -3.769194   1.000000
  237       -3.769051   1.000000
  238       -3.738201   1.000000
  239       -3.738021   1.000000
  240       -3.737943   1.000000
  241       -3.737886   1.000000
  242       -3.737833   1.000000
  243       -3.737208   1.000000
  244       -3.722352   1.000000
  245       -3.722311   1.000000
  246       -3.722035   1.000000
  247       -3.722014   1.000000
  248       -3.718386   1.000000
  249       -3.718342   1.000000
  250       -3.718267   1.000000
  251       -3.718262   1.000000
  252       -3.718193   1.000000
  253       -3.717955   1.000000
  254       -3.712711   1.000000
  255       -3.712674   1.000000
  256       -3.672421   1.000000
  257       -3.672332   1.000000
  258       -3.672129   1.000000
  259       -3.672100   1.000000
  260       -3.672058   1.000000
  261       -3.672037   1.000000
  262       -3.671923   1.000000
  263       -3.671909   1.000000
  264       -3.671901   1.000000
  265       -3.671869   1.000000
  266       -3.671831   1.000000
  267       -3.671763   1.000000
  268       -3.661536   1.000000
  269       -3.661528   1.000000
  270       -3.661400   1.000000
  271       -3.612927   1.000000
  272       -3.612920   1.000000
  273       -3.612731   1.000000
  274       -3.612697   1.000000
  275       -3.612624   1.000000
  276       -3.612445   1.000000
  277       -3.606088   1.000000
  278       -3.606061   1.000000
  279       -3.605539   1.000000
  280       -3.605458   1.000000
  281       -3.586320   1.000000
  282       -3.586305   1.000000
  283       -3.570354   1.000000
  284       -3.570272   1.000000
  285       -3.570120   1.000000
  286       -3.569995   1.000000
  287       -3.569972   1.000000
  288       -3.569815   1.000000
  289       -3.559313   1.000000
  290       -3.559311   1.000000
  291       -3.558712   1.000000
  292       -3.558641   1.000000
  293       -3.554375   1.000000
  294       -3.554363   1.000000
  295       -3.488453   1.000000
  296       -3.488419   1.000000
  297       -3.487463   1.000000
  298       -3.487307   1.000000
  299       -3.482882   1.000000
  300       -3.482751   1.000000
  301       -3.482697   1.000000
  302       -3.482648   1.000000
  303       -3.482557   1.000000
  304       -3.482444   1.000000
  305       -3.482435   1.000000
  306       -3.482417   1.000000
  307       -3.482355   1.000000
  308       -3.482297   1.000000
  309       -3.482266   1.000000
  310       -3.482170   1.000000
  311       -3.436191   1.000000
  312       -3.436156   1.000000
  313       -3.436018   1.000000
  314       -3.435967   1.000000
  315       -3.435922   1.000000
  316       -3.435859   1.000000
  317       -3.400576   1.000000
  318       -3.400515   1.000000
  319       -3.400400   1.000000
  320       -3.400288   1.000000
  321       -3.400211   1.000000
  322       -3.400170   1.000000
  323       -3.397213   1.000000
  324       -3.397021   1.000000
  325       -3.396869   1.000000
  326       -3.396552   1.000000
  327       -3.396485   1.000000
  328       -3.396449   1.000000
  329       -3.396398   1.000000
  330       -3.396357   1.000000
  331       -3.396345   1.000000
  332       -3.396308   1.000000
  333       -3.396281   1.000000
  334       -3.396195   1.000000
  335       -3.380298   1.000000
  336       -3.380248   1.000000
  337       -3.380191   1.000000
  338       -3.380101   1.000000
  339       -3.379968   1.000000
  340       -3.379582   1.000000
  341       -3.285496   1.000000
  342       -3.285456   1.000000
  343       -3.285192   1.000000
  344       -3.260349   1.000000
  345       -3.260247   1.000000
  346       -3.260142   1.000000
  347       -3.260020   1.000000
  348       -3.259935   1.000000
  349       -3.259908   1.000000
  350       -3.220619   1.000000
  351       -3.220570   1.000000
  352       -3.207120   1.000000
  353       -3.206849   1.000000
  354       -3.206759   1.000000
  355       -3.206545   1.000000
  356       -3.206428   1.000000
  357       -3.206383   1.000000
  358       -3.206366   1.000000
  359       -3.206302   1.000000
  360       -3.206296   1.000000
  361       -3.206239   1.000000
  362       -3.206221   1.000000
  363       -3.206013   1.000000
  364       -3.180058   1.000000
  365       -3.180006   1.000000
  366       -3.142312   1.000000
  367       -3.142141   1.000000
  368       -3.142079   1.000000
  369       -3.142027   1.000000
  370       -3.141944   1.000000
  371       -3.141338   1.000000
  372       -3.136865   1.000000
  373       -3.136822   1.000000
  374       -3.136813   1.000000
  375       -3.136744   1.000000
  376       -3.136642   1.000000
  377       -3.136573   1.000000
  378       -3.132991   1.000000
  379       -3.132857   1.000000
  380       -3.132785   1.000000
  381       -3.132692   1.000000
  382       -3.132626   1.000000
  383       -3.132582   1.000000
  384       -3.066503   1.000000
  385       -3.066364   1.000000
  386       -3.066089   1.000000
  387       -3.066058   1.000000
  388       -3.066016   1.000000
  389       -3.065982   1.000000
  390       -3.065950   1.000000
  391       -3.065921   1.000000
  392       -3.065902   1.000000
  393       -3.065891   1.000000
  394       -3.065852   1.000000
  395       -3.065682   1.000000
  396       -3.029392   1.000000
  397       -3.029281   1.000000
  398       -3.029181   1.000000
  399       -3.029096   1.000000
  400       -3.029044   1.000000
  401       -3.029001   1.000000
  402       -2.957394   1.000000
  403       -2.957378   1.000000
  404       -2.957286   1.000000
  405       -2.957216   1.000000
  406       -2.957172   1.000000
  407       -2.956987   1.000000
  408       -2.946124   1.000000
  409       -2.945631   1.000000
  410       -2.945525   1.000000
  411       -2.945440   1.000000
  412       -2.945397   1.000000
  413       -2.943797   1.000000
  414       -2.929743   1.000000
  415       -2.929702   1.000000
  416       -2.929686   1.000000
  417       -2.929613   1.000000
  418       -2.929604   1.000000
  419       -2.929405   1.000000
  420       -2.907225   1.000000
  421       -2.906761   1.000000
  422       -2.906674   1.000000
  423       -2.906571   1.000000
  424       -2.906530   1.000000
  425       -2.905557   1.000000
  426       -2.885498   1.000000
  427       -2.885365   1.000000
  428       -2.885246   1.000000
  429       -2.885221   1.000000
  430       -2.885133   1.000000
  431       -2.885087   1.000000
  432       -2.885057   1.000000
  433       -2.885030   1.000000
  434       -2.885016   1.000000
  435       -2.884934   1.000000
  436       -2.884903   1.000000
  437       -2.884866   1.000000
  438       -2.882481   1.000000
  439       -2.882301   1.000000
  440       -2.882191   1.000000
  441       -2.882133   1.000000
  442       -2.882120   1.000000
  443       -2.881446   1.000000
  444       -2.821627   1.000000
  445       -2.821485   1.000000
  446       -2.821215   1.000000
  447       -2.818588   1.000000
  448       -2.818568   1.000000
  449       -2.818503   1.000000
  450       -2.818406   1.000000
  451       -2.818360   1.000000
  452       -2.817886   1.000000
  453       -2.812459   1.000000
  454       -2.812428   1.000000
  455       -2.812340   1.000000
  456       -2.812267   1.000000
  457       -2.812235   1.000000
  458       -2.812213   1.000000
  459       -2.812174   1.000000
  460       -2.812110   1.000000
  461       -2.812026   1.000000
  462       -2.811998   1.000000
  463       -2.811956   1.000000
  464       -2.811918   1.000000
  465       -2.760703   1.000000
  466       -2.760677   1.000000
  467       -2.760394   1.000000
  468       -2.760349   1.000000
  469       -2.728009   1.000000
  470       -2.727887   1.000000
  471       -2.727836   1.000000
  472       -2.727805   1.000000
  473       -2.727692   1.000000
  474       -2.727607   1.000000
  475       -2.724859   1.000000
  476       -2.724793   1.000000
  477       -2.724734   1.000000
  478       -2.724716   1.000000
  479       -2.724630   1.000000
  480       -2.724378   1.000000
  481       -2.719570   1.000000
  482       -2.719523   1.000000
  483       -2.719358   1.000000
  484       -2.719237   1.000000
  485       -2.719199   1.000000
  486       -2.719126   1.000000
  487       -2.704740   1.000000
  488       -2.704702   1.000000
  489       -2.704498   1.000000
  490       -2.704436   1.000000
  491       -2.704384   1.000000
  492       -2.704356   1.000000
  493       -2.704319   1.000000
  494       -2.704282   1.000000
  495       -2.704231   1.000000
  496       -2.704216   1.000000
  497       -2.704170   1.000000
  498       -2.704129   1.000000
  499       -2.697985   1.000000
  500       -2.697975   1.000000
  501       -2.668351   1.000000
  502       -2.668233   1.000000
  503       -2.668192   1.000000
  504       -2.668146   1.000000
  505       -2.668001   1.000000
  506       -2.666209   1.000000
  507       -2.634402   1.000000
  508       -2.634380   1.000000
  509       -2.634315   1.000000
  510       -2.634302   1.000000
  511       -2.634241   1.000000
  512       -2.634074   1.000000
  513       -2.630268   1.000000
  514       -2.600342   1.000000
  515       -2.600340   1.000000
  516       -2.599895   1.000000
  517       -2.599873   1.000000
  518       -2.594650   1.000000
  519       -2.594126   1.000000
  520       -2.593868   1.000000
  521       -2.593745   1.000000
  522       -2.593672   1.000000
  523       -2.592913   1.000000
  524       -2.589144   1.000000
  525       -2.543168   1.000000
  526       -2.542839   1.000000
  527       -2.542635   1.000000
  528       -2.542593   1.000000
  529       -2.542528   1.000000
  530       -2.542523   1.000000
  531       -2.542500   1.000000
  532       -2.542479   1.000000
  533       -2.542449   1.000000
  534       -2.542421   1.000000
  535       -2.542386   1.000000
  536       -2.542292   1.000000
  537       -2.531907   1.000000
  538       -2.530944   1.000000
  539       -2.530784   1.000000
  540       -2.530530   1.000000
  541       -2.530455   1.000000
  542       -2.529806   1.000000
  543       -2.529792   1.000000
  544       -2.529666   1.000000
  545       -2.528003   1.000000
  546       -2.505144   1.000000
  547       -2.505083   1.000000
  548       -2.505033   1.000000
  549       -2.494523   1.000000
  550       -2.494325   1.000000
  551       -2.494287   1.000000
  552       -2.494216   1.000000
  553       -2.494121   1.000000
  554       -2.491726   1.000000
  555       -2.476928   1.000000
  556       -2.476255   1.000000
  557       -2.475963   1.000000
  558       -2.475890   1.000000
  559       -2.475884   1.000000
  560       -2.472857   1.000000
  561       -2.465432   1.000000
  562       -2.465393   1.000000
  563       -2.465277   1.000000
  564       -2.465254   1.000000
  565       -2.465223   1.000000
  566       -2.465198   1.000000
  567       -2.465189   1.000000
  568       -2.465159   1.000000
  569       -2.465126   1.000000
  570       -2.465069   1.000000
  571       -2.465050   1.000000
  572       -2.464982   1.000000
  573       -2.461365   1.000000
  574       -2.461144   1.000000
  575       -2.440731   1.000000
  576       -2.440591   1.000000
  577       -2.419420   1.000000
  578       -2.419245   1.000000
  579       -2.419150   1.000000
  580       -2.419077   1.000000
  581       -2.418987   1.000000
  582       -2.418923   1.000000
  583       -2.418885   1.000000
  584       -2.418723   1.000000
  585       -2.418523   1.000000
  586       -2.418464   1.000000
  587       -2.418420   1.000000
  588       -2.417580   1.000000
  589       -2.394250   1.000000
  590       -2.394102   1.000000
  591       -2.393992   1.000000
  592       -2.393961   1.000000
  593       -2.393934   1.000000
  594       -2.393347   1.000000
  595       -2.389004   1.000000
  596       -2.376465   1.000000
  597       -2.376416   1.000000
  598       -2.376229   1.000000
  599       -2.374856   1.000000
  600       -2.374795   1.000000
  601       -2.374750   1.000000
  602       -2.374725   1.000000
  603       -2.374622   1.000000
  604       -2.374510   1.000000
  605       -2.370417   1.000000
  606       -2.370352   1.000000
  607       -2.370305   1.000000
  608       -2.370226   1.000000
  609       -2.370190   1.000000
  610       -2.370073   1.000000
  611       -2.364427   1.000000
  612       -2.364204   1.000000
  613       -2.305710   1.000000
  614       -2.305566   1.000000
  615       -2.305426   1.000000
  616       -2.305023   1.000000
  617       -2.304977   1.000000
  618       -2.304910   1.000000
  619       -2.304327   1.000000
  620       -2.298531   1.000000
  621       -2.298373   1.000000
  622       -2.297545   1.000000
  623       -2.297498   1.000000
  624       -2.297368   1.000000
  625       -2.272740   1.000000
  626       -2.272701   1.000000
  627       -2.272681   1.000000
  628       -2.272644   1.000000
  629       -2.272541   1.000000
  630       -2.272508   1.000000
  631       -2.271317   1.000000
  632       -2.271065   1.000000
  633       -2.270960   1.000000
  634       -2.270886   1.000000
  635       -2.270828   1.000000
  636       -2.270639   1.000000
  637       -2.251025   1.000000
  638       -2.250950   1.000000
  639       -2.250863   1.000000
  640       -2.246619   1.000000
  641       -2.246559   1.000000
  642       -2.246327   1.000000
  643       -2.237779   1.000000
  644       -2.237562   1.000000
  645       -2.217029   1.000000
  646       -2.216889   1.000000
  647       -2.216488   1.000000
  648       -2.216300   1.000000
  649       -2.216153   1.000000
  650       -2.216111   1.000000
  651       -2.216092   1.000000
  652       -2.216038   1.000000
  653       -2.216001   1.000000
  654       -2.215946   1.000000
  655       -2.215916   1.000000
  656       -2.215860   1.000000
  657       -2.205517   1.000000
  658       -2.205401   1.000000
  659       -2.205226   1.000000
  660       -2.205126   1.000000
  661       -2.205026   1.000000
  662       -2.204772   1.000000
  663       -2.202946   1.000000
  664       -2.202876   1.000000
  665       -2.202751   1.000000
  666       -2.202515   1.000000
  667       -2.202501   1.000000
  668       -2.202428   1.000000
  669       -2.198264   1.000000
  670       -2.197638   1.000000
  671       -2.197536   1.000000
  672       -2.197518   1.000000
  673       -2.162933   1.000000
  674       -2.162756   1.000000
  675       -2.162650   1.000000
  676       -2.162568   1.000000
  677       -2.162517   1.000000
  678       -2.162248   1.000000
  679       -2.152826   1.000000
  680       -2.152757   1.000000
  681       -2.152709   1.000000
  682       -2.152659   1.000000
  683       -2.152632   1.000000
  684       -2.152497   1.000000
  685       -2.137005   1.000000
  686       -2.111239   1.000000
  687       -2.110245   1.000000
  688       -2.109041   1.000000
  689       -2.108864   1.000000
  690       -2.108783   1.000000
  691       -2.108687   1.000000
  692       -2.108650   1.000000
  693       -2.108609   1.000000
  694       -2.108512   1.000000
  695       -2.108479   1.000000
  696       -2.108410   1.000000
  697       -2.108144   1.000000
  698       -2.106921   1.000000
  699       -2.106738   1.000000
  700       -2.100144   1.000000
  701       -2.099963   1.000000
  702       -2.099919   1.000000
  703       -2.099856   1.000000
  704       -2.099787   1.000000
  705       -2.099605   1.000000
  706       -2.098618   1.000000
  707       -2.098410   1.000000
  708       -2.098187   1.000000
  709       -2.098068   1.000000
  710       -2.097962   1.000000
  711       -2.097916   1.000000
  712       -2.097804   1.000000
  713       -2.097763   1.000000
  714       -2.096963   1.000000
  715       -2.096448   1.000000
  716       -2.095754   1.000000
  717       -2.095748   1.000000
  718       -2.079497   1.000000
  719       -2.079271   1.000000
  720       -2.079142   1.000000
  721       -2.079106   1.000000
  722       -2.078964   1.000000
  723       -2.078909   1.000000
  724       -2.024013   1.000000
  725       -2.023103   1.000000
  726       -2.022367   1.000000
  727       -2.022153   1.000000
  728       -2.022059   1.000000
  729       -2.020770   1.000000
  730       -2.019384   1.000000
  731       -2.018844   1.000000
  732       -2.018396   1.000000
  733       -2.018336   1.000000
  734       -2.018246   1.000000
  735       -2.018206   1.000000
  736       -2.018143   1.000000
  737       -2.018134   1.000000
  738       -2.018020   1.000000
  739       -2.017973   1.000000
  740       -2.017940   1.000000
  741       -2.017443   1.000000
  742       -1.983371   1.000000
  743       -1.983234   1.000000
  744       -1.983158   1.000000
  745       -1.983060   1.000000
  746       -1.983038   1.000000
  747       -1.982874   1.000000
  748       -1.976722   1.000000
  749       -1.976689   1.000000
  750       -1.976635   1.000000
  751       -1.976451   1.000000
  752       -1.976416   1.000000
  753       -1.975499   1.000000
  754       -1.926706   1.000000
  755       -1.926051   1.000000
  756       -1.925910   1.000000
  757       -1.925817   1.000000
  758       -1.925761   1.000000
  759       -1.925370   1.000000
  760       -1.921661   1.000000
  761       -1.920643   1.000000
  762       -1.919563   1.000000
  763       -1.919537   1.000000
  764       -1.919437   1.000000
  765       -1.919380   1.000000
  766       -1.919341   1.000000
  767       -1.919296   1.000000
  768       -1.919236   1.000000
  769       -1.919211   1.000000
  770       -1.919153   1.000000
  771       -1.919103   1.000000
  772       -1.918529   1.000000
  773       -1.918419   1.000000
  774       -1.918339   1.000000
  775       -1.918302   1.000000
  776       -1.918229   1.000000
  777       -1.917642   1.000000
  778       -1.888880   1.000000
  779       -1.888697   1.000000
  780       -1.888674   1.000000
  781       -1.881574   1.000000
  782       -1.881329   1.000000
  783       -1.881256   1.000000
  784       -1.881134   1.000000
  785       -1.881064   1.000000
  786       -1.881002   1.000000
  787       -1.860747   1.000000
  788       -1.860621   1.000000
  789       -1.860425   1.000000
  790       -1.860285   1.000000
  791       -1.860255   1.000000
  792       -1.860168   1.000000
  793       -1.837191   1.000000
  794       -1.837059   1.000000
  795       -1.837023   1.000000
  796       -1.836858   1.000000
  797       -1.836839   1.000000
  798       -1.836753   1.000000
  799       -1.829477   1.000000
  800       -1.827754   1.000000
  801       -1.826616   1.000000
  802       -1.826314   1.000000
  803       -1.826269   1.000000
  804       -1.823905   1.000000
  805       -1.801100   1.000000
  806       -1.799985   1.000000
  807       -1.799185   1.000000
  808       -1.798966   1.000000
  809       -1.798840   1.000000
  810       -1.798779   1.000000
  811       -1.798737   1.000000
  812       -1.798667   1.000000
  813       -1.798627   1.000000
  814       -1.798571   1.000000
  815       -1.798556   1.000000
  816       -1.798331   1.000000
  817       -1.760894   1.000000
  818       -1.759474   1.000000
  819       -1.758729   1.000000
  820       -1.758694   1.000000
  821       -1.758348   1.000000
  822       -1.758257   1.000000
  823       -1.758076   1.000000
  824       -1.758017   1.000000
  825       -1.757988   1.000000
  826       -1.757940   1.000000
  827       -1.757895   1.000000
  828       -1.757883   1.000000
  829       -1.752360   1.000000
  830       -1.752227   1.000000
  831       -1.751955   1.000000
  832       -1.751828   1.000000
  833       -1.751759   1.000000
  834       -1.751678   1.000000
  835       -1.749891   1.000000
  836       -1.749789   1.000000
  837       -1.749708   1.000000
  838       -1.749645   1.000000
  839       -1.749622   1.000000
  840       -1.749574   1.000000
  841       -1.744483   1.000000
  842       -1.744211   1.000000
  843       -1.744184   1.000000
  844       -1.744081   1.000000
  845       -1.744038   1.000000
  846       -1.743756   1.000000
  847       -1.729737   1.000000
  848       -1.729127   1.000000
  849       -1.729071   1.000000
  850       -1.729024   1.000000
  851       -1.728879   1.000000
  852       -1.722621   1.000000
  853       -1.715983   1.000000
  854       -1.715893   1.000000
  855       -1.715584   1.000000
  856       -1.689370   1.000000
  857       -1.688109   1.000000
  858       -1.687296   1.000000
  859       -1.687166   1.000000
  860       -1.686959   1.000000
  861       -1.685209   1.000000
  862       -1.672759   1.000000
  863       -1.672736   1.000000
  864       -1.672487   1.000000
  865       -1.671342   1.000000
  866       -1.671095   1.000000
  867       -1.671052   1.000000
  868       -1.670963   1.000000
  869       -1.670898   1.000000
  870       -1.669400   1.000000
  871       -1.622804   1.000000
  872       -1.622758   1.000000
  873       -1.622301   1.000000
  874       -1.622217   1.000000
  875       -1.622078   1.000000
  876       -1.621956   1.000000
  877       -1.621927   1.000000
  878       -1.621879   1.000000
  879       -1.621835   1.000000
  880       -1.621778   1.000000
  881       -1.621747   1.000000
  882       -1.621694   1.000000
  883       -1.607562   1.000000
  884       -1.606407   1.000000
  885       -1.606343   1.000000
  886       -1.606304   1.000000
  887       -1.606237   1.000000
  888       -1.594106   1.000000
  889       -1.573647   1.000000
  890       -1.573524   1.000000
  891       -1.573338   1.000000
  892       -1.573175   1.000000
  893       -1.573145   1.000000
  894       -1.573139   1.000000
  895       -1.566290   1.000000
  896       -1.504380   1.000000
  897       -1.504228   1.000000
  898       -1.504165   1.000000
  899       -1.504137   1.000000
  900       -1.504042   1.000000
  901       -1.503996   1.000000