 vasp.5.4.4.18Apr17-6-g9f103f2a35 (build May 02 2017 15:33:50) complex          
  
 executed on Intel-16.0.3.210-OMP date 2018.08.09  02:45:38
 running on    6 total cores
 distrk:  each k-point on    6 cores,    1 groups
 distr:  one band on NCORES_PER_BAND=   1 cores,    6 groups


--------------------------------------------------------------------------------------------------------


 INCAR:
 POTCAR:    PAW Ni_GW 31Mar2010                   
 POTCAR:    PAW_PBE N 08Apr2002                   

 ----------------------------------------------------------------------------- 
|                                                                             |
|           W    W    AA    RRRRR   N    N  II  N    N   GGGG   !!!           |
|           W    W   A  A   R    R  NN   N  II  NN   N  G    G  !!!           |
|           W    W  A    A  R    R  N N  N  II  N N  N  G       !!!           |
|           W WW W  AAAAAA  RRRRR   N  N N  II  N  N N  G  GGG   !            |
|           WW  WW  A    A  R   R   N   NN  II  N   NN  G    G                |
|           W    W  A    A  R    R  N    N  II  N    N   GGGG   !!!           |
|                                                                             |
|      For optimal performance we recommend to set                            |
|        NCORE= 4 - approx SQRT( number of cores)                             |
|      NCORE specifies how many cores store one orbital (NPAR=cpu/NCORE).     |
|      This setting can  greatly improve the performance of VASP for DFT.     |
|      The default,   NCORE=1            might be grossly inefficient         |
|      on modern multi-core architectures or massively parallel machines.     |
|      Do your own testing !!!!                                               |
|      Unfortunately you need to use the default for GW and RPA calculations. |
|      (for HF NCORE is supported but not extensively tested yet)             |
|                                                                             |
 ----------------------------------------------------------------------------- 

 POTCAR:    PAW Ni_GW 31Mar2010                   
   VRHFIN =Ni:                                                                  
   LEXCH  = PE                                                                  
   EATOM  =  1077.6740 eV,   79.2068 Ry                                         
                                                                                
   TITEL  = PAW Ni_GW 31Mar2010                                                 
   LULTRA =        F    use ultrasoft PP ?                                      
   IUNSCR =        1    unscreen: 0-lin 1-nonlin 2-no                           
   RPACOR =    1.800    partial core radius                                     
   POMASS =   58.690; ZVAL   =   10.000    mass and valenz                      
   RCORE  =    2.300    outmost cutoff radius                                   
   RWIGS  =    2.430; RWIGS  =    1.286    wigner-seitz radius (au A)           
   ENMAX  =  357.323; ENMIN  =  267.992 eV                                      
   RCLOC  =    1.681    cutoff for local pot                                    
   LCOR   =        T    correct aug charges                                     
   LPAW   =        T    paw PP                                                  
   EAUG   =  802.310                                                            
   DEXC   =    0.000                                                            
   RMAX   =    2.357    core radius for proj-oper                               
   RAUG   =    1.300    factor for augmentation sphere                          
   RDEP   =    2.390    radius for radial grids                                 
   RDEPT  =    1.800    core radius for aug-charge                              
                                                                                
   Atomic configuration                                                         
    9 entries                                                                   
     n  l   j            E        occ.                                          
     1  0  0.50     -8206.4253   2.0000                                         
     2  0  0.50      -976.1748   2.0000                                         
     2  1  1.50      -839.0571   6.0000                                         
     3  0  0.50      -105.9991   2.0000                                         
     3  1  1.50       -66.4603   6.0000                                         
     3  2  2.50        -4.6458   9.0000                                         
     4  0  0.50        -4.4926   1.0000                                         
     4  1  1.50        -4.0817   0.0000                                         
     4  3  2.50        -1.3606   0.0000                                         
   Description                                                                  
     l       E           TYP  RCUT    TYP  RCUT                                 
     2     -4.6457935     23  2.000                                             
     2     -6.0063761     23  2.000                                             
     0     -4.4925599     23  2.300                                             
     0     54.4233040     23  2.300                                             
     1     -2.7211652     23  2.300                                             
     1     68.0291300     23  2.300                                             
     3     27.2116520     23  2.000                                             
  local pseudopotential read in
  partial core-charges read in
  partial kinetic energy density read in
  kinetic energy density of atom read in
  atomic valenz-charges read in
  non local Contribution for L=           2  read in
    real space projection operators read in
  non local Contribution for L=           2  read in
    real space projection operators read in
  non local Contribution for L=           0  read in
    real space projection operators read in
  non local Contribution for L=           0  read in
    real space projection operators read in
  non local Contribution for L=           1  read in
    real space projection operators read in
  non local Contribution for L=           1  read in
    real space projection operators read in
  non local Contribution for L=           3  read in
    real space projection operators read in
    PAW grid and wavefunctions read in
 
   number of l-projection  operators is LMAX  =           7
   number of lm-projection operators is LMMAX =          25
 
 POTCAR:    PAW_PBE N 08Apr2002                   
   VRHFIN =N: s2p3                                                              
   LEXCH  = PE                                                                  
   EATOM  =   264.5486 eV,   19.4438 Ry                                         
                                                                                
   TITEL  = PAW_PBE N 08Apr2002                                                 
   LULTRA =        F    use ultrasoft PP ?                                      
   IUNSCR =        1    unscreen: 0-lin 1-nonlin 2-no                           
   RPACOR =    1.200    partial core radius                                     
   POMASS =   14.001; ZVAL   =    5.000    mass and valenz                      
   RCORE  =    1.500    outmost cutoff radius                                   
   RWIGS  =    1.400; RWIGS  =    0.741    wigner-seitz radius (au A)           
   ENMAX  =  400.000; ENMIN  =  300.000 eV                                      
   ICORE  =        2    local potential                                         
   LCOR   =        T    correct aug charges                                     
   LPAW   =        T    paw PP                                                  
   EAUG   =  627.112                                                            
   DEXC   =    0.000                                                            
   RMAX   =    1.529    core radius for proj-oper                               
   RAUG   =    1.300    factor for augmentation sphere                          
   RDEP   =    1.514    radius for radial grids                                 
   RDEPT  =    1.338    core radius for aug-charge                              
                                                                                
   Atomic configuration                                                         
    4 entries                                                                   
     n  l   j            E        occ.                                          
     1  0  0.50      -384.7179   2.0000                                         
     2  0  0.50       -18.5828   2.0000                                         
     2  1  0.50        -7.0898   3.0000                                         
     3  2  1.50        -6.8029   0.0000                                         
   Description                                                                  
     l       E           TYP  RCUT    TYP  RCUT                                 
     0    -18.5828119     23  1.200                                             
     0    -13.5018863     23  1.200                                             
     1     -7.0897853     23  1.500                                             
     1      9.5240782     23  1.500                                             
     2     -6.8029130      7  1.500                                             
  local pseudopotential read in
  partial core-charges read in
  partial kinetic energy density read in
  atomic valenz-charges read in
  non local Contribution for L=           0  read in
    real space projection operators read in
  non local Contribution for L=           0  read in
    real space projection operators read in
  non local Contribution for L=           1  read in
    real space projection operators read in
  non local Contribution for L=           1  read in
    real space projection operators read in
    PAW grid and wavefunctions read in
 
   number of l-projection  operators is LMAX  =           4
   number of lm-projection operators is LMMAX =           8
 
 Optimization of the real space projectors (new method)

 maximal supplied QI-value         = 16.25
 optimisation between [QCUT,QGAM] = [  8.78, 17.71] = [ 21.57, 87.87] Ry 
 Optimized for a Real-space Cutoff    1.55 Angstroem

   l    n(q)    QCUT    max X(q) W(low)/X(q) W(high)/X(q)  e(spline) 
   2      7     8.776    90.918    0.49E-03    0.31E-03    0.19E-06
   2      7     8.776    88.873    0.50E-03    0.32E-03    0.19E-06
   0      8     8.776    17.118    0.77E-04    0.31E-04    0.38E-07
   0      8     8.776     8.062    0.82E-04    0.33E-04    0.42E-07
   1      8     8.776     4.910    0.92E-04    0.24E-03    0.96E-07
   1      8     8.776     3.344    0.63E-04    0.17E-03    0.76E-07
   3      7     8.776     5.513    0.45E-03    0.35E-03    0.68E-07
 Optimization of the real space projectors (new method)

 maximal supplied QI-value         = 25.13
 optimisation between [QCUT,QGAM] = [  8.80, 17.59] = [ 21.67, 86.68] Ry 
 Optimized for a Real-space Cutoff    2.14 Angstroem

   l    n(q)    QCUT    max X(q) W(low)/X(q) W(high)/X(q)  e(spline) 
   0     11     8.797    79.467    0.70E-04    0.19E-04    0.19E-05
   0     11     8.797    66.151    0.68E-04    0.18E-04    0.19E-05
   1     11     8.797     6.738    0.26E-03    0.11E-02    0.73E-05
   1     11     8.797     5.013    0.25E-03    0.11E-02    0.72E-05
  PAW Ni_GW 31Mar2010                   :
 energy of atom  1       EATOM=-1077.6740
 kinetic energy error for atom=    0.3911 (will be added to EATOM!!)
  PAW_PBE N 08Apr2002                   :
 energy of atom  2       EATOM= -264.5486
 kinetic energy error for atom=    0.6882 (will be added to EATOM!!)
 
 
 POSCAR: New structure                           
  positions in cartesian coordinates
  No initial velocities read in
 exchange correlation table for  LEXCH =        8
   RHO(1)=    0.500       N(1)  =     2000
   RHO(2)=  100.500       N(2)  =     4000
 


--------------------------------------------------------------------------------------------------------


 ion  position               nearest neighbor table
   1  0.444  0.444  0.104-  73 2.47 199 2.47 136 2.47 190 2.52  65 2.52 127 2.52 130 2.52  67 2.52
                           191 2.52
   2  0.444  0.778  0.104-  74 2.47 200 2.47 137 2.47 191 2.52  66 2.52 131 2.52 128 2.52 192 2.52
                            68 2.52
   3  0.444  0.111  0.104- 138 2.47  75 2.47 201 2.47  64 2.52 190 2.52 132 2.52 129 2.52 192 2.52
                            69 2.52
   4  0.778  0.444  0.104-  76 2.47 202 2.47 139 2.47 193 2.52  68 2.52 130 2.52 133 2.52  70 2.52
                           194 2.52
   5  0.778  0.778  0.104-  77 2.47 203 2.47 140 2.47 194 2.52  69 2.52 134 2.52 131 2.52 195 2.52
                            71 2.52
   6  0.778  0.111  0.104- 141 2.47  78 2.47 204 2.47  67 2.52 193 2.52 135 2.52 132 2.52 195 2.52
                            72 2.52
   7  0.111  0.444  0.104-  79 2.47 205 2.47 142 2.47 196 2.52  71 2.52 127 2.52 133 2.52  64 2.52
                           197 2.52
   8  0.111  0.778  0.104-  80 2.47 206 2.47 143 2.47 197 2.52  72 2.52 128 2.52 134 2.52 198 2.52
                            65 2.52
   9  0.111  0.111  0.104- 144 2.47  81 2.47 207 2.47  70 2.52 196 2.52 129 2.52 198 2.52 135 2.52
                            66 2.52
  10  0.556  0.556  0.173- 191 2.47  68 2.47 130 2.47  82 2.48 208 2.48 145 2.48  74 2.52 199 2.52
                           139 2.52 136 2.52 200 2.52  76 2.52
  11  0.556  0.889  0.173- 192 2.47  69 2.47 131 2.47 146 2.48  83 2.48 209 2.48  75 2.52 201 2.52
                           200 2.52 137 2.52 140 2.52  77 2.52
  12  0.556  0.222  0.173- 190 2.47 132 2.47  67 2.47  84 2.48 210 2.48 147 2.48 201 2.52  73 2.52
                           138 2.52 141 2.52 199 2.52  78 2.52
  13  0.889  0.556  0.173- 194 2.47  71 2.47 133 2.47  85 2.48 148 2.48 211 2.48  77 2.52 202 2.52
                           139 2.52 142 2.52 203 2.52  79 2.52
  14  0.889  0.889  0.173- 195 2.47  72 2.47 134 2.47 149 2.48  86 2.48 212 2.48  78 2.52 204 2.52
                           203 2.52 140 2.52 143 2.52  80 2.52
  15  0.889  0.222  0.173- 193 2.47 135 2.47  70 2.47  87 2.48 150 2.48 213 2.48 204 2.52  76 2.52
                           141 2.52 144 2.52 202 2.52  81 2.52
  16  0.222  0.556  0.173- 197 2.47  65 2.47 127 2.47  88 2.48 214 2.48 151 2.48  80 2.52 205 2.52
                           136 2.52 142 2.52 206 2.52  73 2.52
  17  0.222  0.889  0.173- 198 2.47  66 2.47 128 2.47 152 2.48  89 2.48 215 2.48  81 2.52 207 2.52
                           206 2.52 143 2.52 137 2.52  74 2.52
  18  0.222  0.222  0.173- 196 2.47 129 2.47  64 2.47  90 2.48 216 2.48 153 2.48 207 2.52  79 2.52
                           144 2.52 138 2.52 205 2.52  75 2.52
  19  0.667  0.667  0.242- 154 2.48  91 2.48 217 2.48 200 2.48  77 2.48 139 2.48  83 2.52 209 2.52
                           208 2.52 145 2.52 148 2.52  85 2.52
  20  0.667  0.000  0.242-  92 2.48 218 2.48 155 2.48 201 2.48 140 2.48  78 2.48  84 2.52 146 2.52
                           149 2.52 209 2.52 210 2.52  86 2.52
  21  0.667  0.333  0.242- 156 2.48  93 2.48 219 2.48 199 2.48  76 2.48 141 2.48 210 2.52  82 2.52
                           150 2.52 147 2.52  87 2.52 208 2.52
  22  1.000  0.667  0.242- 157 2.48  94 2.48 220 2.48 203 2.48  80 2.48 142 2.48  86 2.52 212 2.52
                           211 2.52 151 2.52 148 2.52  88 2.52
  23  0.000  0.000  0.242-  95 2.48 221 2.48 158 2.48 204 2.48 143 2.48  81 2.48  87 2.52 152 2.52
                           212 2.52 149 2.52 213 2.52  89 2.52
  24  1.000  0.333  0.242- 159 2.48  96 2.48 222 2.48 202 2.48  79 2.48 144 2.48 213 2.52  85 2.52
                           153 2.52 150 2.52  90 2.52 211 2.52
  25  0.333  0.667  0.242- 160 2.48  97 2.48 223 2.48 206 2.48  74 2.48 136 2.48  89 2.52 215 2.52
                           214 2.52 151 2.52 145 2.52  82 2.52
  26  0.333  0.000  0.242-  98 2.48 224 2.48 161 2.48 207 2.48 137 2.48  75 2.48  90 2.52 152 2.52
                           146 2.52 215 2.52 216 2.52  83 2.52
  27  0.333  0.333  0.242- 162 2.48  99 2.48 225 2.48 205 2.48  73 2.48 138 2.48 216 2.52  88 2.52
                           147 2.52 153 2.52  84 2.52 214 2.52
  28  0.778  0.778  0.312- 209 2.48 100 2.48 148 2.48  86 2.48 226 2.48 163 2.48 217 2.52  92 2.52
                           157 2.52 154 2.52 218 2.52  94 2.52
  29  0.778  0.111  0.312- 210 2.48 164 2.48 101 2.48  87 2.48 149 2.48 227 2.48  93 2.52 219 2.52
                           155 2.52 158 2.52 218 2.52  95 2.52
  30  0.778  0.444  0.312- 102 2.48 150 2.48 208 2.48 228 2.48 165 2.48  85 2.48 219 2.52  91 2.52
                           156 2.52 159 2.52  96 2.52 217 2.52
  31  0.111  0.778  0.312- 212 2.48 103 2.48 151 2.48  89 2.48 229 2.48 166 2.48 220 2.52  95 2.52
                           160 2.52 157 2.52 221 2.52  97 2.52
  32  0.111  0.111  0.312- 213 2.48 167 2.48 104 2.48  90 2.48 152 2.48 230 2.48  96 2.52 222 2.52
                           161 2.52 221 2.52 158 2.52  98 2.52
  33  0.111  0.444  0.312- 105 2.48 153 2.48 211 2.48 231 2.48 168 2.48  88 2.48 222 2.52  94 2.52
                           162 2.52 159 2.52  99 2.52 220 2.52
  34  0.444  0.778  0.312- 215 2.48 106 2.48 145 2.48  83 2.48 232 2.48 169 2.48 223 2.52  98 2.52
                           154 2.52 160 2.52 224 2.52  91 2.52
  35  0.444  0.111  0.312- 216 2.48 170 2.48 107 2.48  84 2.48 146 2.48 233 2.48  99 2.52 225 2.52
                           155 2.52 161 2.52 224 2.52  92 2.52
  36  0.444  0.444  0.312- 108 2.48 147 2.48 214 2.48 234 2.48 171 2.48  82 2.48 225 2.52  97 2.52
                           162 2.52 156 2.52  93 2.52 223 2.52
  37  0.889  0.889  0.381- 218 2.48  95 2.48 157 2.48 172 2.48 109 2.48 235 2.48 101 2.52 227 2.52
                           226 2.52 163 2.52 166 2.52 103 2.52
  38  0.889  0.222  0.381- 219 2.48 158 2.48  96 2.48 110 2.48 173 2.48 236 2.48 227 2.52 102 2.52
                           164 2.52 167 2.52 228 2.52 104 2.52
  39  0.889  0.556  0.381- 217 2.48  94 2.48 159 2.48 111 2.48 174 2.48 237 2.48 100 2.52 228 2.52
                           165 2.52 168 2.52 226 2.52 105 2.52
  40  0.222  0.889  0.381- 221 2.48  98 2.48 160 2.48 175 2.48 112 2.48 238 2.48 104 2.52 230 2.52
                           229 2.52 169 2.52 166 2.52 106 2.52
  41  0.222  0.222  0.381- 222 2.48 161 2.48  99 2.48 113 2.48 239 2.48 176 2.48 230 2.52 105 2.52
                           167 2.52 170 2.52 231 2.52 107 2.52
  42  0.222  0.556  0.381- 220 2.48  97 2.48 162 2.48 114 2.48 240 2.48 177 2.48 103 2.52 231 2.52
                           171 2.52 168 2.52 229 2.52 108 2.52
  43  0.556  0.889  0.381- 224 2.48  92 2.48 154 2.48 178 2.48 115 2.48 241 2.48 107 2.52 233 2.52
                           232 2.52 169 2.52 163 2.52 100 2.52
  44  0.556  0.222  0.381- 225 2.48 155 2.48  93 2.48 116 2.48 242 2.48 179 2.48 233 2.52 108 2.52
                           170 2.52 164 2.52 234 2.52 101 2.52
  45  0.556  0.556  0.381- 223 2.48  91 2.48 156 2.48 117 2.48 243 2.48 180 2.48 106 2.52 234 2.52
                           165 2.52 171 2.52 232 2.52 102 2.52
  46  0.000  0.000  0.450- 118 2.47 244 2.47 181 2.47 227 2.48 166 2.48 104 2.48 110 2.52 175 2.52
                           235 2.52 172 2.52 236 2.52 112 2.52
  47  1.000  0.333  0.450- 182 2.47 119 2.47 245 2.47 228 2.48 105 2.48 167 2.48 236 2.52 111 2.52
                           176 2.52 173 2.52 113 2.52 237 2.52
  48  1.000  0.667  0.450- 183 2.47 120 2.47 246 2.47 226 2.48 103 2.48 168 2.48 109 2.52 235 2.52
                           237 2.52 177 2.52 174 2.52 114 2.52
  49  0.333  0.000  0.450- 121 2.47 247 2.47 184 2.47 230 2.48 169 2.48 107 2.48 113 2.52 175 2.52
                           178 2.52 238 2.52 239 2.52 115 2.52
  50  0.333  0.333  0.450- 185 2.47 122 2.47 248 2.47 231 2.48 108 2.48 170 2.48 239 2.52 114 2.52
                           179 2.52 176 2.52 116 2.52 240 2.52
  51  0.333  0.667  0.450- 186 2.47 123 2.47 249 2.47 229 2.48 106 2.48 171 2.48 112 2.52 238 2.52
                           240 2.52 177 2.52 180 2.52 117 2.52
  52  0.667  0.000  0.450- 124 2.47 250 2.47 187 2.47 233 2.48 163 2.48 101 2.48 116 2.52 178 2.52
                           172 2.52 241 2.52 242 2.52 109 2.52
  53  0.667  0.333  0.450- 188 2.47 125 2.47 251 2.47 234 2.48 102 2.48 164 2.48 242 2.52 117 2.52
                           173 2.52 179 2.52 110 2.52 243 2.52
  54  0.667  0.667  0.450- 189 2.47 126 2.47 252 2.47 232 2.48 100 2.48 165 2.48 115 2.52 241 2.52
                           243 2.52 180 2.52 174 2.52 111 2.52
  55  0.111  0.111  0.519- 236 2.47 113 2.47 175 2.47 119 2.52 245 2.52 184 2.52 244 2.52 181 2.52
                           121 2.52
  56  0.111  0.444  0.519- 176 2.47 237 2.47 114 2.47 245 2.52 120 2.52 185 2.52 182 2.52 122 2.52
                           246 2.52
  57  0.111  0.778  0.519- 235 2.47 177 2.47 112 2.47 246 2.52 118 2.52 186 2.52 183 2.52 244 2.52
                           123 2.52
  58  0.444  0.111  0.519- 239 2.47 116 2.47 178 2.47 122 2.52 248 2.52 187 2.52 184 2.52 247 2.52
                           124 2.52
  59  0.444  0.444  0.519- 179 2.47 240 2.47 117 2.47 248 2.52 123 2.52 185 2.52 188 2.52 125 2.52
                           249 2.52
  60  0.444  0.778  0.519- 238 2.47 180 2.47 115 2.47 249 2.52 121 2.52 189 2.52 186 2.52 247 2.52
                           126 2.52
  61  0.778  0.111  0.519- 242 2.47 110 2.47 172 2.47 125 2.52 251 2.52 181 2.52 187 2.52 250 2.52
                           118 2.52
  62  0.778  0.444  0.519- 173 2.47 243 2.47 111 2.47 251 2.52 126 2.52 188 2.52 182 2.52 119 2.52
                           252 2.52
  63  0.778  0.778  0.519- 241 2.47 174 2.47 109 2.47 252 2.52 124 2.52 183 2.52 189 2.52 250 2.52
                           120 2.52
  64  0.278  0.278  0.104- 138 2.47  18 2.47 205 2.47   3 2.52 129 2.52 127 2.52 196 2.52 190 2.52
                             7 2.52
  65  0.278  0.611  0.104- 136 2.47  16 2.47 206 2.47 128 2.52   1 2.52 191 2.52 197 2.52   8 2.52
                           127 2.52
  66  0.278  0.944  0.104- 137 2.47 207 2.47  17 2.47   2 2.52 198 2.52 192 2.52 129 2.52 128 2.52
                             9 2.52
  67  0.611  0.278  0.104- 141 2.47  12 2.47 199 2.47   6 2.52 132 2.52 130 2.52 193 2.52 190 2.52
                             1 2.52
  68  0.611  0.611  0.104- 139 2.47  10 2.47 200 2.47 131 2.52   4 2.52 194 2.52 191 2.52   2 2.52
                           130 2.52
  69  0.611  0.944  0.104- 140 2.47 201 2.47  11 2.47   5 2.52 192 2.52 195 2.52 132 2.52 131 2.52
                             3 2.52
  70  0.944  0.278  0.104- 144 2.47  15 2.47 202 2.47   9 2.52 135 2.52 133 2.52 193 2.52 196 2.52
                             4 2.52
  71  0.944  0.611  0.104- 142 2.47  13 2.47 203 2.47 134 2.52   7 2.52 194 2.52 197 2.52   5 2.52
                           133 2.52
  72  0.944  0.944  0.104- 143 2.47 204 2.47  14 2.47   8 2.52 195 2.52 135 2.52 198 2.52 134 2.52
                             6 2.52
  73  0.389  0.389  0.173-   1 2.47 127 2.47 190 2.47 147 2.48  27 2.48 214 2.48  12 2.52 136 2.52
                           199 2.52 205 2.52 138 2.52  16 2.52
  74  0.389  0.722  0.173-   2 2.47 128 2.47 191 2.47 145 2.48 215 2.48  25 2.48 137 2.52  10 2.52
                           206 2.52 200 2.52 136 2.52  17 2.52
  75  0.389  0.056  0.173- 192 2.47   3 2.47 129 2.47 146 2.48  26 2.48 216 2.48  11 2.52 137 2.52
                           138 2.52 207 2.52 201 2.52  18 2.52
  76  0.722  0.389  0.173-   4 2.47 130 2.47 193 2.47 150 2.48  21 2.48 208 2.48  15 2.52 139 2.52
                           202 2.52 199 2.52 141 2.52  10 2.52
  77  0.722  0.722  0.173-   5 2.47 131 2.47 194 2.47 148 2.48 209 2.48  19 2.48 140 2.52  13 2.52
                           203 2.52 200 2.52 139 2.52  11 2.52
  78  0.722  0.056  0.173- 195 2.47   6 2.47 132 2.47 149 2.48  20 2.48 210 2.48  14 2.52 140 2.52
                           141 2.52 204 2.52 201 2.52  12 2.52
  79  0.056  0.389  0.173-   7 2.47 196 2.47 133 2.47 153 2.48  24 2.48 211 2.48  18 2.52 142 2.52
                           205 2.52 202 2.52 144 2.52  13 2.52
  80  0.056  0.722  0.173-   8 2.47 197 2.47 134 2.47 151 2.48 212 2.48  22 2.48 143 2.52  16 2.52
                           206 2.52 203 2.52 142 2.52  14 2.52
  81  0.056  0.056  0.173- 198 2.47   9 2.47 135 2.47 152 2.48  23 2.48 213 2.48  17 2.52 143 2.52
                           144 2.52 207 2.52 204 2.52  15 2.52
  82  0.500  0.500  0.242- 223 2.48 156 2.48  36 2.48  10 2.48 136 2.48 199 2.48 145 2.52  21 2.52
                           214 2.52 208 2.52  25 2.52 147 2.52
  83  0.500  0.833  0.242- 154 2.48  34 2.48 224 2.48 200 2.48  11 2.48 137 2.48  19 2.52 145 2.52
                           215 2.52 209 2.52 146 2.52  26 2.52
  84  0.500  0.167  0.242- 155 2.48 225 2.48  35 2.48  12 2.48 138 2.48 201 2.48 147 2.52  20 2.52
                           216 2.52 210 2.52 146 2.52  27 2.52
  85  0.833  0.500  0.242- 217 2.48 159 2.48  30 2.48  13 2.48 139 2.48 202 2.48 148 2.52  24 2.52
                           208 2.52 211 2.52  19 2.52 150 2.52
  86  0.833  0.833  0.242- 157 2.48  28 2.48 218 2.48 203 2.48  14 2.48 140 2.48  22 2.52 148 2.52
                           209 2.52 149 2.52 212 2.52  20 2.52
  87  0.833  0.167  0.242- 158 2.48 219 2.48  29 2.48  15 2.48 141 2.48 204 2.48 150 2.52  23 2.52
                           210 2.52 213 2.52 149 2.52  21 2.52
  88  0.167  0.500  0.242- 220 2.48 162 2.48  33 2.48  16 2.48 142 2.48 205 2.48 151 2.52  27 2.52
                           211 2.52 214 2.52  22 2.52 153 2.52
  89  0.167  0.833  0.242- 160 2.48  31 2.48 221 2.48 206 2.48  17 2.48 143 2.48  25 2.52 151 2.52
                           215 2.52 212 2.52 152 2.52  23 2.52
  90  0.167  0.167  0.242- 161 2.48 222 2.48  32 2.48  18 2.48 144 2.48 207 2.48 153 2.52  26 2.52
                           216 2.52 213 2.52 152 2.52  24 2.52
  91  0.611  0.611  0.312- 165 2.48 208 2.48  19 2.48  45 2.48 232 2.48 145 2.48 154 2.52  30 2.52
                           223 2.52 217 2.52  34 2.52 156 2.52
  92  0.611  0.944  0.312- 163 2.48  20 2.48 233 2.48  43 2.48 146 2.48 209 2.48  28 2.52 224 2.52
                           218 2.52 155 2.52 154 2.52  35 2.52
  93  0.611  0.278  0.312- 164 2.48 210 2.48  21 2.48  44 2.48 234 2.48 147 2.48  29 2.52 155 2.52
                           156 2.52 219 2.52 225 2.52  36 2.52
  94  0.944  0.611  0.312- 211 2.48 168 2.48  22 2.48  39 2.48 226 2.48 148 2.48 157 2.52  33 2.52
                           217 2.52 220 2.52  28 2.52 159 2.52
  95  0.944  0.944  0.312- 166 2.48 227 2.48  23 2.48  37 2.48 149 2.48 212 2.48  31 2.52 218 2.52
                           158 2.52 221 2.52 157 2.52  29 2.52
  96  0.944  0.278  0.312- 213 2.48 167 2.48  24 2.48  38 2.48 228 2.48 150 2.48  32 2.52 158 2.52
                           159 2.52 219 2.52 222 2.52  30 2.52
  97  0.278  0.611  0.312- 171 2.48 214 2.48  25 2.48  42 2.48 229 2.48 151 2.48 160 2.52  36 2.52
                           223 2.52 220 2.52  31 2.52 162 2.52
  98  0.278  0.944  0.312- 169 2.48  26 2.48 230 2.48  40 2.48 152 2.48 215 2.48  34 2.52 221 2.52
                           224 2.52 161 2.52 160 2.52  32 2.52
  99  0.278  0.278  0.312- 170 2.48 216 2.48  27 2.48  41 2.48 231 2.48 153 2.48  35 2.52 161 2.52
                           162 2.52 222 2.52 225 2.52  33 2.52
 100  0.722  0.722  0.381-  28 2.48 154 2.48 217 2.48 174 2.48 241 2.48  54 2.48 163 2.52  39 2.52
                           226 2.52 232 2.52 165 2.52  43 2.52
 101  0.722  0.056  0.381- 218 2.48  29 2.48 155 2.48 172 2.48  52 2.48 242 2.48  37 2.52 163 2.52
                           164 2.52 227 2.52 233 2.52  44 2.52
 102  0.722  0.389  0.381-  30 2.48 156 2.48 219 2.48 173 2.48  53 2.48 243 2.48  38 2.52 165 2.52
                           234 2.52 228 2.52 164 2.52  45 2.52
 103  0.056  0.722  0.381-  31 2.48 220 2.48 157 2.48 177 2.48 235 2.48  48 2.48 166 2.52  42 2.52
                           229 2.52 226 2.52 168 2.52  37 2.52
 104  0.056  0.056  0.381- 221 2.48  32 2.48 158 2.48 175 2.48  46 2.48 236 2.48  40 2.52 166 2.52
                           167 2.52 230 2.52 227 2.52  38 2.52
 105  0.056  0.389  0.381-  33 2.48 222 2.48 159 2.48 176 2.48  47 2.48 237 2.48  41 2.52 168 2.52
                           231 2.52 228 2.52 167 2.52  39 2.52
 106  0.389  0.722  0.381-  34 2.48 160 2.48 223 2.48 180 2.48 238 2.48  51 2.48 169 2.52  45 2.52
                           229 2.52 232 2.52 171 2.52  40 2.52
 107  0.389  0.056  0.381- 224 2.48  35 2.48 161 2.48 178 2.48  49 2.48 239 2.48  43 2.52 169 2.52
                           170 2.52 230 2.52 233 2.52  41 2.52
 108  0.389  0.389  0.381-  36 2.48 162 2.48 225 2.48 179 2.48  50 2.48 240 2.48  44 2.52 171 2.52
                           234 2.52 231 2.52 170 2.52  42 2.52
 109  0.833  0.833  0.450- 183 2.47  63 2.47 250 2.47 226 2.48  37 2.48 163 2.48  48 2.52 174 2.52
                           241 2.52 172 2.52 235 2.52  52 2.52
 110  0.833  0.167  0.450- 181 2.47 251 2.47  61 2.47  38 2.48 164 2.48 227 2.48 173 2.52  46 2.52
                           242 2.52 236 2.52 172 2.52  53 2.52
 111  0.833  0.500  0.450- 252 2.47 182 2.47  62 2.47  39 2.48 165 2.48 228 2.48 174 2.52  47 2.52
                           243 2.52 237 2.52  54 2.52 173 2.52
 112  0.167  0.833  0.450- 186 2.47  57 2.47 244 2.47 229 2.48  40 2.48 166 2.48  51 2.52 177 2.52
                           238 2.52 235 2.52 175 2.52  46 2.52
 113  0.167  0.167  0.450- 184 2.47 245 2.47  55 2.47  41 2.48 167 2.48 230 2.48 176 2.52  49 2.52
                           239 2.52 236 2.52 175 2.52  47 2.52
 114  0.167  0.500  0.450- 246 2.47 185 2.47  56 2.47  42 2.48 168 2.48 231 2.48 177 2.52  50 2.52
                           237 2.52 240 2.52  48 2.52 176 2.52
 115  0.500  0.833  0.450- 189 2.47  60 2.47 247 2.47 232 2.48  43 2.48 169 2.48  54 2.52 180 2.52
                           241 2.52 238 2.52 178 2.52  49 2.52
 116  0.500  0.167  0.450- 187 2.47 248 2.47  58 2.47  44 2.48 170 2.48 233 2.48 179 2.52  52 2.52
                           242 2.52 239 2.52 178 2.52  50 2.52
 117  0.500  0.500  0.450- 249 2.47 188 2.47  59 2.47  45 2.48 171 2.48 234 2.48 180 2.52  53 2.52
                           240 2.52 243 2.52  51 2.52 179 2.52
 118  0.944  0.944  0.519-  46 2.47 172 2.47 235 2.47  57 2.52 250 2.52 181 2.52 244 2.52 183 2.52
                            61 2.52
 119  0.944  0.278  0.519- 236 2.47  47 2.47 173 2.47  55 2.52 181 2.52 182 2.52 251 2.52 245 2.52
                            62 2.52
 120  0.944  0.611  0.519- 237 2.47  48 2.47 174 2.47 183 2.52  56 2.52 252 2.52 246 2.52  63 2.52
                           182 2.52
 121  0.278  0.944  0.519-  49 2.47 175 2.47 238 2.47  60 2.52 244 2.52 247 2.52 184 2.52 186 2.52
                            55 2.52
 122  0.278  0.278  0.519- 239 2.47  50 2.47 176 2.47  58 2.52 184 2.52 185 2.52 245 2.52 248 2.52
                            56 2.52
 123  0.278  0.611  0.519- 240 2.47  51 2.47 177 2.47 186 2.52  59 2.52 249 2.52 246 2.52  57 2.52
                           185 2.52
 124  0.611  0.944  0.519-  52 2.47 178 2.47 241 2.47  63 2.52 247 2.52 250 2.52 187 2.52 189 2.52
                            58 2.52
 125  0.611  0.278  0.519- 242 2.47  53 2.47 179 2.47  61 2.52 187 2.52 188 2.52 251 2.52 248 2.52
                            59 2.52
 126  0.611  0.611  0.519- 243 2.47  54 2.47 180 2.47 189 2.52  62 2.52 249 2.52 252 2.52  60 2.52
                           188 2.52
 127  0.278  0.444  0.104- 205 2.47  73 2.47  16 2.47  64 2.52 197 2.52   1 2.52   7 2.52 190 2.52
                            65 2.52
 128  0.278  0.778  0.104- 206 2.47  74 2.47  17 2.47  65 2.52 198 2.52   8 2.52   2 2.52  66 2.52
                           191 2.52
 129  0.278  0.111  0.104-  18 2.47 207 2.47  75 2.47 196 2.52  64 2.52   9 2.52   3 2.52  66 2.52
                           192 2.52
 130  0.611  0.444  0.104- 199 2.47  76 2.47  10 2.47  67 2.52 191 2.52   4 2.52   1 2.52 193 2.52
                            68 2.52
 131  0.611  0.778  0.104- 200 2.47  77 2.47  11 2.47  68 2.52 192 2.52   2 2.52   5 2.52  69 2.52
                           194 2.52
 132  0.611  0.111  0.104-  12 2.47 201 2.47  78 2.47 190 2.52  67 2.52   3 2.52   6 2.52  69 2.52
                           195 2.52
 133  0.944  0.444  0.104- 202 2.47  13 2.47  79 2.47  70 2.52 194 2.52   4 2.52   7 2.52  71 2.52
                           196 2.52
 134  0.944  0.778  0.104- 203 2.47  14 2.47  80 2.47  71 2.52 195 2.52   5 2.52   8 2.52  72 2.52
                           197 2.52
 135  0.944  0.111  0.104-  15 2.47 204 2.47  81 2.47 193 2.52  70 2.52   6 2.52  72 2.52   9 2.52
                           198 2.52
 136  0.389  0.556  0.173-  65 2.47 191 2.47   1 2.47 214 2.48  82 2.48  25 2.48 206 2.52  73 2.52
                            16 2.52  10 2.52  74 2.52 199 2.52
 137  0.389  0.889  0.173-  66 2.47 192 2.47   2 2.47  26 2.48 215 2.48  83 2.48 207 2.52  75 2.52
                            74 2.52  11 2.52  17 2.52 200 2.52
 138  0.389  0.222  0.173-  64 2.47   3 2.47 190 2.47 216 2.48  84 2.48  27 2.48  75 2.52 205 2.52
                            12 2.52  18 2.52  73 2.52 201 2.52
 139  0.722  0.556  0.173-  68 2.47 194 2.47   4 2.47 208 2.48  85 2.48  19 2.48 200 2.52  76 2.52
                            10 2.52  13 2.52  77 2.52 202 2.52
 140  0.722  0.889  0.173-  69 2.47 195 2.47   5 2.47  20 2.48 209 2.48  86 2.48 201 2.52  78 2.52
                            77 2.52  14 2.52  11 2.52 203 2.52
 141  0.722  0.222  0.173-  67 2.47   6 2.47 193 2.47 210 2.48  87 2.48  21 2.48  78 2.52 199 2.52
                            15 2.52  12 2.52  76 2.52 204 2.52
 142  0.056  0.556  0.173-  71 2.47 197 2.47   7 2.47 211 2.48  88 2.48  22 2.48  79 2.52 203 2.52
                            16 2.52  13 2.52  80 2.52 205 2.52
 143  0.056  0.889  0.173-  72 2.47 198 2.47   8 2.47  23 2.48 212 2.48  89 2.48 204 2.52  81 2.52
                            80 2.52  17 2.52  14 2.52 206 2.52
 144  0.056  0.222  0.173-   9 2.47  70 2.47 196 2.47 213 2.48  90 2.48  24 2.48  81 2.52 202 2.52
                            18 2.52  15 2.52  79 2.52 207 2.52
 145  0.500  0.667  0.242-  34 2.48 223 2.48  91 2.48  74 2.48 200 2.48  10 2.48 215 2.52  83 2.52
                            82 2.52  19 2.52  25 2.52 208 2.52
 146  0.500  0.000  0.242- 224 2.48  92 2.48  35 2.48  75 2.48  11 2.48 201 2.48 216 2.52  20 2.52
                            26 2.52  83 2.52  84 2.52 209 2.52
 147  0.500  0.333  0.242-  36 2.48 225 2.48  93 2.48  73 2.48 199 2.48  12 2.48  84 2.52 214 2.52
                            27 2.52  21 2.52 210 2.52  82 2.52
 148  0.833  0.667  0.242-  28 2.48 217 2.48  94 2.48  77 2.48 203 2.48  13 2.48 209 2.52  86 2.52
                            85 2.52  19 2.52  22 2.52 211 2.52
 149  0.833  0.000  0.242- 218 2.48  95 2.48  29 2.48  78 2.48  14 2.48 204 2.48 210 2.52  20 2.52
                            86 2.52  23 2.52  87 2.52 212 2.52
 150  0.833  0.333  0.242-  30 2.48 219 2.48  96 2.48  76 2.48 202 2.48  15 2.48  87 2.52 208 2.52
                            21 2.52  24 2.52  85 2.52 213 2.52
 151  0.167  0.667  0.242-  31 2.48 220 2.48  97 2.48  80 2.48 206 2.48  16 2.48 212 2.52  89 2.52
                            88 2.52  25 2.52  22 2.52 214 2.52
 152  0.167  0.000  0.242- 221 2.48  98 2.48  32 2.48  81 2.48  17 2.48 207 2.48 213 2.52  26 2.52
                            23 2.52  89 2.52  90 2.52 215 2.52
 153  0.167  0.333  0.242-  33 2.48 222 2.48  99 2.48  79 2.48 205 2.48  18 2.48  90 2.52 211 2.52
                            27 2.52  24 2.52 216 2.52  88 2.52
 154  0.611  0.778  0.312-  83 2.48 232 2.48  19 2.48 209 2.48 100 2.48  43 2.48  91 2.52 224 2.52
                            34 2.52  28 2.52  92 2.52 217 2.52
 155  0.611  0.111  0.312-  84 2.48  44 2.48 233 2.48 210 2.48  20 2.48 101 2.48 225 2.52  93 2.52
                            35 2.52  29 2.52  92 2.52 218 2.52
 156  0.611  0.444  0.312- 234 2.48  21 2.48  82 2.48 102 2.48  45 2.48 208 2.48  93 2.52 223 2.52
                            30 2.52  36 2.52 219 2.52  91 2.52
 157  0.944  0.778  0.312-  86 2.48 226 2.48  22 2.48  37 2.48 212 2.48 103 2.48  94 2.52 218 2.52
                            28 2.52  31 2.52  95 2.52 220 2.52
 158  0.944  0.111  0.312-  87 2.48  38 2.48 227 2.48  23 2.48 213 2.48 104 2.48 219 2.52  96 2.52
                            29 2.52  95 2.52  32 2.52 221 2.52
 159  0.944  0.444  0.312- 228 2.48  24 2.48  85 2.48  39 2.48 105 2.48 211 2.48  96 2.52 217 2.52
                            30 2.52  33 2.52  94 2.52 222 2.52
 160  0.278  0.778  0.312-  89 2.48 229 2.48  25 2.48 215 2.48 106 2.48  40 2.48  97 2.52 221 2.52
                            34 2.52  31 2.52  98 2.52 223 2.52
 161  0.278  0.111  0.312-  90 2.48  41 2.48 230 2.48 216 2.48  26 2.48 107 2.48 222 2.52  99 2.52
                            32 2.52  35 2.52  98 2.52 224 2.52
 162  0.278  0.444  0.312- 231 2.48  27 2.48  88 2.48 108 2.48  42 2.48 214 2.48  99 2.52 220 2.52
                            36 2.52  33 2.52 225 2.52  97 2.52
 163  0.722  0.889  0.381-  92 2.48 218 2.48  28 2.48  52 2.48 241 2.48 109 2.48 233 2.52 101 2.52
                           100 2.52  37 2.52  43 2.52 226 2.52
 164  0.722  0.222  0.381-  93 2.48  29 2.48 219 2.48 242 2.48 110 2.48  53 2.48 101 2.52 234 2.52
                            38 2.52  44 2.52 102 2.52 227 2.52
 165  0.722  0.556  0.381-  91 2.48 217 2.48  30 2.48 243 2.48 111 2.48  54 2.48 232 2.52 102 2.52
                            45 2.52  39 2.52 100 2.52 228 2.52
 166  0.056  0.889  0.381-  95 2.48 221 2.48  31 2.48  46 2.48 235 2.48 112 2.48 227 2.52 104 2.52
                           103 2.52  40 2.52  37 2.52 229 2.52
 167  0.056  0.222  0.381-  32 2.48  96 2.48 222 2.48 236 2.48 113 2.48  47 2.48 104 2.52 228 2.52
                            41 2.52  38 2.52 105 2.52 230 2.52
 168  0.056  0.556  0.381-  94 2.48 220 2.48  33 2.48 237 2.48 114 2.48  48 2.48 105 2.52 226 2.52
                            42 2.52  39 2.52 103 2.52 231 2.52
 169  0.389  0.889  0.381-  98 2.48 224 2.48  34 2.48  49 2.48 238 2.48 115 2.48 230 2.52 107 2.52
                           106 2.52  43 2.52  40 2.52 232 2.52
 170  0.389  0.222  0.381-  99 2.48  35 2.48 225 2.48 239 2.48 116 2.48  50 2.48 107 2.52 231 2.52
                            44 2.52  41 2.52 108 2.52 233 2.52
 171  0.389  0.556  0.381-  97 2.48 223 2.48  36 2.48 240 2.48 117 2.48  51 2.48 229 2.52 108 2.52
                            42 2.52  45 2.52 106 2.52 234 2.52
 172  0.833  0.000  0.450- 250 2.47 118 2.47  61 2.47 101 2.48  37 2.48 227 2.48 242 2.52  52 2.52
                           109 2.52  46 2.52 110 2.52 235 2.52
 173  0.833  0.333  0.450-  62 2.47 251 2.47 119 2.47 102 2.48 228 2.48  38 2.48 110 2.52 243 2.52
                            53 2.52  47 2.52 111 2.52 236 2.52
 174  0.833  0.667  0.450-  63 2.47 252 2.47 120 2.47 100 2.48 226 2.48  39 2.48 241 2.52 109 2.52
                           111 2.52  54 2.52  48 2.52 237 2.52
 175  0.167  0.000  0.450- 244 2.47 121 2.47  55 2.47 104 2.48  40 2.48 230 2.48 236 2.52  49 2.52
                            46 2.52 112 2.52 113 2.52 238 2.52
 176  0.167  0.333  0.450-  56 2.47 245 2.47 122 2.47 105 2.48 231 2.48  41 2.48 113 2.52 237 2.52
                            50 2.52  47 2.52 239 2.52 114 2.52
 177  0.167  0.667  0.450-  57 2.47 246 2.47 123 2.47 103 2.48 229 2.48  42 2.48 235 2.52 112 2.52
                           114 2.52  51 2.52  48 2.52 240 2.52
 178  0.500  0.000  0.450- 247 2.47 124 2.47  58 2.47 107 2.48  43 2.48 233 2.48 239 2.52  52 2.52
                            49 2.52 115 2.52 116 2.52 241 2.52
 179  0.500  0.333  0.450-  59 2.47 248 2.47 125 2.47 108 2.48 234 2.48  44 2.48 116 2.52 240 2.52
                            50 2.52  53 2.52 242 2.52 117 2.52
 180  0.500  0.667  0.450-  60 2.47 249 2.47 126 2.47 106 2.48 232 2.48  45 2.48 238 2.52 115 2.52
                           117 2.52  54 2.52  51 2.52 243 2.52
 181  0.944  0.111  0.519- 110 2.47  46 2.47 236 2.47 251 2.52 119 2.52  61 2.52 118 2.52  55 2.52
                           244 2.52
 182  0.944  0.444  0.519-  47 2.47 111 2.47 237 2.47 119 2.52 252 2.52  62 2.52  56 2.52 120 2.52
                           245 2.52
 183  0.944  0.778  0.519- 109 2.47  48 2.47 235 2.47 120 2.52 250 2.52  63 2.52  57 2.52 118 2.52
                           246 2.52
 184  0.278  0.111  0.519- 113 2.47 239 2.47  49 2.47 245 2.52 122 2.52  55 2.52  58 2.52 121 2.52
                           247 2.52
 185  0.278  0.444  0.519-  50 2.47 114 2.47 240 2.47 122 2.52 246 2.52  59 2.52  56 2.52 248 2.52
                           123 2.52
 186  0.278  0.778  0.519- 112 2.47  51 2.47 238 2.47 123 2.52 244 2.52  57 2.52  60 2.52 121 2.52
                           249 2.52
 187  0.611  0.111  0.519- 116 2.47 242 2.47  52 2.47 248 2.52 125 2.52  58 2.52  61 2.52 124 2.52
                           250 2.52
 188  0.611  0.444  0.519-  53 2.47 117 2.47 243 2.47 125 2.52 249 2.52  62 2.52  59 2.52 251 2.52
                           126 2.52
 189  0.611  0.778  0.519- 115 2.47  54 2.47 241 2.47 126 2.52 247 2.52  60 2.52  63 2.52 124 2.52
                           252 2.52
 190  0.444  0.278  0.104-  12 2.47 138 2.47  73 2.47 132 2.52   3 2.52   1 2.52  67 2.52  64 2.52
                           127 2.52
 191  0.444  0.611  0.104-  10 2.47 136 2.47  74 2.47   2 2.52 130 2.52  65 2.52  68 2.52 128 2.52
                             1 2.52
 192  0.444  0.944  0.104-  11 2.47  75 2.47 137 2.47 131 2.52  69 2.52  66 2.52   3 2.52   2 2.52
                           129 2.52
 193  0.778  0.278  0.104-  15 2.47 141 2.47  76 2.47 135 2.52   6 2.52   4 2.52  67 2.52  70 2.52
                           130 2.52
 194  0.778  0.611  0.104-  13 2.47 139 2.47  77 2.47   5 2.52 133 2.52  71 2.52  68 2.52 131 2.52
                             4 2.52
 195  0.778  0.944  0.104-  14 2.47  78 2.47 140 2.47 134 2.52  72 2.52  69 2.52   6 2.52   5 2.52
                           132 2.52
 196  0.111  0.278  0.104-  18 2.47 144 2.47  79 2.47 129 2.52   9 2.52   7 2.52  64 2.52  70 2.52
                           133 2.52
 197  0.111  0.611  0.104-  16 2.47 142 2.47  80 2.47   8 2.52 127 2.52  65 2.52  71 2.52   7 2.52
                           134 2.52
 198  0.111  0.944  0.104-  17 2.47  81 2.47 143 2.47 128 2.52  66 2.52   9 2.52  72 2.52   8 2.52
                           135 2.52
 199  0.556  0.389  0.173- 130 2.47   1 2.47  67 2.47  21 2.48 147 2.48  82 2.48 141 2.52  10 2.52
                            73 2.52  76 2.52  12 2.52 136 2.52
 200  0.556  0.722  0.173- 131 2.47   2 2.47  68 2.47  19 2.48  83 2.48 145 2.48  11 2.52 139 2.52
                            74 2.52  77 2.52  10 2.52 137 2.52
 201  0.556  0.056  0.173-  69 2.47 132 2.47   3 2.47  20 2.48 146 2.48  84 2.48 140 2.52  11 2.52
                            12 2.52  75 2.52  78 2.52 138 2.52
 202  0.889  0.389  0.173- 133 2.47   4 2.47  70 2.47  24 2.48 150 2.48  85 2.48  13 2.52 144 2.52
                            76 2.52  79 2.52  15 2.52 139 2.52
 203  0.889  0.722  0.173- 134 2.47   5 2.47  71 2.47  86 2.48  22 2.48 148 2.48  14 2.52 142 2.52
                            77 2.52  80 2.52  13 2.52 140 2.52
 204  0.889  0.056  0.173-  72 2.47 135 2.47   6 2.47  23 2.48 149 2.48  87 2.48 143 2.52  14 2.52
                            15 2.52  78 2.52  81 2.52 141 2.52
 205  0.222  0.389  0.173- 127 2.47   7 2.47  64 2.47  27 2.48 153 2.48  88 2.48 138 2.52  16 2.52
                            79 2.52  73 2.52  18 2.52 142 2.52
 206  0.222  0.722  0.173- 128 2.47   8 2.47  65 2.47  25 2.48  89 2.48 151 2.48  17 2.52 136 2.52
                            74 2.52  80 2.52  16 2.52 143 2.52
 207  0.222  0.056  0.173-  66 2.47 129 2.47   9 2.47  26 2.48 152 2.48  90 2.48 137 2.52  17 2.52
                            18 2.52  75 2.52  81 2.52 144 2.52
 208  0.667  0.500  0.242-  91 2.48  30 2.48 156 2.48 139 2.48  10 2.48  76 2.48  19 2.52 150 2.52
                            82 2.52  85 2.52 145 2.52  21 2.52
 209  0.667  0.833  0.242-  28 2.48 154 2.48  92 2.48  77 2.48 140 2.48  11 2.48 148 2.52  19 2.52
                            86 2.52  83 2.52  20 2.52 146 2.52
 210  0.667  0.167  0.242-  29 2.48  93 2.48 155 2.48 141 2.48  12 2.48  78 2.48  21 2.52 149 2.52
                            87 2.52  84 2.52  20 2.52 147 2.52
 211  0.000  0.500  0.242-  94 2.48  33 2.48 159 2.48 142 2.48  79 2.48  13 2.48  22 2.52 153 2.52
                            88 2.52  85 2.52  24 2.52 148 2.52
 212  0.000  0.833  0.242-  31 2.48  95 2.48 157 2.48  80 2.48 143 2.48  14 2.48 151 2.52  22 2.52
                            89 2.52  23 2.52  86 2.52 149 2.52
 213  0.000  0.167  0.242-  32 2.48  96 2.48 158 2.48 144 2.48  81 2.48  15 2.48  24 2.52 152 2.52
                            90 2.52  87 2.52  23 2.52 150 2.52
 214  0.333  0.500  0.242-  97 2.48  36 2.48 162 2.48 136 2.48  16 2.48  73 2.48  25 2.52 147 2.52
                            82 2.52  88 2.52 151 2.52  27 2.52
 215  0.333  0.833  0.242-  34 2.48 160 2.48  98 2.48  74 2.48 137 2.48  17 2.48 145 2.52  25 2.52
                            89 2.52  83 2.52  26 2.52 152 2.52
 216  0.333  0.167  0.242-  35 2.48  99 2.48 161 2.48 138 2.48  18 2.48  75 2.48  27 2.52 146 2.52
                            90 2.52  84 2.52  26 2.52 153 2.52
 217  0.778  0.611  0.312-  39 2.48  85 2.48 148 2.48 165 2.48 100 2.48  19 2.48  28 2.52 159 2.52
                            94 2.52  91 2.52 154 2.52  30 2.52
 218  0.778  0.944  0.312-  37 2.48 149 2.48 101 2.48 163 2.48  20 2.48  86 2.48 157 2.52  92 2.52
                            95 2.52  29 2.52  28 2.52 155 2.52
 219  0.778  0.278  0.312-  38 2.48  87 2.48 150 2.48 164 2.48 102 2.48  21 2.48 158 2.52  29 2.52
                            30 2.52  93 2.52  96 2.52 156 2.52
 220  0.111  0.611  0.312-  42 2.48  88 2.48 151 2.48 168 2.48 103 2.48  22 2.48  31 2.52 162 2.52
                            97 2.52  94 2.52  33 2.52 157 2.52
 221  0.111  0.944  0.312-  40 2.48 152 2.48 104 2.48 166 2.48  23 2.48  89 2.48 160 2.52  98 2.52
                            32 2.52  95 2.52  31 2.52 158 2.52
 222  0.111  0.278  0.312-  41 2.48  90 2.48 153 2.48 167 2.48 105 2.48  24 2.48 161 2.52  32 2.52
                            33 2.52  99 2.52  96 2.52 159 2.52
 223  0.444  0.611  0.312-  45 2.48  82 2.48 145 2.48 171 2.48 106 2.48  25 2.48  34 2.52 156 2.52
                            97 2.52  91 2.52 160 2.52  36 2.52
 224  0.444  0.944  0.312-  43 2.48 146 2.48 107 2.48 169 2.48  26 2.48  83 2.48 154 2.52  92 2.52
                            98 2.52  35 2.52  34 2.52 161 2.52
 225  0.444  0.278  0.312-  44 2.48  84 2.48 147 2.48 170 2.48 108 2.48  27 2.48 155 2.52  35 2.52
                            36 2.52  93 2.52  99 2.52 162 2.52
 226  0.889  0.722  0.381- 157 2.48  28 2.48  94 2.48 109 2.48  48 2.48 174 2.48  37 2.52 168 2.52
                           100 2.52 103 2.52  39 2.52 163 2.52
 227  0.889  0.056  0.381-  95 2.48 158 2.48  29 2.48  46 2.48 172 2.48 110 2.48 166 2.52  37 2.52
                            38 2.52 101 2.52 104 2.52 164 2.52
 228  0.889  0.389  0.381- 159 2.48  30 2.48  96 2.48  47 2.48 173 2.48 111 2.48  39 2.52 167 2.52
                           102 2.52 105 2.52  38 2.52 165 2.52
 229  0.222  0.722  0.381- 160 2.48  31 2.48  97 2.48  51 2.48 112 2.48 177 2.48  40 2.52 171 2.52
                           106 2.52 103 2.52  42 2.52 166 2.52
 230  0.222  0.056  0.381-  98 2.48 161 2.48  32 2.48  49 2.48 175 2.48 113 2.48 169 2.52  40 2.52
                            41 2.52 107 2.52 104 2.52 167 2.52
 231  0.222  0.389  0.381- 162 2.48  33 2.48  99 2.48  50 2.48 176 2.48 114 2.48 170 2.52  42 2.52
                           105 2.52 108 2.52  41 2.52 168 2.52
 232  0.556  0.722  0.381- 154 2.48  34 2.48  91 2.48  54 2.48 115 2.48 180 2.48  43 2.52 165 2.52
                           100 2.52 106 2.52  45 2.52 169 2.52
 233  0.556  0.056  0.381-  92 2.48 155 2.48  35 2.48  52 2.48 178 2.48 116 2.48 163 2.52  43 2.52
                            44 2.52 101 2.52 107 2.52 170 2.52
 234  0.556  0.389  0.381- 156 2.48  36 2.48  93 2.48  53 2.48 179 2.48 117 2.48 164 2.52  45 2.52
                           108 2.52 102 2.52  44 2.52 171 2.52
 235  0.000  0.833  0.450-  57 2.47 118 2.47 183 2.47 103 2.48 166 2.48  37 2.48 177 2.52  48 2.52
                           112 2.52  46 2.52 109 2.52 172 2.52
 236  0.000  0.167  0.450-  55 2.47 119 2.47 181 2.47 167 2.48 104 2.48  38 2.48  47 2.52 175 2.52
                           113 2.52 110 2.52  46 2.52 173 2.52
 237  0.000  0.500  0.450- 120 2.47  56 2.47 182 2.47 168 2.48 105 2.48  39 2.48  48 2.52 176 2.52
                           114 2.52 111 2.52  47 2.52 174 2.52
 238  0.333  0.833  0.450-  60 2.47 186 2.47 121 2.47 106 2.48 169 2.48  40 2.48 180 2.52  51 2.52
                           112 2.52 115 2.52  49 2.52 175 2.52
 239  0.333  0.167  0.450-  58 2.47 122 2.47 184 2.47 170 2.48  41 2.48 107 2.48  50 2.52 178 2.52
                           113 2.52 116 2.52  49 2.52 176 2.52
 240  0.333  0.500  0.450- 123 2.47  59 2.47 185 2.47 171 2.48  42 2.48 108 2.48  51 2.52 179 2.52
                           117 2.52 114 2.52 177 2.52  50 2.52
 241  0.667  0.833  0.450-  63 2.47 189 2.47 124 2.47 100 2.48 163 2.48  43 2.48 174 2.52  54 2.52
                           109 2.52 115 2.52  52 2.52 178 2.52
 242  0.667  0.167  0.450-  61 2.47 125 2.47 187 2.47 164 2.48  44 2.48 101 2.48  53 2.52 172 2.52
                           110 2.52 116 2.52  52 2.52 179 2.52
 243  0.667  0.500  0.450- 126 2.47  62 2.47 188 2.47 165 2.48  45 2.48 102 2.48  54 2.52 173 2.52
                           111 2.52 117 2.52 180 2.52  53 2.52
 244  0.111  0.944  0.519- 175 2.47  46 2.47 112 2.47 186 2.52 121 2.52  55 2.52 118 2.52  57 2.52
                           181 2.52
 245  0.111  0.278  0.519- 113 2.47 176 2.47  47 2.47 184 2.52  55 2.52  56 2.52 122 2.52 119 2.52
                           182 2.52
 246  0.111  0.611  0.519- 114 2.47 177 2.47  48 2.47  57 2.52 185 2.52 123 2.52 120 2.52  56 2.52
                           183 2.52
 247  0.444  0.944  0.519- 178 2.47  49 2.47 115 2.47 189 2.52 124 2.52 121 2.52  58 2.52  60 2.52
                           184 2.52
 248  0.444  0.278  0.519- 116 2.47 179 2.47  50 2.47 187 2.52  58 2.52  59 2.52 122 2.52 125 2.52
                           185 2.52
 249  0.444  0.611  0.519- 117 2.47 180 2.47  51 2.47  60 2.52 188 2.52 123 2.52 126 2.52 186 2.52
                            59 2.52
 250  0.778  0.944  0.519- 172 2.47  52 2.47 109 2.47 183 2.52 118 2.52 124 2.52  61 2.52  63 2.52
                           187 2.52
 251  0.778  0.278  0.519- 110 2.47 173 2.47  53 2.47 181 2.52  61 2.52  62 2.52 125 2.52 119 2.52
                           188 2.52
 252  0.778  0.611  0.519- 111 2.47 174 2.47  54 2.47  63 2.52 182 2.52 120 2.52 126 2.52 189 2.52
                            62 2.52
 253  0.556  0.389  0.622- 254 1.28
 254  0.507  0.486  0.622- 253 1.28
 
  LATTYP: Found a hexagonal cell.
 ALAT       =    15.1462217588
 C/A-ratio  =     1.9146689162
  
  Lattice vectors:
  
 A1 = (   0.0000000000,  -7.5731108794,  13.1170128145)
 A2 = (   0.0000000000,  15.1462217588,   0.0000000000)
 A3 = ( -29.0000000000,   0.0000000000,   0.0000000000)


Analysis of symmetry for initial positions (statically):
=====================================================================
 Subroutine PRICEL returns:
 Original cell was already a primitive cell.
 

 Routine SETGRP: Setting up the symmetry group for a 
 hexagonal supercell.


 Subroutine GETGRP returns: Found  1 space group operations
 (whereof  1 operations were pure point group operations)
 out of a pool of 24 trial point group operations.


The static configuration has the point symmetry C_1 .


Analysis of symmetry for dynamics (positions and initial velocities):
=====================================================================
 Subroutine PRICEL returns:
 Original cell was already a primitive cell.
 

 Routine SETGRP: Setting up the symmetry group for a 
 hexagonal supercell.


 Subroutine GETGRP returns: Found  1 space group operations
 (whereof  1 operations were pure point group operations)
 out of a pool of 24 trial point group operations.


The dynamic configuration has the point symmetry C_1 .


 Subroutine INISYM returns: Found  1 space group operations
 (whereof  1 operations are pure point group operations),
 and found     1 'primitive' translations

 
 
 KPOINTS: Automatic generation                    

Automatic generation of k-mesh.
Space group operators:
 irot       det(A)        alpha          n_x          n_y          n_z        tau_x        tau_y        tau_z
    1     1.000000     0.000000     1.000000     0.000000     0.000000     0.000000     0.000000     0.000000
 
 Subroutine IBZKPT returns following result:
 ===========================================
 
 Found      4 irreducible k-points:
 
 Following reciprocal coordinates:
            Coordinates               Weight
  0.000000  0.000000  0.000000      1.000000
  0.500000  0.000000  0.000000      1.000000
  0.000000  0.500000  0.000000      1.000000
  0.500000  0.500000  0.000000      1.000000
 
 Following cartesian coordinates:
            Coordinates               Weight
  0.000000  0.000000  0.000000      1.000000
  0.000000 -0.033012  0.019059      1.000000
  0.000000  0.000000 -0.038118      1.000000
  0.000000 -0.033012 -0.019059      1.000000
 


--------------------------------------------------------------------------------------------------------




 Dimension of arrays:
   k-points           NKPTS =      4   k-points in BZ     NKDIM =      4   number of bands    NBANDS=   1518
   number of dos      NEDOS =    301   number of ions     NIONS =    254
   non local maximal  LDIM  =      7   non local SUM 2l+1 LMDIM =     25
   total plane-waves  NPLWV = 516096
   max r-space proj   IRMAX =   3739   max aug-charges    IRDMAX=   3103
   dimension x,y,z NGX =    64 NGY =   64 NGZ =  126
   dimension x,y,z NGXF=   128 NGYF=  128 NGZF=  252
   support grid    NGXF=   128 NGYF=  128 NGZF=  252
   ions per type =             252   2
   NGX,Y,Z   is equivalent  to a cutoff of   7.02,  7.02,  7.22 a.u.
   NGXF,Y,Z  is equivalent  to a cutoff of  14.05, 14.05, 14.45 a.u.

 SYSTEM =  NiAl                                    
 POSCAR =  New structure                           

 Startparameter for this run:
   NWRITE =      2    write-flag & timer
   PREC   = normal    normal or accurate (medium, high low for compatibility)
   ISTART =      0    job   : 0-new  1-cont  2-samecut
   ICHARG =      2    charge: 1-file 2-atom 10-const
   ISPIN  =      1    spin polarized calculation?
   LNONCOLLINEAR =      F non collinear calculations
   LSORBIT =      F    spin-orbit coupling
   INIWAV =      1    electr: 0-lowe 1-rand  2-diag
   LASPH  =      F    aspherical Exc in radial PAW
   METAGGA=      F    non-selfconsistent MetaGGA calc.

 Electronic Relaxation 1
   ENCUT  =  300.0 eV  22.05 Ry    4.70 a.u.  21.39 21.39 40.96*2*pi/ulx,y,z
   ENINI  =  300.0     initial cutoff
   ENAUG  =  802.3 eV  augmentation charge cutoff
   NELM   =     60;   NELMIN=  6; NELMDL= -5     # of ELM steps 
   EDIFF  = 0.5E-05   stopping-criterion for ELM
   LREAL  =      T    real-space projection
   NLSPLINE    = F    spline interpolate recip. space projectors
   LCOMPAT=      F    compatible to vasp.4.4
   GGA_COMPAT  = T    GGA compatible to vasp.4.4-vasp.4.6
   LMAXPAW     = -100 max onsite density
   LMAXMIX     =    2 max onsite mixed and CHGCAR
   VOSKOWN=      0    Vosko Wilk Nusair interpolation
   ROPT   =   -0.00050  -0.00050
 Ionic relaxation
   EDIFFG = 0.5E-04   stopping-criterion for IOM
   NSW    =      0    number of steps for IOM
   NBLOCK =      1;   KBLOCK =      1    inner block; outer block 
   IBRION =     -1    ionic relax: 0-MD 1-quasi-New 2-CG
   NFREE  =      0    steps in history (QN), initial steepest desc. (CG)
   ISIF   =      0    stress and relaxation
   IWAVPR =     10    prediction:  0-non 1-charg 2-wave 3-comb
   ISYM   =      2    0-nonsym 1-usesym 2-fastsym
   LCORR  =      T    Harris-Foulkes like correction to forces

   POTIM  = 0.5000    time-step for ionic-motion
   TEIN   =    0.0    initial temperature
   TEBEG  =    0.0;   TEEND  =   0.0 temperature during run
   SMASS  =  -3.00    Nose mass-parameter (am)
   estimated Nose-frequenzy (Omega)   =  0.10E-29 period in steps =****** mass=  -0.524E-26a.u.
   SCALEE = 1.0000    scale energy and forces
   NPACO  =    256;   APACO  = 16.0  distance and # of slots for P.C.
   PSTRESS=    0.0 pullay stress

  Mass of Ions in am
   POMASS =  58.69 14.00
  Ionic Valenz
   ZVAL   =  10.00  5.00
  Atomic Wigner-Seitz radii
   RWIGS  =  -1.00 -1.00
  virtual crystal weights 
   VCA    =   1.00  1.00
   NELECT =    2530.0000    total number of electrons
   NUPDOWN=      -1.0000    fix difference up-down

 DOS related values:
   EMIN   =  10.00;   EMAX   =-10.00  energy-range for DOS
   EFERMI =   0.00
   ISMEAR =     0;   SIGMA  =   0.05  broadening in eV -4-tet -1-fermi 0-gaus

 Electronic relaxation 2 (details)
   IALGO  =     38    algorithm
   LDIAG  =      T    sub-space diagonalisation (order eigenvalues)
   LSUBROT=      F    optimize rotation matrix (better conditioning)
   TURBO    =      0    0=normal 1=particle mesh
   IRESTART =      0    0=no restart 2=restart with 2 vectors
   NREBOOT  =      0    no. of reboots
   NMIN     =      0    reboot dimension
   EREF     =   0.00    reference energy to select bands
   IMIX   =      4    mixing-type and parameters
     AMIX     =   0.40;   BMIX     =  1.00
     AMIX_MAG =   1.60;   BMIX_MAG =  1.00
     AMIN     =   0.10
     WC   =   100.;   INIMIX=   1;  MIXPRE=   1;  MAXMIX= -45

 Intra band minimization:
   WEIMIN = 0.0000     energy-eigenvalue tresh-hold
   EBREAK =  0.82E-09  absolut break condition
   DEPER  =   0.30     relativ break condition  

   TIME   =   0.40     timestep for ELM

  volume/ion in A,a.u.               =      22.68       153.07
  Fermi-wavevector in a.u.,A,eV,Ry     =   1.244331  2.351445 21.066712  1.548360
  Thomas-Fermi vector in A             =   2.378602
 
 Write flags
   LWAVE        =      F    write WAVECAR
   LDOWNSAMPLE  =      F    k-point downsampling of WAVECAR
   LCHARG       =      F    write CHGCAR
   LVTOT        =      F    write LOCPOT, total local potential
   LVHAR        =      F    write LOCPOT, Hartree potential only
   LELF         =      F    write electronic localiz. function (ELF)
   LORBIT       =      0    0 simple, 1 ext, 2 COOP (PROOUT), +10 PAW based schemes


 Dipole corrections
   LMONO  =      F    monopole corrections only (constant potential shift)
   LDIPOL =      F    correct potential (dipole corrections)
   IDIPOL =      0    1-x, 2-y, 3-z, 4-all directions 
   EPSILON=  1.0000000 bulk dielectric constant

 Exchange correlation treatment:
   GGA     =    --    GGA type
   LEXCH   =     8    internal setting for exchange type
   VOSKOWN=      0    Vosko Wilk Nusair interpolation
   LHFCALC =     F    Hartree Fock is set to
   LHFONE  =     F    Hartree Fock one center treatment
   AEXX    =    0.0000 exact exchange contribution

 Linear response parameters
   LEPSILON=     F    determine dielectric tensor
   LRPA    =     F    only Hartree local field effects (RPA)
   LNABLA  =     F    use nabla operator in PAW spheres
   LVEL    =     F    velocity operator in full k-point grid
   LINTERFAST=   F  fast interpolation
   KINTER  =     0    interpolate to denser k-point grid
   CSHIFT  =0.1000    complex shift for real part using Kramers Kronig
   OMEGAMAX=  -1.0    maximum frequency
   DEG_THRESHOLD= 0.2000000E-02 threshold for treating states as degnerate
   RTIME   =   -0.100 relaxation time in fs
  (WPLASMAI=    0.000 imaginary part of plasma frequency in eV, 0.658/RTIME)
   DFIELD  = 0.0000000 0.0000000 0.0000000 field for delta impulse in time
 
 Orbital magnetization related:
   ORBITALMAG=     F  switch on orbital magnetization
   LCHIMAG   =     F  perturbation theory with respect to B field
   DQ        =  0.001000  dq finite difference perturbation B field
   LLRAUG    =     F  two centre corrections for induced B field



--------------------------------------------------------------------------------------------------------


 Static calculation
 charge density and potential will be updated during run
 non-spin polarized calculation
 Variant of blocked Davidson
 Davidson routine will perform the subspace rotation
 perform sub-space diagonalisation
    after iterative eigenvector-optimisation
 modified Broyden-mixing scheme, WC =      100.0
 initial mixing is a Kerker type mixing with AMIX =  0.4000 and BMIX =      1.0000
 Hartree-type preconditioning will be used
 using additional bands          253
 real space projection scheme for non local part
 use partial core corrections
 calculate Harris-corrections to forces 
   (improved forces if not selfconsistent)
 use gradient corrections 
 use of overlap-Matrix (Vanderbilt PP)
 Gauss-broadening in eV      SIGMA  =   0.05


--------------------------------------------------------------------------------------------------------


  energy-cutoff  :      300.00
  volume of cell :     5761.52
      direct lattice vectors                 reciprocal lattice vectors
     0.000000000-15.146221759  0.000000000     0.000000000 -0.066023066  0.038118435
     0.000000000 -7.573110879-13.117012814     0.000000000  0.000000000 -0.076236870
    29.000000000  0.000000000  0.000000000     0.034482759  0.000000000  0.000000000

  length of vectors
    15.146221759 15.146221759 29.000000000     0.076236870  0.076236870  0.034482759


 
 k-points in units of 2pi/SCALE and weight: Automatic generation                    
   0.00000000  0.00000000  0.00000000       0.250
   0.00000000 -0.03301153  0.01905922       0.250
   0.00000000  0.00000000 -0.03811843       0.250
   0.00000000 -0.03301153 -0.01905922       0.250
 
 k-points in reciprocal lattice and weights: Automatic generation                    
   0.00000000  0.00000000  0.00000000       0.250
   0.50000000  0.00000000  0.00000000       0.250
   0.00000000  0.50000000  0.00000000       0.250
   0.50000000  0.50000000  0.00000000       0.250
 
 position of ions in fractional coordinates (direct lattice) 
   0.44444450  0.44444418  0.10434517
   0.44444439  0.77777770  0.10434517
   0.44444423  0.11111143  0.10434517
   0.77777779  0.44444418  0.10434517
   0.77777768  0.77777770  0.10434517
   0.77777752  0.11111143  0.10434517
   0.11111120  0.44444418  0.10434517
   0.11111109  0.77777770  0.10434517
   0.11111093  0.11111143  0.10434517
   0.55555543  0.55555561  0.17318552
   0.55555532  0.88888912  0.17318552
   0.55555554  0.22222209  0.17318552
   0.88888873  0.55555561  0.17318552
   0.88888862  0.88888912  0.17318552
   0.88888884  0.22222209  0.17318552
   0.22222214  0.55555561  0.17318552
   0.22222203  0.88888912  0.17318552
   0.22222225  0.22222209  0.17318552
   0.66666637  0.66666703  0.24249897
   0.66666659  0.00000000  0.24249897
   0.66666648  0.33333352  0.24249897
   0.99999978  0.66666703  0.24249897
   0.00000000  0.00000000  0.24249897
   0.99999989  0.33333352  0.24249897
   0.33333307  0.66666703  0.24249897
   0.33333329  0.00000000  0.24249897
   0.33333318  0.33333352  0.24249897
   0.77777768  0.77777770  0.31173069
   0.77777752  0.11111143  0.31173069
   0.77777779  0.44444418  0.31173069
   0.11111109  0.77777770  0.31173069
   0.11111093  0.11111143  0.31173069
   0.11111120  0.44444418  0.31173069
   0.44444439  0.77777770  0.31173069
   0.44444423  0.11111143  0.31173069
   0.44444450  0.44444418  0.31173069
   0.88888862  0.88888912  0.38096241
   0.88888884  0.22222209  0.38096241
   0.88888873  0.55555561  0.38096241
   0.22222203  0.88888912  0.38096241
   0.22222225  0.22222209  0.38096241
   0.22222214  0.55555561  0.38096241
   0.55555532  0.88888912  0.38096241
   0.55555554  0.22222209  0.38096241
   0.55555543  0.55555561  0.38096241
   0.00000000  0.00000000  0.45027586
   0.99999989  0.33333352  0.45027586
   0.99999978  0.66666703  0.45027586
   0.33333329  0.00000000  0.45027586
   0.33333318  0.33333352  0.45027586
   0.33333307  0.66666703  0.45027586
   0.66666659  0.00000000  0.45027586
   0.66666648  0.33333352  0.45027586
   0.66666637  0.66666703  0.45027586
   0.11111093  0.11111143  0.51911621
   0.11111120  0.44444418  0.51911621
   0.11111109  0.77777770  0.51911621
   0.44444423  0.11111143  0.51911621
   0.44444450  0.44444418  0.51911621
   0.44444439  0.77777770  0.51911621
   0.77777752  0.11111143  0.51911621
   0.77777779  0.44444418  0.51911621
   0.77777768  0.77777770  0.51911621
   0.27777824  0.27777742  0.10434517
   0.27777813  0.61111094  0.10434517
   0.27777802  0.94444445  0.10434517
   0.61111153  0.27777742  0.10434517
   0.61111142  0.61111094  0.10434517
   0.61111131  0.94444445  0.10434517
   0.94444483  0.27777742  0.10434517
   0.94444472  0.61111094  0.10434517
   0.94444461  0.94444445  0.10434517
   0.38888917  0.38888885  0.17318552
   0.38888906  0.72222236  0.17318552
   0.38888928  0.05555533  0.17318552
   0.72222247  0.38888885  0.17318552
   0.72222236  0.72222236  0.17318552
   0.72222258  0.05555533  0.17318552
   0.05555588  0.38888885  0.17318552
   0.05555577  0.72222236  0.17318552
   0.05555599  0.05555533  0.17318552
   0.50000011  0.50000027  0.24249897
   0.50000038  0.83333303  0.24249897
   0.50000022  0.16666676  0.24249897
   0.83333340  0.50000027  0.24249897
   0.83333367  0.83333303  0.24249897
   0.83333351  0.16666676  0.24249897
   0.16666681  0.50000027  0.24249897
   0.16666708  0.83333303  0.24249897
   0.16666692  0.16666676  0.24249897
   0.61111142  0.61111094  0.31173069
   0.61111131  0.94444445  0.31173069
   0.61111153  0.27777742  0.31173069
   0.94444472  0.61111094  0.31173069
   0.94444461  0.94444445  0.31173069
   0.94444483  0.27777742  0.31173069
   0.27777813  0.61111094  0.31173069
   0.27777802  0.94444445  0.31173069
   0.27777824  0.27777742  0.31173069
   0.72222236  0.72222236  0.38096241
   0.72222258  0.05555533  0.38096241
   0.72222247  0.38888885  0.38096241
   0.05555577  0.72222236  0.38096241
   0.05555599  0.05555533  0.38096241
   0.05555588  0.38888885  0.38096241
   0.38888906  0.72222236  0.38096241
   0.38888928  0.05555533  0.38096241
   0.38888917  0.38888885  0.38096241
   0.83333367  0.83333303  0.45027586
   0.83333351  0.16666676  0.45027586
   0.83333340  0.50000027  0.45027586
   0.16666708  0.83333303  0.45027586
   0.16666692  0.16666676  0.45027586
   0.16666681  0.50000027  0.45027586
   0.50000038  0.83333303  0.45027586
   0.50000022  0.16666676  0.45027586
   0.50000011  0.50000027  0.45027586
   0.94444461  0.94444445  0.51911621
   0.94444483  0.27777742  0.51911621
   0.94444472  0.61111094  0.51911621
   0.27777802  0.94444445  0.51911621
   0.27777824  0.27777742  0.51911621
   0.27777813  0.61111094  0.51911621
   0.61111131  0.94444445  0.51911621
   0.61111153  0.27777742  0.51911621
   0.61111142  0.61111094  0.51911621
   0.27777785  0.44444418  0.10434517
   0.27777774  0.77777770  0.10434517
   0.27777758  0.11111143  0.10434517
   0.61111115  0.44444418  0.10434517
   0.61111104  0.77777770  0.10434517
   0.61111088  0.11111143  0.10434517
   0.94444444  0.44444418  0.10434517
   0.94444433  0.77777770  0.10434517
   0.94444417  0.11111143  0.10434517
   0.38888879  0.55555561  0.17318552
   0.38888868  0.88888912  0.17318552
   0.38888890  0.22222209  0.17318552
   0.72222208  0.55555561  0.17318552
   0.72222197  0.88888912  0.17318552
   0.72222219  0.22222209  0.17318552
   0.05555549  0.55555561  0.17318552
   0.05555538  0.88888912  0.17318552
   0.05555560  0.22222209  0.17318552
   0.49999972  0.66666703  0.24249897
   0.49999994  0.00000000  0.24249897
   0.49999983  0.33333352  0.24249897
   0.83333302  0.66666703  0.24249897
   0.83333324  0.00000000  0.24249897
   0.83333313  0.33333352  0.24249897
   0.16666643  0.66666703  0.24249897
   0.16666665  0.00000000  0.24249897
   0.16666654  0.33333352  0.24249897
   0.61111104  0.77777770  0.31173069
   0.61111088  0.11111143  0.31173069
   0.61111115  0.44444418  0.31173069
   0.94444433  0.77777770  0.31173069
   0.94444417  0.11111143  0.31173069
   0.94444444  0.44444418  0.31173069
   0.27777774  0.77777770  0.31173069
   0.27777758  0.11111143  0.31173069
   0.27777785  0.44444418  0.31173069
   0.72222197  0.88888912  0.38096241
   0.72222219  0.22222209  0.38096241
   0.72222208  0.55555561  0.38096241
   0.05555538  0.88888912  0.38096241
   0.05555560  0.22222209  0.38096241
   0.05555549  0.55555561  0.38096241
   0.38888868  0.88888912  0.38096241
   0.38888890  0.22222209  0.38096241
   0.38888879  0.55555561  0.38096241
   0.83333324  0.00000000  0.45027586
   0.83333313  0.33333352  0.45027586
   0.83333302  0.66666703  0.45027586
   0.16666665  0.00000000  0.45027586
   0.16666654  0.33333352  0.45027586
   0.16666643  0.66666703  0.45027586
   0.49999994  0.00000000  0.45027586
   0.49999983  0.33333352  0.45027586
   0.49999972  0.66666703  0.45027586
   0.94444417  0.11111143  0.51911621
   0.94444444  0.44444418  0.51911621
   0.94444433  0.77777770  0.51911621
   0.27777758  0.11111143  0.51911621
   0.27777785  0.44444418  0.51911621
   0.27777774  0.77777770  0.51911621
   0.61111088  0.11111143  0.51911621
   0.61111115  0.44444418  0.51911621
   0.61111104  0.77777770  0.51911621
   0.44444488  0.27777742  0.10434517
   0.44444477  0.61111094  0.10434517
   0.44444466  0.94444445  0.10434517
   0.77777818  0.27777742  0.10434517
   0.77777807  0.61111094  0.10434517
   0.77777796  0.94444445  0.10434517
   0.11111159  0.27777742  0.10434517
   0.11111148  0.61111094  0.10434517
   0.11111137  0.94444445  0.10434517
   0.55555582  0.38888885  0.17318552
   0.55555571  0.72222236  0.17318552
   0.55555593  0.05555533  0.17318552
   0.88888911  0.38888885  0.17318552
   0.88888900  0.72222236  0.17318552
   0.88888922  0.05555533  0.17318552
   0.22222252  0.38888885  0.17318552
   0.22222241  0.72222236  0.17318552
   0.22222264  0.05555533  0.17318552
   0.66666675  0.50000027  0.24249897
   0.66666702  0.83333303  0.24249897
   0.66666686  0.16666676  0.24249897
   0.00000016  0.50000027  0.24249897
   0.00000043  0.83333303  0.24249897
   0.00000027  0.16666676  0.24249897
   0.33333346  0.50000027  0.24249897
   0.33333373  0.83333303  0.24249897
   0.33333357  0.16666676  0.24249897
   0.77777807  0.61111094  0.31173069
   0.77777796  0.94444445  0.31173069
   0.77777818  0.27777742  0.31173069
   0.11111148  0.61111094  0.31173069
   0.11111137  0.94444445  0.31173069
   0.11111159  0.27777742  0.31173069
   0.44444477  0.61111094  0.31173069
   0.44444466  0.94444445  0.31173069
   0.44444488  0.27777742  0.31173069
   0.88888900  0.72222236  0.38096241
   0.88888922  0.05555533  0.38096241
   0.88888911  0.38888885  0.38096241
   0.22222241  0.72222236  0.38096241
   0.22222264  0.05555533  0.38096241
   0.22222252  0.38888885  0.38096241
   0.55555571  0.72222236  0.38096241
   0.55555593  0.05555533  0.38096241
   0.55555582  0.38888885  0.38096241
   0.00000043  0.83333303  0.45027586
   0.00000027  0.16666676  0.45027586
   0.00000016  0.50000027  0.45027586
   0.33333373  0.83333303  0.45027586
   0.33333357  0.16666676  0.45027586
   0.33333346  0.50000027  0.45027586
   0.66666702  0.83333303  0.45027586
   0.66666686  0.16666676  0.45027586
   0.66666675  0.50000027  0.45027586
   0.11111137  0.94444445  0.51911621
   0.11111159  0.27777742  0.51911621
   0.11111148  0.61111094  0.51911621
   0.44444466  0.94444445  0.51911621
   0.44444488  0.27777742  0.51911621
   0.44444477  0.61111094  0.51911621
   0.77777796  0.94444445  0.51911621
   0.77777818  0.27777742  0.51911621
   0.77777807  0.61111094  0.51911621
   0.55561801  0.38880804  0.62241379
   0.50682642  0.48639123  0.62241379
 
 position of ions in cartesian coordinates  (Angst):
   3.02601000-10.09748000 -5.82978000
   3.02601000-12.62185000-10.20212000
   3.02601000 -7.57311000 -1.45745000
   3.02601000-15.14622000 -5.82978000
   3.02601000-17.67059000-10.20212000
   3.02601000-12.62185000 -1.45745000
   3.02601000 -5.04874000 -5.82978000
   3.02601000 -7.57311000-10.20212000
   3.02601000 -2.52437000 -1.45745000
   5.02238000-12.62185000 -7.28723000
   5.02238000-15.14622000-11.65957000
   5.02238000-10.09748000 -2.91489000
   5.02238000-17.67059000 -7.28723000
   5.02238000-20.19496000-11.65957000
   5.02238000-15.14622000 -2.91489000
   5.02238000 -7.57311000 -7.28723000
   5.02238000-10.09748000-11.65957000
   5.02238000 -5.04874000 -2.91489000
   7.03247000-15.14622000 -8.74468000
   7.03247000-10.09748000  0.00000000
   7.03247000-12.62185000 -4.37234000
   7.03247000-20.19496176 -8.74468000
   7.03247000  0.00000000  0.00000000
   7.03247000-17.67059176 -4.37234000
   7.03247000-10.09748000 -8.74468000
   7.03247000 -5.04874000  0.00000000
   7.03247000 -7.57311000 -4.37234000
   9.04019000-17.67059000-10.20212000
   9.04019000-12.62185000 -1.45745000
   9.04019000-15.14622000 -5.82978000
   9.04019000 -7.57311000-10.20212000
   9.04019000 -2.52437000 -1.45745000
   9.04019000 -5.04874000 -5.82978000
   9.04019000-12.62185000-10.20212000
   9.04019000 -7.57311000 -1.45745000
   9.04019000-10.09748000 -5.82978000
  11.04791000-20.19496000-11.65957000
  11.04791000-15.14622000 -2.91489000
  11.04791000-17.67059000 -7.28723000
  11.04791000-10.09748000-11.65957000
  11.04791000 -5.04874000 -2.91489000
  11.04791000 -7.57311000 -7.28723000
  11.04791000-15.14622000-11.65957000
  11.04791000-10.09748000 -2.91489000
  11.04791000-12.62185000 -7.28723000
  13.05800000  0.00000000  0.00000000
  13.05800000-17.67059176 -4.37234000
  13.05800000-20.19496176 -8.74468000
  13.05800000 -5.04874000  0.00000000
  13.05800000 -7.57311000 -4.37234000
  13.05800000-10.09748000 -8.74468000
  13.05800000-10.09748000  0.00000000
  13.05800000-12.62185000 -4.37234000
  13.05800000-15.14622000 -8.74468000
  15.05437000 -2.52437000 -1.45745000
  15.05437000 -5.04874000 -5.82978000
  15.05437000 -7.57311000-10.20212000
  15.05437000 -7.57311000 -1.45745000
  15.05437000-10.09748000 -5.82978000
  15.05437000-12.62185000-10.20212000
  15.05437000-12.62185000 -1.45745000
  15.05437000-15.14622000 -5.82978000
  15.05437000-17.67059000-10.20212000
   3.02601000 -6.31093000 -3.64361000
   3.02601000 -8.83530000 -8.01595000
   3.02601000-11.35967000-12.38829000
   3.02601000-11.35967000 -3.64361000
   3.02601000-13.88404000 -8.01595000
   3.02601000-16.40841000-12.38829000
   3.02601000-16.40841000 -3.64361000
   3.02601000-18.93278000 -8.01595000
   3.02601000-21.45715000-12.38829000
   5.02238000 -8.83530000 -5.10106000
   5.02238000-11.35967000 -9.47340000
   5.02238000 -6.31093000 -0.72872000
   5.02238000-13.88404000 -5.10106000
   5.02238000-16.40841000 -9.47340000
   5.02238000-11.35967000 -0.72872000
   5.02238000 -3.78656000 -5.10106000
   5.02238000 -6.31093000 -9.47340000
   5.02238000 -1.26219000 -0.72872000
   7.03247000-11.35967000 -6.55851000
   7.03247000-13.88404000-10.93084000
   7.03247000 -8.83530000 -2.18617000
   7.03247000-16.40841000 -6.55851000
   7.03247000-18.93278000-10.93084000
   7.03247000-13.88404000 -2.18617000
   7.03247000 -6.31093000 -6.55851000
   7.03247000 -8.83530000-10.93084000
   7.03247000 -3.78656000 -2.18617000
   9.04019000-13.88404000 -8.01595000
   9.04019000-16.40841000-12.38829000
   9.04019000-11.35967000 -3.64361000
   9.04019000-18.93278000 -8.01595000
   9.04019000-21.45715000-12.38829000
   9.04019000-16.40841000 -3.64361000
   9.04019000 -8.83530000 -8.01595000
   9.04019000-11.35967000-12.38829000
   9.04019000 -6.31093000 -3.64361000
  11.04791000-16.40841000 -9.47340000
  11.04791000-11.35967000 -0.72872000
  11.04791000-13.88404000 -5.10106000
  11.04791000 -6.31093000 -9.47340000
  11.04791000 -1.26219000 -0.72872000
  11.04791000 -3.78656000 -5.10106000
  11.04791000-11.35967000 -9.47340000
  11.04791000 -6.31093000 -0.72872000
  11.04791000 -8.83530000 -5.10106000
  13.05800000-18.93278000-10.93084000
  13.05800000-13.88404000 -2.18617000
  13.05800000-16.40841000 -6.55851000
  13.05800000 -8.83530000-10.93084000
  13.05800000 -3.78656000 -2.18617000
  13.05800000 -6.31093000 -6.55851000
  13.05800000-13.88404000-10.93084000
  13.05800000 -8.83530000 -2.18617000
  13.05800000-11.35967000 -6.55851000
  15.05437000-21.45715000-12.38829000
  15.05437000-16.40841000 -3.64361000
  15.05437000-18.93278000 -8.01595000
  15.05437000-11.35967000-12.38829000
  15.05437000 -6.31093000 -3.64361000
  15.05437000 -8.83530000 -8.01595000
  15.05437000-16.40841000-12.38829000
  15.05437000-11.35967000 -3.64361000
  15.05437000-13.88404000 -8.01595000
   3.02601000 -7.57311000 -5.82978000
   3.02601000-10.09748000-10.20212000
   3.02601000 -5.04874000 -1.45745000
   3.02601000-12.62185000 -5.82978000
   3.02601000-15.14622000-10.20212000
   3.02601000-10.09748000 -1.45745000
   3.02601000-17.67059000 -5.82978000
   3.02601000-20.19496000-10.20212000
   3.02601000-15.14622000 -1.45745000
   5.02238000-10.09748000 -7.28723000
   5.02238000-12.62185000-11.65957000
   5.02238000 -7.57311000 -2.91489000
   5.02238000-15.14622000 -7.28723000
   5.02238000-17.67059000-11.65957000
   5.02238000-12.62185000 -2.91489000
   5.02238000 -5.04874000 -7.28723000
   5.02238000 -7.57311000-11.65957000
   5.02238000 -2.52437000 -2.91489000
   7.03247000-12.62185000 -8.74468000
   7.03247000 -7.57311000  0.00000000
   7.03247000-10.09748000 -4.37234000
   7.03247000-17.67059000 -8.74468000
   7.03247000-12.62185000  0.00000000
   7.03247000-15.14622000 -4.37234000
   7.03247000 -7.57311000 -8.74468000
   7.03247000 -2.52437000  0.00000000
   7.03247000 -5.04874000 -4.37234000
   9.04019000-15.14622000-10.20212000
   9.04019000-10.09748000 -1.45745000
   9.04019000-12.62185000 -5.82978000
   9.04019000-20.19496000-10.20212000
   9.04019000-15.14622000 -1.45745000
   9.04019000-17.67059000 -5.82978000
   9.04019000-10.09748000-10.20212000
   9.04019000 -5.04874000 -1.45745000
   9.04019000 -7.57311000 -5.82978000
  11.04791000-17.67059000-11.65957000
  11.04791000-12.62185000 -2.91489000
  11.04791000-15.14622000 -7.28723000
  11.04791000 -7.57311000-11.65957000
  11.04791000 -2.52437000 -2.91489000
  11.04791000 -5.04874000 -7.28723000
  11.04791000-12.62185000-11.65957000
  11.04791000 -7.57311000 -2.91489000
  11.04791000-10.09748000 -7.28723000
  13.05800000-12.62185000  0.00000000
  13.05800000-15.14622000 -4.37234000
  13.05800000-17.67059000 -8.74468000
  13.05800000 -2.52437000  0.00000000
  13.05800000 -5.04874000 -4.37234000
  13.05800000 -7.57311000 -8.74468000
  13.05800000 -7.57311000  0.00000000
  13.05800000-10.09748000 -4.37234000
  13.05800000-12.62185000 -8.74468000
  15.05437000-15.14622000 -1.45745000
  15.05437000-17.67059000 -5.82978000
  15.05437000-20.19496000-10.20212000
  15.05437000 -5.04874000 -1.45745000
  15.05437000 -7.57311000 -5.82978000
  15.05437000-10.09748000-10.20212000
  15.05437000-10.09748000 -1.45745000
  15.05437000-12.62185000 -5.82978000
  15.05437000-15.14622000-10.20212000
   3.02601000 -8.83530000 -3.64361000
   3.02601000-11.35967000 -8.01595000
   3.02601000-13.88404000-12.38829000
   3.02601000-13.88404000 -3.64361000
   3.02601000-16.40841000 -8.01595000
   3.02601000-18.93278000-12.38829000
   3.02601000 -3.78656000 -3.64361000
   3.02601000 -6.31093000 -8.01595000
   3.02601000 -8.83530000-12.38829000
   5.02238000-11.35967000 -5.10106000
[...]
     11.04791     -7.57311     -7.28723         0.009750     -0.004486      0.001302
     11.04791    -15.14622    -11.65957         0.007278     -0.000222      0.008898
     11.04791    -10.09748     -2.91489         0.006283      0.001202     -0.002133
     11.04791    -12.62185     -7.28723         0.010159     -0.005318     -0.003648
     13.05800      0.00000      0.00000         0.034668     -0.001616     -0.001249
     13.05800    -17.67059     -4.37234         0.031018     -0.000162      0.001569
     13.05800    -20.19496     -8.74468         0.029247      0.002294     -0.000956
     13.05800     -5.04874      0.00000         0.029198      0.001295     -0.000302
     13.05800     -7.57311     -4.37234         0.023699     -0.000366     -0.001323
     13.05800    -10.09748     -8.74468         0.030756     -0.001753      0.003912
     13.05800    -10.09748      0.00000         0.029149     -0.000165      0.005174
     13.05800    -12.62185     -4.37234         0.020635      0.001089     -0.004516
     13.05800    -15.14622     -8.74468         0.023088     -0.002063     -0.001735
     15.05437     -2.52437     -1.45745        -0.056617      0.001145     -0.000878
     15.05437     -5.04874     -5.82978        -0.056415     -0.001895      0.001436
     15.05437     -7.57311    -10.20212        -0.057318     -0.001016      0.000035
     15.05437     -7.57311     -1.45745        -0.059613      0.000725     -0.001834
     15.05437    -10.09748     -5.82978        -0.049058      0.031850      0.004027
     15.05437    -12.62185    -10.20212        -0.052250     -0.006096      0.000851
     15.05437    -12.62185     -1.45745        -0.057226     -0.004680      0.002374
     15.05437    -15.14622     -5.82978        -0.053967     -0.008667     -0.002924
     15.05437    -17.67059    -10.20212        -0.053254      0.005401      0.003176
      3.02601     -6.31093     -3.64361        -0.014057      0.000188     -0.000572
      3.02601     -8.83530     -8.01595        -0.008546      0.003346     -0.001320
      3.02601    -11.35967    -12.38829        -0.014169     -0.000210     -0.000013
      3.02601    -11.35967     -3.64361        -0.007956     -0.000241      0.004738
      3.02601    -13.88404     -8.01595        -0.008555     -0.003659     -0.002039
      3.02601    -16.40841    -12.38829        -0.009634     -0.003088      0.002661
      3.02601    -16.40841     -3.64361        -0.015312      0.000427     -0.000174
      3.02601    -18.93278     -8.01595        -0.010301      0.000381     -0.004512
      3.02601    -21.45715    -12.38829        -0.011581      0.003326      0.001617
      5.02238     -8.83530     -5.10106         0.038365      0.000410      0.000463
      5.02238    -11.35967     -9.47340         0.038459     -0.000208     -0.000432
      5.02238     -6.31093     -0.72872         0.040300     -0.001930      0.001389
      5.02238    -13.88404     -5.10106         0.036172     -0.000450      0.001191
      5.02238    -16.40841     -9.47340         0.047073      0.002846      0.000347
      5.02238    -11.35967     -0.72872         0.045732      0.000903     -0.005154
      5.02238     -3.78656     -5.10106         0.038888      0.000091     -0.000949
      5.02238     -6.31093     -9.47340         0.046795     -0.002662      0.002272
      5.02238     -1.26219     -0.72872         0.037854      0.001114     -0.000307
      7.03247    -11.35967     -6.55851         0.018490      0.001435      0.000276
      7.03247    -13.88404    -10.93084         0.019432     -0.002091     -0.003289
      7.03247     -8.83530     -2.18617         0.019343      0.001926      0.001842
      7.03247    -16.40841     -6.55851         0.019748     -0.002809     -0.000826
      7.03247    -18.93278    -10.93084         0.028024      0.001648      0.001383
      7.03247    -13.88404     -2.18617         0.017680     -0.000502      0.000851
      7.03247     -6.31093     -6.55851         0.020935      0.001707      0.000474
      7.03247     -8.83530    -10.93084         0.019467      0.000219     -0.001008
      7.03247     -3.78656     -2.18617         0.026645     -0.001212      0.000009
      9.04019    -13.88404     -8.01595        -0.035290      0.002726      0.001803
      9.04019    -16.40841    -12.38829        -0.035703      0.004289     -0.001427
      9.04019    -11.35967     -3.64361        -0.027873      0.002219     -0.005826
      9.04019    -18.93278     -8.01595        -0.033996     -0.000129      0.003999
      9.04019    -21.45715    -12.38829        -0.034923     -0.002571     -0.000766
      9.04019    -16.40841     -3.64361        -0.033600     -0.000708     -0.001602
      9.04019     -8.83530     -8.01595        -0.035310     -0.003001      0.004608
      9.04019    -11.35967    -12.38829        -0.034404     -0.001645      0.000604
      9.04019     -6.31093     -3.64361        -0.034284     -0.001152     -0.001266
     11.04791    -16.40841     -9.47340         0.008334      0.000868      0.000431
     11.04791    -11.35967     -0.72872         0.008967      0.001372     -0.003208
     11.04791    -13.88404     -5.10106         0.008795      0.002722     -0.000643
     11.04791     -6.31093     -9.47340         0.008178     -0.000970      0.002571
     11.04791     -1.26219     -0.72872         0.009971     -0.009787     -0.005238
     11.04791     -3.78656     -5.10106         0.008074     -0.000791      0.009570
     11.04791    -11.35967     -9.47340         0.009028      0.000239      0.003022
     11.04791     -6.31093     -0.72872         0.006935      0.008521     -0.004662
     11.04791     -8.83530     -5.10106         0.006203     -0.001902     -0.000734
     13.05800    -18.93278    -10.93084         0.022010      0.001518      0.001107
     13.05800    -13.88404     -2.18617         0.030816      0.000293     -0.001767
     13.05800    -16.40841     -6.55851         0.028404     -0.001749     -0.001053
     13.05800     -8.83530    -10.93084         0.030105     -0.001528      0.001444
     13.05800     -3.78656     -2.18617         0.022368      0.001380     -0.000512
     13.05800     -6.31093     -6.55851         0.026846      0.001287     -0.000638
     13.05800    -13.88404    -10.93084         0.029264     -0.000034      0.001205
     13.05800     -8.83530     -2.18617         0.027176     -0.001308     -0.001124
     13.05800    -11.35967     -6.55851        -0.001726      0.000679     -0.004320
     15.05437    -21.45715    -12.38829        -0.056195      0.002214      0.000161
     15.05437    -16.40841     -3.64361        -0.051159     -0.004189      0.001889
     15.05437    -18.93278     -8.01595        -0.054598      0.000750     -0.001960
     15.05437    -11.35967    -12.38829        -0.053121     -0.000378     -0.004499
     15.05437     -6.31093     -3.64361        -0.054506      0.004899      0.001255
     15.05437     -8.83530     -8.01595        -0.063075      0.004555     -0.006718
     15.05437    -16.40841    -12.38829        -0.055465     -0.001862      0.002136
     15.05437    -11.35967     -3.64361        -0.008635     -0.000585      0.011971
     15.05437    -13.88404     -8.01595        -0.061858     -0.005457     -0.007482
      3.02601     -7.57311     -5.82978        -0.015457     -0.000694     -0.000364
      3.02601    -10.09748    -10.20212        -0.014633      0.000596      0.000033
      3.02601     -5.04874     -1.45745        -0.008752      0.003422     -0.001181
      3.02601    -12.62185     -5.82978        -0.005738     -0.003414      0.003196
      3.02601    -15.14622    -10.20212        -0.009783      0.000353      0.002649
      3.02601    -10.09748     -1.45745        -0.008644     -0.004501     -0.002360
      3.02601    -17.67059     -5.82978        -0.009882      0.003616      0.002981
      3.02601    -20.19496    -10.20212        -0.016232     -0.000153     -0.001570
      3.02601    -15.14622     -1.45745        -0.011224      0.001248     -0.003301
      5.02238    -10.09748     -7.28723         0.038804     -0.000501      0.000842
      5.02238    -12.62185    -11.65957         0.038455      0.001209      0.001577
      5.02238     -7.57311     -2.91489         0.038699     -0.002153     -0.001732
      5.02238    -15.14622     -7.28723         0.046879      0.002122     -0.002396
      5.02238    -17.67059    -11.65957         0.037694     -0.000965     -0.000402
      5.02238    -12.62185     -2.91489         0.046021      0.003074      0.001287
      5.02238     -5.04874     -7.28723         0.039727     -0.000252      0.000242
      5.02238     -7.57311    -11.65957         0.037589     -0.000718     -0.001821
      5.02238     -2.52437     -2.91489         0.046245     -0.001332      0.002230
      7.03247    -12.62185     -8.74468         0.018485      0.003235      0.002741
      7.03247     -7.57311      0.00000         0.028504     -0.000513      0.000161
      7.03247    -10.09748     -4.37234         0.015349     -0.000946     -0.003515
      7.03247    -17.67059     -8.74468         0.020318     -0.002923      0.000327
      7.03247    -12.62185      0.00000         0.018360     -0.001782      0.000936
      7.03247    -15.14622     -4.37234         0.026059      0.001461     -0.000292
      7.03247     -7.57311     -8.74468         0.028065     -0.001530      0.001526
      7.03247     -2.52437      0.00000         0.018986      0.002405      0.001595
      7.03247     -5.04874     -4.37234         0.020595     -0.000427     -0.002639
      9.04019    -15.14622    -10.20212        -0.035948      0.000141     -0.005841
      9.04019    -10.09748     -1.45745        -0.038326      0.004143      0.002296
      9.04019    -12.62185     -5.82978        -0.027494      0.005424     -0.001665
      9.04019    -20.19496    -10.20212        -0.033862      0.000421      0.000618
      9.04019    -15.14622     -1.45745        -0.034634      0.000452      0.003396
      9.04019    -17.67059     -5.82978        -0.034162     -0.003410     -0.002342
      9.04019    -10.09748    -10.20212        -0.034238     -0.000356      0.001907
      9.04019     -5.04874     -1.45745        -0.034591     -0.004586      0.003073
      9.04019     -7.57311     -5.82978        -0.034252     -0.002464     -0.000807
     11.04791    -17.67059    -11.65957         0.008783      0.000542     -0.000120
     11.04791    -12.62185     -2.91489         0.008078     -0.000209     -0.002116
     11.04791    -15.14622     -7.28723         0.011329      0.004713      0.000573
     11.04791     -7.57311    -11.65957         0.008685     -0.000941      0.009397
     11.04791     -2.52437     -2.91489         0.010422     -0.001100      0.001175
     11.04791     -5.04874     -7.28723         0.006905     -0.009283     -0.004531
     11.04791    -12.62185    -11.65957         0.008284     -0.000158      0.000465
     11.04791     -7.57311     -2.91489         0.006430     -0.000853     -0.000872
     11.04791    -10.09748     -7.28723         0.009186      0.006605     -0.003503
     13.05800    -12.62185      0.00000         0.030273     -0.000129      0.002714
     13.05800    -15.14622     -4.37234         0.026582      0.000875      0.001127
     13.05800    -17.67059     -8.74468         0.029767     -0.000898     -0.002084
     13.05800     -2.52437      0.00000         0.029940     -0.000262     -0.001049
     13.05800     -5.04874     -4.37234         0.029666      0.001061      0.000645
     13.05800     -7.57311     -8.74468         0.021972     -0.000220     -0.000409
     13.05800     -7.57311      0.00000         0.032117      0.000796      0.002083
     13.05800    -10.09748     -4.37234         0.019085     -0.002933     -0.006113
     13.05800    -12.62185     -8.74468         0.030522      0.002990      0.003489
     15.05437    -15.14622     -1.45745        -0.055380     -0.000912     -0.003089
     15.05437    -17.67059     -5.82978        -0.054883      0.003572      0.001795
     15.05437    -20.19496    -10.20212        -0.054056     -0.005067      0.002394
     15.05437     -5.04874     -1.45745        -0.057998      0.000481      0.000664
     15.05437     -7.57311     -5.82978        -0.055481      0.007149     -0.003898
     15.05437    -10.09748    -10.20212        -0.054332      0.005113      0.001345
     15.05437    -10.09748     -1.45745        -0.058744      0.002567      0.002231
     15.05437    -12.62185     -5.82978        -0.048078     -0.032359      0.004425
     15.05437    -15.14622    -10.20212        -0.055465      0.001601      0.000169
      3.02601     -8.83530     -3.64361        -0.015033     -0.001697     -0.000585
      3.02601    -11.35967     -8.01595        -0.008026      0.000391     -0.003548
      3.02601    -13.88404    -12.38829        -0.009727      0.002836      0.002652
      3.02601    -13.88404     -3.64361        -0.017158      0.000843      0.000929
      3.02601    -16.40841     -8.01595        -0.009195      0.003861     -0.001432
      3.02601    -18.93278    -12.38829        -0.015597     -0.000983      0.000008
      3.02601     -3.78656     -3.64361        -0.009346      0.001197      0.003404
      3.02601     -6.31093     -8.01595        -0.008946     -0.004142     -0.002280
      3.02601     -8.83530    -12.38829        -0.011342     -0.001627      0.001712
      5.02238    -11.35967     -5.10106         0.033277      0.000055     -0.000800
      5.02238    -13.88404     -9.47340         0.046840     -0.002134      0.002449
      5.02238     -8.83530     -0.72872         0.039098     -0.000164      0.000145
      5.02238    -16.40841     -5.10106         0.036177      0.003282      0.001635
      5.02238    -18.93278     -9.47340         0.036273      0.000070     -0.001840
      5.02238    -13.88404     -0.72872         0.036366     -0.000712     -0.001445
      5.02238     -6.31093     -5.10106         0.037885     -0.003067     -0.000271
      5.02238     -8.83530     -9.47340         0.047580      0.001935      0.003195
      5.02238     -3.78656     -0.72872         0.047680      0.000950     -0.003220
      7.03247    -13.88404     -6.55851         0.018296      0.004358      0.000549
      7.03247    -16.40841    -10.93084         0.020267      0.000476     -0.002651
      7.03247    -11.35967     -2.18617         0.026280      0.000731     -0.001712
      7.03247     -3.78656     -6.55851         0.029236     -0.000665     -0.000832
      7.03247     -6.31093    -10.93084         0.019094     -0.000552     -0.001428
      7.03247     -1.26219     -2.18617         0.018077      0.002405      0.002282
      7.03247     -8.83530     -6.55851         0.019995     -0.003915      0.000169
      7.03247    -11.35967    -10.93084         0.027663      0.000010      0.001056
      7.03247     -6.31093     -2.18617         0.020757     -0.002793      0.002212
      9.04019    -16.40841     -8.01595        -0.036071     -0.004125      0.002202
      9.04019    -18.93278    -12.38829        -0.034014      0.000845      0.000108
      9.04019    -13.88404     -3.64361        -0.032957      0.001633     -0.001483
      9.04019     -6.31093     -8.01595        -0.036336      0.002720      0.003398
      9.04019     -8.83530    -12.38829        -0.034493      0.002164     -0.000775
      9.04019     -3.78656     -3.64361        -0.034029     -0.000865     -0.004873
      9.04019    -11.35967     -8.01595        -0.029560      0.001668      0.004333
      9.04019    -13.88404    -12.38829        -0.035145     -0.003006     -0.001459
      9.04019     -8.83530     -3.64361        -0.033508     -0.000668     -0.002536
     11.04791    -18.93278     -9.47340         0.009331     -0.000195      0.000795
     11.04791    -13.88404     -0.72872         0.009421      0.007697     -0.005382
     11.04791    -16.40841     -5.10106         0.009602      0.000284      0.000128
     11.04791     -8.83530     -9.47340         0.008584     -0.000920      0.003403
     11.04791     -3.78656     -0.72872         0.009534      0.000560     -0.001449
     11.04791     -6.31093     -5.10106         0.007015     -0.000845     -0.000928
     11.04791    -13.88404     -9.47340         0.008853      0.000962      0.002275
     11.04791     -8.83530     -0.72872         0.006314     -0.008085     -0.005044
     11.04791    -11.35967     -5.10106         0.010234      0.000877      0.006004
     13.05800     -6.31093    -10.93084         0.029649      0.001202     -0.000077
     13.05800     -1.26219     -2.18617         0.031387     -0.000346     -0.000218
     13.05800     -3.78656     -6.55851         0.033392      0.000262      0.000598
     13.05800    -11.35967    -10.93084         0.024234      0.000435      0.001115
     13.05800     -6.31093     -2.18617         0.028910      0.002313     -0.000765
     13.05800     -8.83530     -6.55851         0.030241     -0.007043     -0.000749
     13.05800    -16.40841    -10.93084         0.029275     -0.001769      0.000956
     13.05800    -11.35967     -2.18617         0.021114     -0.001662     -0.000684
     13.05800    -13.88404     -6.55851         0.032279      0.006779      0.000953
     15.05437     -8.83530    -12.38829        -0.057054     -0.002476      0.000645
     15.05437     -3.78656     -3.64361        -0.057487      0.001890     -0.001558
     15.05437     -6.31093     -8.01595        -0.056079     -0.001825      0.001469
     15.05437    -13.88404    -12.38829        -0.054811      0.003043      0.003176
     15.05437     -8.83530     -3.64361        -0.061092      0.010640      0.010416
     15.05437    -11.35967     -8.01595        -0.019894     -0.000047     -0.030047
     15.05437    -18.93278    -12.38829        -0.053601     -0.000809     -0.005433
     15.05437    -13.88404     -3.64361        -0.059816     -0.012343      0.011944
     15.05437    -16.40841     -8.01595        -0.055644      0.001557      0.002121
     18.05000    -11.36000     -5.10000         0.021960     -0.001086    -11.616330
     18.05000    -11.36000     -6.38000        -0.002607      0.001084     11.615554
 -----------------------------------------------------------------------------------
    total drift:                               -0.382549      0.000806      0.000695


--------------------------------------------------------------------------------------------------------



  FREE ENERGIE OF THE ION-ELECTRON SYSTEM (eV)
  ---------------------------------------------------
  free  energy   TOTEN  =     -1303.61588671 eV

  energy  without entropy=    -1302.22553395  energy(sigma->0) =    -1302.92071033
 


--------------------------------------------------------------------------------------------------------


    POTLOK:  cpu time    0.6769: real time    0.6859


--------------------------------------------------------------------------------------------------------


     LOOP+:  cpu time 6636.8519: real time 7268.2642
    4ORBIT:  cpu time    0.0000: real time    0.0000

 total amount of memory used by VASP MPI-rank0  1418736. kBytes
=======================================================================

   base      :      30000. kBytes
   nonlr-proj:      91236. kBytes
   fftplans  :      25882. kBytes
   grid      :      60674. kBytes
   one-center:       7620. kBytes
   wavefun   :    1203324. kBytes
 
  
  
 General timing and accounting informations for this job:
 ========================================================
  
                  Total CPU time used (sec):     6687.187
                            User time (sec):     1619.607
                          System time (sec):     5067.580
                         Elapsed time (sec):     7323.724
  
                   Maximum memory used (kb):     1815960.
                   Average memory used (kb):           0.
  
                          Minor page faults:    149212598
                          Major page faults:           54
                 Voluntary context switches:        93364
