 254 254   0   0
  0.3019211E+02  0.1718057E-08  0.1718057E-08  0.3000000E-08  0.5000000E-15
  1.000000000000000E-004
  CAR 
 NiAl                                    
      5.37373867    -21.20869803  301      1.80694417      1.00000000
    -21.209  0.0000E+00  0.0000E+00
    -21.120  0.0000E+00  0.0000E+00
    -21.031  0.0000E+00  0.0000E+00
    -20.943  0.0000E+00  0.0000E+00
    -20.854  0.0000E+00  0.0000E+00
    -20.766  0.0000E+00  0.0000E+00
    -20.677  0.0000E+00  0.0000E+00
    -20.588  0.0000E+00  0.0000E+00
    -20.500  0.0000E+00  0.0000E+00
    -20.411  0.0000E+00  0.0000E+00
    -20.323  0.0000E+00  0.0000E+00
    -20.234  0.4392E-09  0.3891E-10
    -20.145  0.4624E-03  0.4097E-04
    -20.057  0.1247E+01  0.1105E+00
    -19.968  0.1723E+02  0.1637E+01
    -19.880  0.4085E+01  0.1999E+01
    -19.791  0.7153E-02  0.2000E+01
    -19.702  0.3570E-07  0.2000E+01
    -19.614  0.0000E+00  0.2000E+01
    -19.525  0.0000E+00  0.2000E+01
    -19.437  0.0000E+00  0.2000E+01
    -19.348  0.0000E+00  0.2000E+01
    -19.259  0.0000E+00  0.2000E+01
    -19.171  0.0000E+00  0.2000E+01
    -19.082  0.0000E+00  0.2000E+01
    -18.993  0.0000E+00  0.2000E+01
    -18.905  0.0000E+00  0.2000E+01
    -18.816  0.0000E+00  0.2000E+01
    -18.728  0.0000E+00  0.2000E+01
    -18.639  0.0000E+00  0.2000E+01
    -18.550  0.0000E+00  0.2000E+01
    -18.462  0.0000E+00  0.2000E+01
    -18.373  0.0000E+00  0.2000E+01
    -18.285  0.0000E+00  0.2000E+01
    -18.196  0.0000E+00  0.2000E+01
    -18.107  0.0000E+00  0.2000E+01
    -18.019  0.0000E+00  0.2000E+01
    -17.930  0.0000E+00  0.2000E+01
    -17.842  0.0000E+00  0.2000E+01
    -17.753  0.0000E+00  0.2000E+01
    -17.664  0.0000E+00  0.2000E+01
    -17.576  0.0000E+00  0.2000E+01
    -17.487  0.0000E+00  0.2000E+01
    -17.399  0.0000E+00  0.2000E+01
    -17.310  0.0000E+00  0.2000E+01
    -17.221  0.0000E+00  0.2000E+01
    -17.133  0.0000E+00  0.2000E+01
    -17.044  0.0000E+00  0.2000E+01
    -16.956  0.0000E+00  0.2000E+01
    -16.867  0.0000E+00  0.2000E+01
    -16.778  0.0000E+00  0.2000E+01
    -16.690  0.0000E+00  0.2000E+01
    -16.601  0.0000E+00  0.2000E+01
    -16.512  0.0000E+00  0.2000E+01
    -16.424  0.0000E+00  0.2000E+01
    -16.335  0.0000E+00  0.2000E+01
    -16.247  0.0000E+00  0.2000E+01
    -16.158  0.0000E+00  0.2000E+01
    -16.069  0.0000E+00  0.2000E+01
    -15.981  0.0000E+00  0.2000E+01
    -15.892  0.0000E+00  0.2000E+01
    -15.804  0.0000E+00  0.2000E+01
    -15.715  0.0000E+00  0.2000E+01
    -15.626  0.0000E+00  0.2000E+01
    -15.538  0.0000E+00  0.2000E+01
    -15.449  0.0000E+00  0.2000E+01
    -15.361  0.0000E+00  0.2000E+01
    -15.272  0.0000E+00  0.2000E+01
    -15.183  0.0000E+00  0.2000E+01
    -15.095  0.0000E+00  0.2000E+01
    -15.006  0.0000E+00  0.2000E+01
    -14.918  0.0000E+00  0.2000E+01
    -14.829  0.0000E+00  0.2000E+01
    -14.740  0.0000E+00  0.2000E+01
    -14.652  0.0000E+00  0.2000E+01
    -14.563  0.0000E+00  0.2000E+01
    -14.474  0.0000E+00  0.2000E+01
    -14.386  0.0000E+00  0.2000E+01
    -14.297  0.0000E+00  0.2000E+01
    -14.209  0.0000E+00  0.2000E+01
    -14.120  0.0000E+00  0.2000E+01
    -14.031  0.0000E+00  0.2000E+01
    -13.943  0.0000E+00  0.2000E+01
    -13.854  0.0000E+00  0.2000E+01
    -13.766  0.0000E+00  0.2000E+01
    -13.677  0.0000E+00  0.2000E+01
    -13.588  0.0000E+00  0.2000E+01
    -13.500  0.0000E+00  0.2000E+01
    -13.411  0.0000E+00  0.2000E+01
    -13.323  0.0000E+00  0.2000E+01
    -13.234  0.0000E+00  0.2000E+01
    -13.145  0.0000E+00  0.2000E+01
    -13.057  0.0000E+00  0.2000E+01
    -12.968  0.0000E+00  0.2000E+01
    -12.880  0.0000E+00  0.2000E+01
    -12.791  0.0000E+00  0.2000E+01
    -12.702  0.0000E+00  0.2000E+01
    -12.614  0.0000E+00  0.2000E+01
    -12.525  0.0000E+00  0.2000E+01
    -12.436  0.0000E+00  0.2000E+01
    -12.348  0.0000E+00  0.2000E+01
    -12.259  0.0000E+00  0.2000E+01
    -12.171  0.0000E+00  0.2000E+01
    -12.082  0.0000E+00  0.2000E+01
    -11.993  0.0000E+00  0.2000E+01
    -11.905  0.0000E+00  0.2000E+01
    -11.816  0.0000E+00  0.2000E+01
    -11.728  0.0000E+00  0.2000E+01
    -11.639  0.0000E+00  0.2000E+01
    -11.550  0.0000E+00  0.2000E+01
    -11.462  0.0000E+00  0.2000E+01
    -11.373  0.0000E+00  0.2000E+01
    -11.285  0.0000E+00  0.2000E+01
    -11.196  0.0000E+00  0.2000E+01
    -11.107  0.0000E+00  0.2000E+01
    -11.019  0.0000E+00  0.2000E+01
    -10.930  0.0000E+00  0.2000E+01
    -10.842  0.0000E+00  0.2000E+01
    -10.753  0.0000E+00  0.2000E+01
    -10.664  0.0000E+00  0.2000E+01
    -10.576  0.0000E+00  0.2000E+01
    -10.487  0.0000E+00  0.2000E+01
    -10.399  0.0000E+00  0.2000E+01
    -10.310  0.0000E+00  0.2000E+01
    -10.221  0.0000E+00  0.2000E+01
    -10.133  0.0000E+00  0.2000E+01
    -10.044  0.0000E+00  0.2000E+01
     -9.955  0.0000E+00  0.2000E+01
     -9.867  0.0000E+00  0.2000E+01
     -9.778  0.0000E+00  0.2000E+01
     -9.690  0.0000E+00  0.2000E+01
     -9.601  0.0000E+00  0.2000E+01
     -9.512  0.0000E+00  0.2000E+01
     -9.424  0.0000E+00  0.2000E+01
     -9.335  0.9459E-09  0.2000E+01
     -9.247  0.4509E-03  0.2000E+01
     -9.158  0.5763E+00  0.2051E+01
     -9.069  0.4465E+01  0.2447E+01
     -8.981  0.6160E+01  0.2993E+01
     -8.892  0.2616E+02  0.5311E+01
     -8.804  0.2725E+01  0.5552E+01
     -8.715  0.4534E+01  0.5954E+01
     -8.626  0.1825E+02  0.7571E+01
     -8.538  0.4822E+02  0.1184E+02
     -8.449  0.3412E+02  0.1487E+02
     -8.361  0.2386E+02  0.1698E+02
     -8.272  0.1263E+02  0.1810E+02
     -8.183  0.2119E+02  0.1998E+02
     -8.095  0.2032E+02  0.2178E+02
     -8.006  0.2367E+02  0.2388E+02
     -7.917  0.7508E+02  0.3053E+02
     -7.829  0.2220E+02  0.3249E+02
     -7.740  0.7169E-01  0.3250E+02
     -7.652  0.1340E+02  0.3369E+02
     -7.563  0.1051E+03  0.4300E+02
     -7.474  0.2284E+02  0.4502E+02
     -7.386  0.2602E+02  0.4733E+02
     -7.297  0.1050E+02  0.4826E+02
     -7.209  0.2961E+02  0.5088E+02
     -7.120  0.3480E+02  0.5396E+02
     -7.031  0.3568E+02  0.5712E+02
     -6.943  0.8049E+02  0.6426E+02
     -6.854  0.5442E+02  0.6908E+02
     -6.766  0.4343E+02  0.7293E+02
     -6.677  0.2875E+02  0.7548E+02
     -6.588  0.9841E+02  0.8419E+02
     -6.500  0.3718E+02  0.8749E+02
     -6.411  0.2622E+02  0.8981E+02
     -6.323  0.2211E+01  0.9001E+02
     -6.234  0.3795E+01  0.9035E+02
     -6.145  0.4321E+02  0.9417E+02
     -6.057  0.1173E+03  0.1046E+03
     -5.968  0.7821E+02  0.1115E+03
     -5.879  0.6733E+02  0.1175E+03
     -5.791  0.2760E+02  0.1199E+03
     -5.702  0.4372E+02  0.1238E+03
     -5.614  0.1080E+03  0.1334E+03
     -5.525  0.5917E+02  0.1386E+03
     -5.436  0.2752E+02  0.1410E+03
     -5.348  0.1808E+02  0.1426E+03
     -5.259  0.7978E+02  0.1497E+03
     -5.171  0.3769E+02  0.1531E+03
     -5.082  0.8751E+02  0.1608E+03
     -4.993  0.6762E+02  0.1668E+03
     -4.905  0.6059E+02  0.1722E+03
     -4.816  0.2147E+02  0.1741E+03
     -4.728  0.5173E+02  0.1787E+03
     -4.639  0.1229E+03  0.1895E+03
     -4.550  0.6685E+02  0.1955E+03
     -4.462  0.7347E+02  0.2020E+03
     -4.373  0.4219E+02  0.2057E+03
     -4.285  0.6481E+02  0.2115E+03
     -4.196  0.6735E+02  0.2174E+03
     -4.107  0.1417E+03  0.2300E+03
     -4.019  0.8821E+02  0.2378E+03
     -3.930  0.4911E+02  0.2422E+03
     -3.842  0.6343E+02  0.2478E+03
     -3.753  0.8020E+02  0.2549E+03
     -3.664  0.9544E+02  0.2633E+03
     -3.576  0.5793E+02  0.2685E+03
     -3.487  0.6642E+02  0.2744E+03
     -3.398  0.3247E+02  0.2772E+03
     -3.310  0.5674E+01  0.2777E+03
     -3.221  0.5924E+02  0.2830E+03
     -3.133  0.9346E+02  0.2913E+03
     -3.044  0.1064E+03  0.3007E+03
     -2.955  0.8388E+02  0.3081E+03
     -2.867  0.1044E+03  0.3174E+03
     -2.778  0.1580E+03  0.3314E+03
     -2.690  0.1818E+03  0.3475E+03
     -2.601  0.2280E+02  0.3495E+03
     -2.512  0.7677E+00  0.3496E+03
     -2.424  0.2787E+02  0.3520E+03
     -2.335  0.7427E+02  0.3586E+03
     -2.247  0.1406E+03  0.3711E+03
     -2.158  0.6717E+02  0.3770E+03
     -2.069  0.1056E+03  0.3864E+03
     -1.981  0.3793E+02  0.3897E+03
     -1.892  0.7466E+02  0.3964E+03
     -1.804  0.1078E+03  0.4059E+03
     -1.715  0.1613E+03  0.4202E+03
     -1.626  0.2863E+02  0.4227E+03
     -1.538  0.6590E+02  0.4286E+03
     -1.449  0.7900E+02  0.4356E+03
     -1.360  0.6920E+02  0.4417E+03
     -1.272  0.1976E+03  0.4592E+03
     -1.183  0.9036E+02  0.4672E+03
     -1.095  0.1019E+03  0.4762E+03
     -1.006  0.6903E+02  0.4824E+03
     -0.917  0.7021E+02  0.4886E+03
     -0.829  0.1418E+03  0.5011E+03
     -0.740  0.8880E+02  0.5090E+03
     -0.652  0.6780E+02  0.5150E+03
     -0.563  0.2791E+02  0.5175E+03
     -0.474  0.9244E+02  0.5257E+03
     -0.386  0.2208E+03  0.5453E+03
     -0.297  0.8502E+02  0.5528E+03
     -0.209  0.1486E+03  0.5660E+03
     -0.120  0.6590E+02  0.5718E+03
     -0.031  0.3839E+02  0.5752E+03
      0.057  0.5775E+02  0.5803E+03
      0.146  0.1128E+03  0.5903E+03
      0.234  0.8639E+02  0.5980E+03
      0.323  0.8358E+02  0.6054E+03
      0.412  0.7117E+02  0.6117E+03
      0.500  0.1403E+03  0.6241E+03
      0.589  0.9986E+02  0.6330E+03
      0.678  0.6649E+02  0.6388E+03
      0.766  0.3508E+02  0.6420E+03
      0.855  0.5812E+02  0.6471E+03
      0.943  0.1060E+03  0.6565E+03
      1.032  0.2706E+03  0.6805E+03
      1.121  0.1301E+03  0.6920E+03
      1.209  0.8731E+02  0.6997E+03
      1.298  0.7543E+02  0.7064E+03
      1.386  0.6701E+02  0.7124E+03
      1.475  0.8691E+02  0.7201E+03
      1.564  0.1312E+03  0.7317E+03
      1.652  0.1728E+03  0.7470E+03
      1.741  0.1584E+03  0.7610E+03
      1.829  0.6384E+02  0.7667E+03
      1.918  0.3407E+02  0.7697E+03
      2.007  0.1786E+03  0.7855E+03
      2.095  0.1124E+03  0.7955E+03
      2.184  0.6952E+02  0.8017E+03
      2.272  0.8166E+02  0.8089E+03
      2.361  0.5349E+02  0.8136E+03
      2.450  0.1218E+03  0.8244E+03
      2.538  0.8559E+02  0.8320E+03
      2.627  0.1363E+03  0.8441E+03
      2.715  0.1136E+03  0.8542E+03
      2.804  0.7791E+02  0.8611E+03
      2.893  0.1080E+03  0.8706E+03
      2.981  0.3132E+03  0.8984E+03
      3.070  0.1840E+03  0.9147E+03
      3.159  0.5572E+02  0.9196E+03
      3.247  0.7471E+02  0.9262E+03
      3.336  0.1162E+03  0.9365E+03
      3.424  0.1410E+03  0.9490E+03
      3.513  0.1399E+03  0.9614E+03
      3.602  0.7572E+02  0.9682E+03
      3.690  0.1007E+03  0.9771E+03
      3.779  0.9731E+02  0.9857E+03
      3.867  0.6244E+02  0.9912E+03
      3.956  0.1453E+03  0.1004E+04
      4.045  0.1751E+03  0.1020E+04
      4.133  0.1106E+03  0.1029E+04
      4.222  0.2827E+02  0.1032E+04
      4.310  0.8410E+00  0.1032E+04
      4.399  0.2327E-03  0.1032E+04
      4.488  0.1876E-09  0.1032E+04
      4.576  0.0000E+00  0.1032E+04
      4.665  0.0000E+00  0.1032E+04
      4.753  0.0000E+00  0.1032E+04
      4.842  0.0000E+00  0.1032E+04
      4.931  0.0000E+00  0.1032E+04
      5.019  0.0000E+00  0.1032E+04
      5.108  0.0000E+00  0.1032E+04
      5.197  0.0000E+00  0.1032E+04
      5.285  0.0000E+00  0.1032E+04
      5.374  0.0000E+00  0.1032E+04
