       N       E                     dE             d eps       ncg     rms          rms(c)
DAV:   1     0.213512616589E+04    0.21351E+04   -0.18402E+05  3120   0.734E+02
DAV:   2    -0.742884119496E+03   -0.28780E+04   -0.27145E+04  4224   0.193E+02
DAV:   3    -0.954640728717E+03   -0.21176E+03   -0.20337E+03  4572   0.404E+01
DAV:   4    -0.962086723734E+03   -0.74460E+01   -0.72607E+01  4392   0.788E+00
DAV:   5    -0.962468511312E+03   -0.38179E+00   -0.38001E+00  4908   0.191E+00    0.186E+01
DAV:   6    -0.977880978431E+03   -0.15412E+02   -0.19150E+02  4380   0.164E+01    0.187E+01
DAV:   7    -0.937182378257E+03    0.40699E+02   -0.13269E+02  3996   0.153E+01    0.962E+00
DAV:   8    -0.937087482085E+03    0.94896E-01   -0.45794E+01  3948   0.559E+00    0.469E+00
DAV:   9    -0.939800789510E+03   -0.27133E+01   -0.38859E+00  4140   0.561E+00    0.513E+00
DAV:  10    -0.934816537153E+03    0.49843E+01   -0.27260E+00  4080   0.447E+00    0.113E+00
DAV:  11    -0.934795208802E+03    0.21328E-01   -0.23464E+00  3912   0.133E+00    0.699E-01
DAV:  12    -0.934773618756E+03    0.21590E-01   -0.18384E-01  4068   0.556E-01    0.506E-01
DAV:  13    -0.934741212912E+03    0.32406E-01   -0.50271E-02  3972   0.276E-01    0.272E-01
DAV:  14    -0.934735171259E+03    0.60417E-02   -0.30034E-02  3888   0.198E-01    0.184E-01
DAV:  15    -0.934738492135E+03   -0.33209E-02   -0.88777E-03  3792   0.123E-01    0.138E-01
DAV:  16    -0.934751806409E+03   -0.13314E-01   -0.10046E-02  3396   0.969E-02    0.605E-02
DAV:  17    -0.934756304641E+03   -0.44982E-02   -0.16593E-03  3840   0.479E-02    0.403E-02
DAV:  18    -0.934758628414E+03   -0.23238E-02   -0.41915E-04  3660   0.260E-02    0.268E-02
DAV:  19    -0.934760423529E+03   -0.17951E-02   -0.30170E-04  3384   0.176E-02    0.173E-02
DAV:  20    -0.934761433503E+03   -0.10100E-02   -0.13128E-04  3540   0.126E-02    0.134E-02
DAV:  21    -0.934762229281E+03   -0.79578E-03   -0.14449E-04  3324   0.936E-03    0.958E-03
DAV:  22    -0.934763675686E+03   -0.14464E-02   -0.11759E-04  3276   0.735E-03    0.624E-03
DAV:  23    -0.934764801752E+03   -0.11261E-02   -0.78845E-05  3036   0.538E-03    0.403E-03
DAV:  24    -0.934765359289E+03   -0.55754E-03   -0.36898E-05  3180   0.359E-03    0.250E-03
DAV:  25    -0.934765566994E+03   -0.20770E-03   -0.91822E-06  2664   0.203E-03    0.141E-03
DAV:  26    -0.934765708610E+03   -0.14162E-03   -0.10641E-05  2580   0.182E-03    0.898E-04
DAV:  27    -0.934765724170E+03   -0.15559E-04   -0.65959E-07  2220   0.911E-04    0.734E-04
DAV:  28    -0.934765732292E+03   -0.81221E-05   -0.32475E-07  1908   0.650E-04    0.604E-04
DAV:  29    -0.934765738244E+03   -0.59523E-05   -0.24357E-07  2004   0.513E-04    0.563E-04
DAV:  30    -0.934765739324E+03   -0.10794E-05   -0.78236E-08  1872   0.359E-04
   1 F= -.93476574E+03 E0= -.93473858E+03  d E =-.543234E-01
