 vasp.5.4.4.18Apr17-6-g9f103f2a35 (build May 02 2017 15:33:50) complex          
  
 executed on Intel-16.0.3.210-OMP date 2018.08.08  19:15:22
 running on    6 total cores
 distrk:  each k-point on    6 cores,    1 groups
 distr:  one band on NCORES_PER_BAND=   1 cores,    6 groups


--------------------------------------------------------------------------------------------------------


 INCAR:
 POTCAR:    PAW Al_GW 19Mar2012                   
 POTCAR:    PAW_PBE N 08Apr2002                   

 ----------------------------------------------------------------------------- 
|                                                                             |
|           W    W    AA    RRRRR   N    N  II  N    N   GGGG   !!!           |
|           W    W   A  A   R    R  NN   N  II  NN   N  G    G  !!!           |
|           W    W  A    A  R    R  N N  N  II  N N  N  G       !!!           |
|           W WW W  AAAAAA  RRRRR   N  N N  II  N  N N  G  GGG   !            |
|           WW  WW  A    A  R   R   N   NN  II  N   NN  G    G                |
|           W    W  A    A  R    R  N    N  II  N    N   GGGG   !!!           |
|                                                                             |
|      For optimal performance we recommend to set                            |
|        NCORE= 4 - approx SQRT( number of cores)                             |
|      NCORE specifies how many cores store one orbital (NPAR=cpu/NCORE).     |
|      This setting can  greatly improve the performance of VASP for DFT.     |
|      The default,   NCORE=1            might be grossly inefficient         |
|      on modern multi-core architectures or massively parallel machines.     |
|      Do your own testing !!!!                                               |
|      Unfortunately you need to use the default for GW and RPA calculations. |
|      (for HF NCORE is supported but not extensively tested yet)             |
|                                                                             |
 ----------------------------------------------------------------------------- 

 POTCAR:    PAW Al_GW 19Mar2012                   
   VRHFIN =Al: s2p1                                                             
   LEXCH  = PE                                                                  
   EATOM  =    53.5387 eV,    3.9350 Ry                                         
                                                                                
   TITEL  = PAW Al_GW 19Mar2012                                                 
   LULTRA =        F    use ultrasoft PP ?                                      
   IUNSCR =        1    unscreen: 0-lin 1-nonlin 2-no                           
   RPACOR =    1.500    partial core radius                                     
   POMASS =   26.982; ZVAL   =    3.000    mass and valenz                      
   RCORE  =    2.000    outmost cutoff radius                                   
   RWIGS  =    2.000; RWIGS  =    1.058    wigner-seitz radius (au A)           
   ENMAX  =  240.300; ENMIN  =  180.225 eV                                      
   ICORE  =        3    local potential                                         
   LCOR   =        T    correct aug charges                                     
   LPAW   =        T    paw PP                                                  
   EAUG   =  482.059                                                            
   DEXC   =    0.000                                                            
   RMAX   =    2.051    core radius for proj-oper                               
   RAUG   =    1.300    factor for augmentation sphere                          
   RDEP   =    2.096    radius for radial grids                                 
   RDEPT  =    1.856    core radius for aug-charge                              
                                                                                
   Atomic configuration                                                         
    7 entries                                                                   
     n  l   j            E        occ.                                          
     1  0  0.50     -1511.1048   2.0000                                         
     2  0  0.50      -108.1629   2.0000                                         
     2  1  1.50       -69.6402   6.0000                                         
     3  0  0.50        -7.7528   2.0000                                         
     3  1  1.50        -2.7121   1.0000                                         
     3  2  2.50        -2.7212   0.0000                                         
     4  3  2.50        -2.7212   0.0000                                         
   Description                                                                  
     l       E           TYP  RCUT    TYP  RCUT                                 
     0     -7.7528455     23  1.900                                             
     0     68.0291300     23  1.900                                             
     1     -2.7120682     23  1.900                                             
     1     68.0291300     23  1.900                                             
     2     -1.3605826     23  1.900                                             
     2     81.6349560     23  1.900                                             
     3     74.8320430     23  2.000                                             
  local pseudopotential read in
  partial core-charges read in
  partial kinetic energy density read in
  kinetic energy density of atom read in
  atomic valenz-charges read in
  non local Contribution for L=           0  read in
    real space projection operators read in
  non local Contribution for L=           0  read in
    real space projection operators read in
  non local Contribution for L=           1  read in
    real space projection operators read in
  non local Contribution for L=           1  read in
    real space projection operators read in
  non local Contribution for L=           2  read in
    real space projection operators read in
  non local Contribution for L=           2  read in
    real space projection operators read in
    PAW grid and wavefunctions read in
 
   number of l-projection  operators is LMAX  =           6
   number of lm-projection operators is LMMAX =          18
 
 POTCAR:    PAW_PBE N 08Apr2002                   
   VRHFIN =N: s2p3                                                              
   LEXCH  = PE                                                                  
   EATOM  =   264.5486 eV,   19.4438 Ry                                         
                                                                                
   TITEL  = PAW_PBE N 08Apr2002                                                 
   LULTRA =        F    use ultrasoft PP ?                                      
   IUNSCR =        1    unscreen: 0-lin 1-nonlin 2-no                           
   RPACOR =    1.200    partial core radius                                     
   POMASS =   14.001; ZVAL   =    5.000    mass and valenz                      
   RCORE  =    1.500    outmost cutoff radius                                   
   RWIGS  =    1.400; RWIGS  =    0.741    wigner-seitz radius (au A)           
   ENMAX  =  400.000; ENMIN  =  300.000 eV                                      
   ICORE  =        2    local potential                                         
   LCOR   =        T    correct aug charges                                     
   LPAW   =        T    paw PP                                                  
   EAUG   =  627.112                                                            
   DEXC   =    0.000                                                            
   RMAX   =    1.529    core radius for proj-oper                               
   RAUG   =    1.300    factor for augmentation sphere                          
   RDEP   =    1.514    radius for radial grids                                 
   RDEPT  =    1.338    core radius for aug-charge                              
                                                                                
   Atomic configuration                                                         
    4 entries                                                                   
     n  l   j            E        occ.                                          
     1  0  0.50      -384.7179   2.0000                                         
     2  0  0.50       -18.5828   2.0000                                         
     2  1  0.50        -7.0898   3.0000                                         
     3  2  1.50        -6.8029   0.0000                                         
   Description                                                                  
     l       E           TYP  RCUT    TYP  RCUT                                 
     0    -18.5828119     23  1.200                                             
     0    -13.5018863     23  1.200                                             
     1     -7.0897853     23  1.500                                             
     1      9.5240782     23  1.500                                             
     2     -6.8029130      7  1.500                                             
  local pseudopotential read in
  partial core-charges read in
  partial kinetic energy density read in
  atomic valenz-charges read in
  non local Contribution for L=           0  read in
    real space projection operators read in
  non local Contribution for L=           0  read in
    real space projection operators read in
  non local Contribution for L=           1  read in
    real space projection operators read in
  non local Contribution for L=           1  read in
    real space projection operators read in
    PAW grid and wavefunctions read in
 
   number of l-projection  operators is LMAX  =           4
   number of lm-projection operators is LMMAX =           8
 
 Optimization of the real space projectors (new method)

 maximal supplied QI-value         = 18.90
 optimisation between [QCUT,QGAM] = [  8.69, 17.57] = [ 21.16, 86.49] Ry 
 Optimized for a Real-space Cutoff    1.59 Angstroem

   l    n(q)    QCUT    max X(q) W(low)/X(q) W(high)/X(q)  e(spline) 
   0      8     8.693    11.519    0.12E-03    0.31E-04    0.21E-06
   0      8     8.693     5.834    0.89E-04    0.32E-04    0.16E-06
   1      8     8.693    10.132    0.25E-03    0.39E-03    0.25E-06
   1      8     8.693     3.004    0.16E-03    0.27E-03    0.22E-06
   2      7     8.693     3.169    0.39E-03    0.93E-03    0.44E-06
   2      7     8.693     1.605    0.70E-04    0.91E-04    0.19E-06
 Optimization of the real space projectors (new method)

 maximal supplied QI-value         = 25.13
 optimisation between [QCUT,QGAM] = [  8.80, 17.59] = [ 21.67, 86.68] Ry 
 Optimized for a Real-space Cutoff    2.14 Angstroem

   l    n(q)    QCUT    max X(q) W(low)/X(q) W(high)/X(q)  e(spline) 
   0     11     8.797    79.467    0.70E-04    0.19E-04    0.19E-05
   0     11     8.797    66.151    0.68E-04    0.18E-04    0.19E-05
   1     11     8.797     6.738    0.26E-03    0.11E-02    0.73E-05
   1     11     8.797     5.013    0.25E-03    0.11E-02    0.72E-05
  PAW Al_GW 19Mar2012                   :
 energy of atom  1       EATOM=  -53.5387
 kinetic energy error for atom=    0.0011 (will be added to EATOM!!)
  PAW_PBE N 08Apr2002                   :
 energy of atom  2       EATOM= -264.5486
 kinetic energy error for atom=    0.6882 (will be added to EATOM!!)
 
 
 POSCAR: New structure                           
  positions in cartesian coordinates
  No initial velocities read in
 exchange correlation table for  LEXCH =        8
   RHO(1)=    0.500       N(1)  =     2000
   RHO(2)=  100.500       N(2)  =     4000
 


--------------------------------------------------------------------------------------------------------


 ion  position               nearest neighbor table
   1  0.444  0.444  0.079-
   2  0.444  0.778  0.079-
   3  0.444  0.111  0.079-
   4  0.778  0.444  0.079-
   5  0.778  0.778  0.079-
   6  0.778  0.111  0.079-
   7  0.111  0.444  0.079-
   8  0.111  0.778  0.079-
   9  0.111  0.111  0.079-
  10  0.556  0.556  0.157-
  11  0.556  0.889  0.157-
  12  0.556  0.222  0.157-
  13  0.889  0.556  0.157-
  14  0.889  0.889  0.157-
  15  0.889  0.222  0.157-
  16  0.222  0.556  0.157-
  17  0.222  0.889  0.157-
  18  0.222  0.222  0.157-
  19  0.667  0.667  0.234-
  20  0.667  0.000  0.234-
  21  0.667  0.333  0.234-
  22  0.000  0.667  0.234-
  23  0.000  0.000  0.234-
  24  0.000  0.333  0.234-
  25  0.333  0.667  0.234-
  26  0.333  0.000  0.234-
  27  0.333  0.333  0.234-
  28  0.778  0.778  0.312-
  29  0.778  0.111  0.312-
  30  0.778  0.444  0.312-
  31  0.111  0.778  0.312-
  32  0.111  0.111  0.312-
  33  0.111  0.444  0.312-
  34  0.444  0.778  0.312-
  35  0.444  0.111  0.312-
  36  0.444  0.444  0.312-
  37  0.889  0.889  0.390-
  38  0.889  0.222  0.390-
  39  0.889  0.556  0.390-
  40  0.222  0.889  0.390-
  41  0.222  0.222  0.390-
  42  0.222  0.556  0.390-
  43  0.556  0.889  0.390-
  44  0.556  0.222  0.390-
  45  0.556  0.556  0.390-
  46  0.000  0.000  0.466-
  47  0.000  0.333  0.466-
  48  0.000  0.667  0.466-
  49  0.333  0.000  0.466-
  50  0.333  0.333  0.466-
  51  0.333  0.667  0.466-
  52  0.667  0.000  0.466-
  53  0.667  0.333  0.466-
  54  0.667  0.667  0.466-
  55  0.111  0.111  0.545-
  56  0.111  0.444  0.545-
  57  0.111  0.778  0.545-
  58  0.444  0.111  0.545-
  59  0.444  0.444  0.545-
  60  0.444  0.778  0.545-
  61  0.778  0.111  0.545-
  62  0.778  0.444  0.545-
  63  0.778  0.778  0.545-
  64  0.278  0.278  0.079-
  65  0.278  0.611  0.079-
  66  0.278  0.944  0.079-
  67  0.611  0.278  0.079-
  68  0.611  0.611  0.079-
  69  0.611  0.944  0.079-
  70  0.944  0.278  0.079-
  71  0.944  0.611  0.079-
  72  0.944  0.944  0.079-
  73  0.389  0.389  0.157-
  74  0.389  0.722  0.157-
  75  0.389  0.056  0.157-
  76  0.722  0.389  0.157-
  77  0.722  0.722  0.157-
  78  0.722  0.056  0.157-
  79  0.056  0.389  0.157-
  80  0.056  0.722  0.157-
  81  0.056  0.056  0.157-
  82  0.500  0.500  0.234-
  83  0.500  0.833  0.234-
  84  0.500  0.167  0.234-
  85  0.833  0.500  0.234-
  86  0.833  0.833  0.234-
  87  0.833  0.167  0.234-
  88  0.167  0.500  0.234-
  89  0.167  0.833  0.234-
  90  0.167  0.167  0.234-
  91  0.611  0.611  0.312-
  92  0.611  0.944  0.312-
  93  0.611  0.278  0.312-
  94  0.944  0.611  0.312-
  95  0.944  0.944  0.312-
  96  0.944  0.278  0.312-
  97  0.278  0.611  0.312-
  98  0.278  0.944  0.312-
  99  0.278  0.278  0.312-
 100  0.722  0.722  0.390-
 101  0.722  0.056  0.390-
 102  0.722  0.389  0.390-
 103  0.056  0.722  0.390-
 104  0.056  0.056  0.390-
 105  0.056  0.389  0.390-
 106  0.389  0.722  0.390-
 107  0.389  0.056  0.390-
 108  0.389  0.389  0.390-
 109  0.833  0.833  0.466-
 110  0.833  0.167  0.466-
 111  0.833  0.500  0.466-
 112  0.167  0.833  0.466-
 113  0.167  0.167  0.466-
 114  0.167  0.500  0.466-
 115  0.500  0.833  0.466-
 116  0.500  0.167  0.466-
 117  0.500  0.500  0.466-
 118  0.944  0.944  0.545-
 119  0.944  0.278  0.545-
 120  0.944  0.611  0.545-
 121  0.278  0.944  0.545-
 122  0.278  0.278  0.545-
 123  0.278  0.611  0.545-
 124  0.611  0.944  0.545-
 125  0.611  0.278  0.545-
 126  0.611  0.611  0.545-
 127  0.278  0.444  0.079-
 128  0.278  0.778  0.079-
 129  0.278  0.111  0.079-
 130  0.611  0.444  0.079-
 131  0.611  0.778  0.079-
 132  0.611  0.111  0.079-
 133  0.944  0.444  0.079-
 134  0.944  0.778  0.079-
 135  0.944  0.111  0.079-
 136  0.389  0.556  0.157-
 137  0.389  0.889  0.157-
 138  0.389  0.222  0.157-
 139  0.722  0.556  0.157-
 140  0.722  0.889  0.157-
 141  0.722  0.222  0.157-
 142  0.056  0.556  0.157-
 143  0.056  0.889  0.157-
 144  0.056  0.222  0.157-
 145  0.500  0.667  0.234-
 146  0.500  0.000  0.234-
 147  0.500  0.333  0.234-
 148  0.833  0.667  0.234-
 149  0.833  0.000  0.234-
 150  0.833  0.333  0.234-
 151  0.167  0.667  0.234-
 152  0.167  0.000  0.234-
 153  0.167  0.333  0.234-
 154  0.611  0.778  0.312-
 155  0.611  0.111  0.312-
 156  0.611  0.444  0.312-
 157  0.944  0.778  0.312-
 158  0.944  0.111  0.312-
 159  0.944  0.444  0.312-
 160  0.278  0.778  0.312-
 161  0.278  0.111  0.312-
 162  0.278  0.444  0.312-
 163  0.722  0.889  0.390-
 164  0.722  0.222  0.390-
 165  0.722  0.556  0.390-
 166  0.056  0.889  0.390-
 167  0.056  0.222  0.390-
 168  0.056  0.556  0.390-
 169  0.389  0.889  0.390-
 170  0.389  0.222  0.390-
 171  0.389  0.556  0.390-
 172  0.833  0.000  0.466-
 173  0.833  0.333  0.466-
 174  0.833  0.667  0.466-
 175  0.167  0.000  0.466-
 176  0.167  0.333  0.466-
 177  0.167  0.667  0.466-
 178  0.500  0.000  0.466-
 179  0.500  0.333  0.466-
 180  0.500  0.667  0.466-
 181  0.944  0.111  0.545-
 182  0.944  0.444  0.545-
 183  0.944  0.778  0.545-
 184  0.278  0.111  0.545-
 185  0.278  0.444  0.545-
 186  0.278  0.778  0.545-
 187  0.611  0.111  0.545-
 188  0.611  0.444  0.545-
 189  0.611  0.778  0.545-
 190  0.444  0.278  0.079-
 191  0.444  0.611  0.079-
 192  0.444  0.944  0.079-
 193  0.778  0.278  0.079-
 194  0.778  0.611  0.079-
 195  0.778  0.944  0.079-
 196  0.111  0.278  0.079-
 197  0.111  0.611  0.079-
 198  0.111  0.944  0.079-
 199  0.556  0.389  0.157-
 200  0.556  0.722  0.157-
 201  0.556  0.056  0.157-
 202  0.889  0.389  0.157-
 203  0.889  0.722  0.157-
 204  0.889  0.056  0.157-
 205  0.222  0.389  0.157-
 206  0.222  0.722  0.157-
 207  0.222  0.056  0.157-
 208  0.667  0.500  0.234-
 209  0.667  0.833  0.234-
 210  0.667  0.167  0.234-
 211  1.000  0.500  0.234-
 212  1.000  0.833  0.234-
 213  1.000  0.167  0.234-
 214  0.333  0.500  0.234-
 215  0.333  0.833  0.234-
 216  0.333  0.167  0.234-
 217  0.778  0.611  0.312-
 218  0.778  0.944  0.312-
 219  0.778  0.278  0.312-
 220  0.111  0.611  0.312-
 221  0.111  0.944  0.312-
 222  0.111  0.278  0.312-
 223  0.444  0.611  0.312-
 224  0.444  0.944  0.312-
 225  0.444  0.278  0.312-
 226  0.889  0.722  0.390-
 227  0.889  0.056  0.390-
 228  0.889  0.389  0.390-
 229  0.222  0.722  0.390-
 230  0.222  0.056  0.390-
 231  0.222  0.389  0.390-
 232  0.556  0.722  0.390-
 233  0.556  0.056  0.390-
 234  0.556  0.389  0.390-
 235  1.000  0.833  0.466-
 236  1.000  0.167  0.466-
 237  1.000  0.500  0.466-
 238  0.333  0.833  0.466-
 239  0.333  0.167  0.466-
 240  0.333  0.500  0.466-
 241  0.667  0.833  0.466-
 242  0.667  0.167  0.466-
 243  0.667  0.500  0.466-
 244  0.111  0.944  0.545-
 245  0.111  0.278  0.545-
 246  0.111  0.611  0.545-
 247  0.444  0.944  0.545-
 248  0.444  0.278  0.545-
 249  0.444  0.611  0.545-
 250  0.778  0.944  0.545-
 251  0.778  0.278  0.545-
 252  0.778  0.611  0.545-
 253  0.340  0.487  0.635- 254 1.25
 254  0.382  0.402  0.635- 253 1.25
 
  LATTYP: Found a hexagonal cell.
 ALAT       =    17.1805734625
 C/A-ratio  =     1.7461582447
  
  Lattice vectors:
  
 A1 = (   0.0000000000,  -8.5902867312,  14.8788130701)
 A2 = (   0.0000000000,  17.1805734625,   0.0000000000)
 A3 = ( -30.0000000000,   0.0000000000,   0.0000000000)


Analysis of symmetry for initial positions (statically):
=====================================================================
 Subroutine PRICEL returns:
 Original cell was already a primitive cell.
 

 Routine SETGRP: Setting up the symmetry group for a 
 hexagonal supercell.


 Subroutine GETGRP returns: Found  2 space group operations
 (whereof  1 operations were pure point group operations)
 out of a pool of 24 trial point group operations.


The static configuration has the point symmetry C_1 .
 The point group associated with its full space group is C_1h.


Analysis of symmetry for dynamics (positions and initial velocities):
=====================================================================
 Subroutine PRICEL returns:
 Original cell was already a primitive cell.
 

 Routine SETGRP: Setting up the symmetry group for a 
 hexagonal supercell.


 Subroutine GETGRP returns: Found  2 space group operations
 (whereof  1 operations were pure point group operations)
 out of a pool of 24 trial point group operations.


The dynamic configuration has the point symmetry C_1 .
 The point group associated with its full space group is C_1h.


 Subroutine INISYM returns: Found  2 space group operations
 (whereof  1 operations are pure point group operations),
 and found     1 'primitive' translations

 
 
 KPOINTS: Automatic generation                    

Automatic generation of k-mesh.
Space group operators:
 irot       det(A)        alpha          n_x          n_y          n_z        tau_x        tau_y        tau_z
    1     1.000000     0.000000     1.000000     0.000000     0.000000     0.000000     0.000000     0.000000
    2    -1.000000   180.000000     0.000000     1.000000     0.000000    -0.833333     0.000000     0.000000
 
 Subroutine IBZKPT returns following result:
 ===========================================
 
 Found      3 irreducible k-points:
 
 Following reciprocal coordinates:
            Coordinates               Weight
  0.000000  0.000000  0.000000      1.000000
  0.500000  0.000000  0.000000      2.000000
  0.000000  0.500000  0.000000      1.000000
 
 Following cartesian coordinates:
            Coordinates               Weight
  0.000000  0.000000  0.000000      1.000000
  0.000000 -0.029103  0.016802      2.000000
  0.000000  0.000000 -0.033605      1.000000
 


--------------------------------------------------------------------------------------------------------




 Dimension of arrays:
   k-points           NKPTS =      3   k-points in BZ     NKDIM =      3   number of bands    NBANDS=    516
   number of dos      NEDOS =    301   number of ions     NIONS =    254
   non local maximal  LDIM  =      6   non local SUM 2l+1 LMDIM =     18
   total plane-waves  NPLWV = 819200
   max r-space proj   IRMAX =   4449   max aug-charges    IRDMAX=   4357
   dimension x,y,z NGX =    80 NGY =   80 NGZ =  128
   dimension x,y,z NGXF=   160 NGYF=  160 NGZF=  256
   support grid    NGXF=   160 NGYF=  160 NGZF=  256
   ions per type =             252   2
   NGX,Y,Z   is equivalent  to a cutoff of   7.74,  7.74,  7.09 a.u.
   NGXF,Y,Z  is equivalent  to a cutoff of  15.48, 15.48, 14.19 a.u.

 SYSTEM =  NiAl                                    
 POSCAR =  New structure                           

 Startparameter for this run:
   NWRITE =      2    write-flag & timer
   PREC   = normal    normal or accurate (medium, high low for compatibility)
   ISTART =      0    job   : 0-new  1-cont  2-samecut
   ICHARG =      2    charge: 1-file 2-atom 10-const
   ISPIN  =      1    spin polarized calculation?
   LNONCOLLINEAR =      F non collinear calculations
   LSORBIT =      F    spin-orbit coupling
   INIWAV =      1    electr: 0-lowe 1-rand  2-diag
   LASPH  =      F    aspherical Exc in radial PAW
   METAGGA=      F    non-selfconsistent MetaGGA calc.

 Electronic Relaxation 1
   ENCUT  =  300.0 eV  22.05 Ry    4.70 a.u.  24.26 24.26 42.37*2*pi/ulx,y,z
   ENINI  =  300.0     initial cutoff
   ENAUG  =  627.1 eV  augmentation charge cutoff
   NELM   =     60;   NELMIN=  6; NELMDL= -5     # of ELM steps 
   EDIFF  = 0.5E-05   stopping-criterion for ELM
   LREAL  =      T    real-space projection
   NLSPLINE    = F    spline interpolate recip. space projectors
   LCOMPAT=      F    compatible to vasp.4.4
   GGA_COMPAT  = T    GGA compatible to vasp.4.4-vasp.4.6
   LMAXPAW     = -100 max onsite density
   LMAXMIX     =    2 max onsite mixed and CHGCAR
   VOSKOWN=      0    Vosko Wilk Nusair interpolation
   ROPT   =   -0.00050  -0.00050
 Ionic relaxation
   EDIFFG = 0.5E-04   stopping-criterion for IOM
   NSW    =      0    number of steps for IOM
   NBLOCK =      1;   KBLOCK =      1    inner block; outer block 
   IBRION =     -1    ionic relax: 0-MD 1-quasi-New 2-CG
   NFREE  =      0    steps in history (QN), initial steepest desc. (CG)
   ISIF   =      0    stress and relaxation
   IWAVPR =     10    prediction:  0-non 1-charg 2-wave 3-comb
   ISYM   =      2    0-nonsym 1-usesym 2-fastsym
   LCORR  =      T    Harris-Foulkes like correction to forces

   POTIM  = 0.5000    time-step for ionic-motion
   TEIN   =    0.0    initial temperature
   TEBEG  =    0.0;   TEEND  =   0.0 temperature during run
   SMASS  =  -3.00    Nose mass-parameter (am)
   estimated Nose-frequenzy (Omega)   =  0.10E-29 period in steps =****** mass=  -0.675E-26a.u.
   SCALEE = 1.0000    scale energy and forces
   NPACO  =    256;   APACO  = 16.0  distance and # of slots for P.C.
   PSTRESS=    0.0 pullay stress

  Mass of Ions in am
   POMASS =  26.98 14.00
  Ionic Valenz
   ZVAL   =   3.00  5.00
  Atomic Wigner-Seitz radii
   RWIGS  =  -1.00 -1.00
  virtual crystal weights 
   VCA    =   1.00  1.00
   NELECT =     766.0000    total number of electrons
   NUPDOWN=      -1.0000    fix difference up-down

 DOS related values:
   EMIN   =  10.00;   EMAX   =-10.00  energy-range for DOS
   EFERMI =   0.00
   ISMEAR =     0;   SIGMA  =   0.05  broadening in eV -4-tet -1-fermi 0-gaus

 Electronic relaxation 2 (details)
   IALGO  =     38    algorithm
   LDIAG  =      T    sub-space diagonalisation (order eigenvalues)
   LSUBROT=      F    optimize rotation matrix (better conditioning)
   TURBO    =      0    0=normal 1=particle mesh
   IRESTART =      0    0=no restart 2=restart with 2 vectors
   NREBOOT  =      0    no. of reboots
   NMIN     =      0    reboot dimension
   EREF     =   0.00    reference energy to select bands
   IMIX   =      4    mixing-type and parameters
     AMIX     =   0.40;   BMIX     =  1.00
     AMIX_MAG =   1.60;   BMIX_MAG =  1.00
     AMIN     =   0.10
     WC   =   100.;   INIMIX=   1;  MIXPRE=   1;  MAXMIX= -45

 Intra band minimization:
   WEIMIN = 0.0000     energy-eigenvalue tresh-hold
   EBREAK =  0.24E-08  absolut break condition
   DEPER  =   0.30     relativ break condition  

   TIME   =   0.40     timestep for ELM

  volume/ion in A,a.u.               =      30.19       203.75
  Fermi-wavevector in a.u.,A,eV,Ry     =   0.759583  1.435404  7.850108  0.576967
  Thomas-Fermi vector in A             =   1.858410
 
 Write flags
   LWAVE        =      F    write WAVECAR
   LDOWNSAMPLE  =      F    k-point downsampling of WAVECAR
   LCHARG       =      F    write CHGCAR
   LVTOT        =      F    write LOCPOT, total local potential
   LVHAR        =      F    write LOCPOT, Hartree potential only
   LELF         =      F    write electronic localiz. function (ELF)
   LORBIT       =      0    0 simple, 1 ext, 2 COOP (PROOUT), +10 PAW based schemes


 Dipole corrections
   LMONO  =      F    monopole corrections only (constant potential shift)
   LDIPOL =      F    correct potential (dipole corrections)
   IDIPOL =      0    1-x, 2-y, 3-z, 4-all directions 
   EPSILON=  1.0000000 bulk dielectric constant

 Exchange correlation treatment:
   GGA     =    --    GGA type
   LEXCH   =     8    internal setting for exchange type
   VOSKOWN=      0    Vosko Wilk Nusair interpolation
   LHFCALC =     F    Hartree Fock is set to
   LHFONE  =     F    Hartree Fock one center treatment
   AEXX    =    0.0000 exact exchange contribution

 Linear response parameters
   LEPSILON=     F    determine dielectric tensor
   LRPA    =     F    only Hartree local field effects (RPA)
   LNABLA  =     F    use nabla operator in PAW spheres
   LVEL    =     F    velocity operator in full k-point grid
   LINTERFAST=   F  fast interpolation
   KINTER  =     0    interpolate to denser k-point grid
   CSHIFT  =0.1000    complex shift for real part using Kramers Kronig
   OMEGAMAX=  -1.0    maximum frequency
   DEG_THRESHOLD= 0.2000000E-02 threshold for treating states as degnerate
   RTIME   =   -0.100 relaxation time in fs
  (WPLASMAI=    0.000 imaginary part of plasma frequency in eV, 0.658/RTIME)
   DFIELD  = 0.0000000 0.0000000 0.0000000 field for delta impulse in time
 
 Orbital magnetization related:
   ORBITALMAG=     F  switch on orbital magnetization
   LCHIMAG   =     F  perturbation theory with respect to B field
   DQ        =  0.001000  dq finite difference perturbation B field
   LLRAUG    =     F  two centre corrections for induced B field



--------------------------------------------------------------------------------------------------------


 Static calculation
 charge density and potential will be updated during run
 non-spin polarized calculation
 Variant of blocked Davidson
 Davidson routine will perform the subspace rotation
 perform sub-space diagonalisation
    after iterative eigenvector-optimisation
 modified Broyden-mixing scheme, WC =      100.0
 initial mixing is a Kerker type mixing with AMIX =  0.4000 and BMIX =      1.0000
 Hartree-type preconditioning will be used
 using additional bands          133
 real space projection scheme for non local part
 use partial core corrections
 calculate Harris-corrections to forces 
   (improved forces if not selfconsistent)
 use gradient corrections 
 use of overlap-Matrix (Vanderbilt PP)
 Gauss-broadening in eV      SIGMA  =   0.05


--------------------------------------------------------------------------------------------------------


  energy-cutoff  :      300.00
  volume of cell :     7668.80
      direct lattice vectors                 reciprocal lattice vectors
     0.000000000-17.180573462  0.000000000     0.000000000 -0.058205275  0.033604831
     0.000000000 -8.590286731-14.878813070     0.000000000  0.000000000 -0.067209662
    30.000000000  0.000000000  0.000000000     0.033333333  0.000000000  0.000000000

  length of vectors
    17.180573462 17.180573462 30.000000000     0.067209662  0.067209662  0.033333333


 
 k-points in units of 2pi/SCALE and weight: Automatic generation                    
   0.00000000  0.00000000  0.00000000       0.250
   0.00000000 -0.02910264  0.01680242       0.500
   0.00000000  0.00000000 -0.03360483       0.250
 
 k-points in reciprocal lattice and weights: Automatic generation                    
   0.00000000  0.00000000  0.00000000       0.250
   0.50000000  0.00000000  0.00000000       0.500
   0.00000000  0.50000000  0.00000000       0.250
 
 position of ions in fractional coordinates (direct lattice) 
   0.44444456  0.44444473  0.07873467
   0.44444419  0.77777777  0.07873467
   0.44444468  0.11111101  0.07873467
   0.77777744  0.44444473  0.07873467
   0.77777765  0.77777777  0.07873467
   0.77777756  0.11111101  0.07873467
   0.11111110  0.44444473  0.07873467
   0.11111131  0.77777777  0.07873467
   0.11111122  0.11111101  0.07873467
   0.55555520  0.55555574  0.15702600
   0.55555541  0.88888878  0.15702600
   0.55555591  0.22222203  0.15702600
   0.88888866  0.55555574  0.15702600
   0.88888887  0.88888878  0.15702600
   0.88888878  0.22222203  0.15702600
   0.22222232  0.55555574  0.15702600
   0.22222253  0.88888878  0.15702600
   0.22222245  0.22222203  0.15702600
   0.66666642  0.66666675  0.23375733
   0.66666692  0.00000000  0.23375733
   0.66666655  0.33333304  0.23375733
   0.00000008  0.66666675  0.23375733
   0.00000000  0.00000000  0.23375733
   0.00000021  0.33333304  0.23375733
   0.33333354  0.66666675  0.23375733
   0.33333346  0.00000000  0.23375733
   0.33333367  0.33333304  0.23375733
   0.77777765  0.77777777  0.31173067
   0.77777756  0.11111101  0.31173067
   0.77777744  0.44444473  0.31173067
   0.11111131  0.77777777  0.31173067
   0.11111122  0.11111101  0.31173067
   0.11111110  0.44444473  0.31173067
   0.44444419  0.77777777  0.31173067
   0.44444468  0.11111101  0.31173067
   0.44444456  0.44444473  0.31173067
   0.88888887  0.88888878  0.38970400
   0.88888878  0.22222203  0.38970400
   0.88888866  0.55555574  0.38970400
   0.22222253  0.88888878  0.38970400
   0.22222245  0.22222203  0.38970400
   0.22222232  0.55555574  0.38970400
   0.55555541  0.88888878  0.38970400
   0.55555591  0.22222203  0.38970400
   0.55555520  0.55555574  0.38970400
   0.00000000  0.00000000  0.46643533
   0.00000021  0.33333304  0.46643533
   0.00000008  0.66666675  0.46643533
   0.33333346  0.00000000  0.46643533
   0.33333367  0.33333304  0.46643533
   0.33333354  0.66666675  0.46643533
   0.66666692  0.00000000  0.46643533
   0.66666655  0.33333304  0.46643533
   0.66666642  0.66666675  0.46643533
   0.11111122  0.11111101  0.54472667
   0.11111110  0.44444473  0.54472667
   0.11111131  0.77777777  0.54472667
   0.44444468  0.11111101  0.54472667
   0.44444456  0.44444473  0.54472667
   0.44444419  0.77777777  0.54472667
   0.77777756  0.11111101  0.54472667
   0.77777744  0.44444473  0.54472667
   0.77777765  0.77777777  0.54472667
   0.27777777  0.27777753  0.07873467
   0.27777764  0.61111125  0.07873467
   0.27777785  0.94444429  0.07873467
   0.61111123  0.27777753  0.07873467
   0.61111110  0.61111125  0.07873467
   0.61111131  0.94444429  0.07873467
   0.94444469  0.27777753  0.07873467
   0.94444456  0.61111125  0.07873467
   0.94444477  0.94444429  0.07873467
   0.38888865  0.38888922  0.15702600
   0.38888886  0.72222226  0.15702600
   0.38888878  0.05555551  0.15702600
   0.72222211  0.38888922  0.15702600
   0.72222232  0.72222226  0.15702600
   0.72222224  0.05555551  0.15702600
   0.05555519  0.38888922  0.15702600
   0.05555540  0.72222226  0.15702600
   0.05555532  0.05555551  0.15702600
   0.49999988  0.50000023  0.23375733
   0.50000009  0.83333327  0.23375733
   0.50000000  0.16666652  0.23375733
   0.83333334  0.50000023  0.23375733
   0.83333355  0.83333327  0.23375733
   0.83333346  0.16666652  0.23375733
   0.16666642  0.50000023  0.23375733
   0.16666663  0.83333327  0.23375733
   0.16666654  0.16666652  0.23375733
   0.61111110  0.61111125  0.31173067
   0.61111131  0.94444429  0.31173067
   0.61111123  0.27777753  0.31173067
   0.94444456  0.61111125  0.31173067
   0.94444477  0.94444429  0.31173067
   0.94444469  0.27777753  0.31173067
   0.27777764  0.61111125  0.31173067
   0.27777785  0.94444429  0.31173067
   0.27777777  0.27777753  0.31173067
   0.72222232  0.72222226  0.38970400
   0.72222224  0.05555551  0.38970400
   0.72222211  0.38888922  0.38970400
   0.05555540  0.72222226  0.38970400
   0.05555532  0.05555551  0.38970400
   0.05555519  0.38888922  0.38970400
   0.38888886  0.72222226  0.38970400
   0.38888878  0.05555551  0.38970400
   0.38888865  0.38888922  0.38970400
   0.83333355  0.83333327  0.46643533
   0.83333346  0.16666652  0.46643533
   0.83333334  0.50000023  0.46643533
   0.16666663  0.83333327  0.46643533
   0.16666654  0.16666652  0.46643533
   0.16666642  0.50000023  0.46643533
   0.50000009  0.83333327  0.46643533
   0.50000000  0.16666652  0.46643533
   0.49999988  0.50000023  0.46643533
   0.94444477  0.94444429  0.54472667
   0.94444469  0.27777753  0.54472667
   0.94444456  0.61111125  0.54472667
   0.27777785  0.94444429  0.54472667
   0.27777777  0.27777753  0.54472667
   0.27777764  0.61111125  0.54472667
   0.61111131  0.94444429  0.54472667
   0.61111123  0.27777753  0.54472667
   0.61111110  0.61111125  0.54472667
   0.27777783  0.44444473  0.07873467
   0.27777804  0.77777777  0.07873467
   0.27777795  0.11111101  0.07873467
   0.61111071  0.44444473  0.07873467
   0.61111092  0.77777777  0.07873467
   0.61111141  0.11111101  0.07873467
   0.94444417  0.44444473  0.07873467
   0.94444438  0.77777777  0.07873467
   0.94444429  0.11111101  0.07873467
   0.38888905  0.55555574  0.15702600
   0.38888868  0.88888878  0.15702600
   0.38888918  0.22222203  0.15702600
   0.72222193  0.55555574  0.15702600
   0.72222214  0.88888878  0.15702600
   0.72222205  0.22222203  0.15702600
   0.05555559  0.55555574  0.15702600
   0.05555580  0.88888878  0.15702600
   0.05555572  0.22222203  0.15702600
   0.49999969  0.66666675  0.23375733
   0.50000019  0.00000000  0.23375733
   0.50000040  0.33333304  0.23375733
   0.83333315  0.66666675  0.23375733
   0.83333307  0.00000000  0.23375733
   0.83333328  0.33333304  0.23375733
   0.16666681  0.66666675  0.23375733
   0.16666673  0.00000000  0.23375733
   0.16666694  0.33333304  0.23375733
   0.61111092  0.77777777  0.31173067
   0.61111141  0.11111101  0.31173067
   0.61111071  0.44444473  0.31173067
   0.94444438  0.77777777  0.31173067
   0.94444429  0.11111101  0.31173067
   0.94444417  0.44444473  0.31173067
   0.27777804  0.77777777  0.31173067
   0.27777795  0.11111101  0.31173067
   0.27777783  0.44444473  0.31173067
   0.72222214  0.88888878  0.38970400
   0.72222205  0.22222203  0.38970400
   0.72222193  0.55555574  0.38970400
   0.05555580  0.88888878  0.38970400
   0.05555572  0.22222203  0.38970400
   0.05555559  0.55555574  0.38970400
   0.38888868  0.88888878  0.38970400
   0.38888918  0.22222203  0.38970400
   0.38888905  0.55555574  0.38970400
   0.83333307  0.00000000  0.46643533
   0.83333328  0.33333304  0.46643533
   0.83333315  0.66666675  0.46643533
   0.16666673  0.00000000  0.46643533
   0.16666694  0.33333304  0.46643533
   0.16666681  0.66666675  0.46643533
   0.50000019  0.00000000  0.46643533
   0.50000040  0.33333304  0.46643533
   0.49999969  0.66666675  0.46643533
   0.94444429  0.11111101  0.54472667
   0.94444417  0.44444473  0.54472667
   0.94444438  0.77777777  0.54472667
   0.27777795  0.11111101  0.54472667
   0.27777783  0.44444473  0.54472667
   0.27777804  0.77777777  0.54472667
   0.61111141  0.11111101  0.54472667
   0.61111071  0.44444473  0.54472667
   0.61111092  0.77777777  0.54472667
   0.44444450  0.27777753  0.07873467
   0.44444437  0.61111125  0.07873467
   0.44444458  0.94444429  0.07873467
   0.77777796  0.27777753  0.07873467
   0.77777783  0.61111125  0.07873467
   0.77777804  0.94444429  0.07873467
   0.11111104  0.27777753  0.07873467
   0.11111091  0.61111125  0.07873467
   0.11111112  0.94444429  0.07873467
   0.55555538  0.38888922  0.15702600
   0.55555559  0.72222226  0.15702600
   0.55555551  0.05555551  0.15702600
   0.88888884  0.38888922  0.15702600
   0.88888905  0.72222226  0.15702600
   0.88888897  0.05555551  0.15702600
   0.22222192  0.38888922  0.15702600
   0.22222213  0.72222226  0.15702600
   0.22222205  0.05555551  0.15702600
   0.66666661  0.50000023  0.23375733
   0.66666682  0.83333327  0.23375733
   0.66666673  0.16666652  0.23375733
   0.99999969  0.50000023  0.23375733
   0.99999990  0.83333327  0.23375733
   0.99999981  0.16666652  0.23375733
   0.33333315  0.50000023  0.23375733
   0.33333336  0.83333327  0.23375733
   0.33333327  0.16666652  0.23375733
   0.77777783  0.61111125  0.31173067
   0.77777804  0.94444429  0.31173067
   0.77777796  0.27777753  0.31173067
   0.11111091  0.61111125  0.31173067
   0.11111112  0.94444429  0.31173067
   0.11111104  0.27777753  0.31173067
   0.44444437  0.61111125  0.31173067
   0.44444458  0.94444429  0.31173067
   0.44444450  0.27777753  0.31173067
   0.88888905  0.72222226  0.38970400
   0.88888897  0.05555551  0.38970400
   0.88888884  0.38888922  0.38970400
   0.22222213  0.72222226  0.38970400
   0.22222205  0.05555551  0.38970400
   0.22222192  0.38888922  0.38970400
   0.55555559  0.72222226  0.38970400
   0.55555551  0.05555551  0.38970400
   0.55555538  0.38888922  0.38970400
   0.99999990  0.83333327  0.46643533
   0.99999981  0.16666652  0.46643533
   0.99999969  0.50000023  0.46643533
   0.33333336  0.83333327  0.46643533
   0.33333327  0.16666652  0.46643533
   0.33333315  0.50000023  0.46643533
   0.66666682  0.83333327  0.46643533
   0.66666673  0.16666652  0.46643533
   0.66666661  0.50000023  0.46643533
   0.11111112  0.94444429  0.54472667
   0.11111104  0.27777753  0.54472667
   0.11111091  0.61111125  0.54472667
   0.44444458  0.94444429  0.54472667
   0.44444450  0.27777753  0.54472667
   0.44444437  0.61111125  0.54472667
   0.77777804  0.94444429  0.54472667
   0.77777796  0.27777753  0.54472667
   0.77777783  0.61111125  0.54472667
   0.34003429  0.48659795  0.63466667
   0.38217494  0.40231704  0.63466667
 
 position of ions in cartesian coordinates  (Angst):
   2.36204000-11.45372000 -6.61281000
   2.36204000-14.31714000-11.57241000
   2.36204000 -8.59029000 -1.65320000
   2.36204000-17.18057000 -6.61281000
   2.36204000-20.04400000-11.57241000
   2.36204000-14.31714000 -1.65320000
   2.36204000 -5.72686000 -6.61281000
   2.36204000 -8.59029000-11.57241000
   2.36204000 -2.86343000 -1.65320000
   4.71078000-14.31714000 -8.26601000
   4.71078000-17.18057000-13.22561000
   4.71078000-11.45372000 -3.30640000
   4.71078000-20.04400000 -8.26601000
   4.71078000-22.90743000-13.22561000
   4.71078000-17.18057000 -3.30640000
   4.71078000 -8.59029000 -8.26601000
   4.71078000-11.45372000-13.22561000
   4.71078000 -5.72686000 -3.30640000
   7.01272000-17.18057000 -9.91921000
   7.01272000-11.45372000  0.00000000
   7.01272000-14.31714000 -4.95960000
   7.01272000 -5.72686000 -9.91921000
   7.01272000  0.00000000  0.00000000
   7.01272000 -2.86343000 -4.95960000
   7.01272000-11.45372000 -9.91921000
   7.01272000 -5.72686000  0.00000000
   7.01272000 -8.59029000 -4.95960000
   9.35192000-20.04400000-11.57241000
   9.35192000-14.31714000 -1.65320000
   9.35192000-17.18057000 -6.61281000
   9.35192000 -8.59029000-11.57241000
   9.35192000 -2.86343000 -1.65320000
   9.35192000 -5.72686000 -6.61281000
   9.35192000-14.31714000-11.57241000
   9.35192000 -8.59029000 -1.65320000
   9.35192000-11.45372000 -6.61281000
  11.69112000-22.90743000-13.22561000
  11.69112000-17.18057000 -3.30640000
  11.69112000-20.04400000 -8.26601000
  11.69112000-11.45372000-13.22561000
  11.69112000 -5.72686000 -3.30640000
  11.69112000 -8.59029000 -8.26601000
  11.69112000-17.18057000-13.22561000
  11.69112000-11.45372000 -3.30640000
  11.69112000-14.31714000 -8.26601000
  13.99306000  0.00000000  0.00000000
  13.99306000 -2.86343000 -4.95960000
  13.99306000 -5.72686000 -9.91921000
  13.99306000 -5.72686000  0.00000000
  13.99306000 -8.59029000 -4.95960000
  13.99306000-11.45372000 -9.91921000
  13.99306000-11.45372000  0.00000000
  13.99306000-14.31714000 -4.95960000
  13.99306000-17.18057000 -9.91921000
  16.34180000 -2.86343000 -1.65320000
  16.34180000 -5.72686000 -6.61281000
  16.34180000 -8.59029000-11.57241000
  16.34180000 -8.59029000 -1.65320000
  16.34180000-11.45372000 -6.61281000
  16.34180000-14.31714000-11.57241000
  16.34180000-14.31714000 -1.65320000
  16.34180000-17.18057000 -6.61281000
  16.34180000-20.04400000-11.57241000
   2.36204000 -7.15857000 -4.13300000
   2.36204000-10.02200000 -9.09261000
   2.36204000-12.88543000-14.05221000
   2.36204000-12.88543000 -4.13300000
   2.36204000-15.74886000 -9.09261000
   2.36204000-18.61229000-14.05221000
   2.36204000-18.61229000 -4.13300000
   2.36204000-21.47572000 -9.09261000
   2.36204000-24.33915000-14.05221000
   4.71078000-10.02200000 -5.78621000
   4.71078000-12.88543000-10.74581000
   4.71078000 -7.15857000 -0.82660000
   4.71078000-15.74886000 -5.78621000
   4.71078000-18.61229000-10.74581000
   4.71078000-12.88543000 -0.82660000
   4.71078000 -4.29514000 -5.78621000
   4.71078000 -7.15857000-10.74581000
   4.71078000 -1.43171000 -0.82660000
   7.01272000-12.88543000 -7.43941000
   7.01272000-15.74886000-12.39901000
   7.01272000-10.02200000 -2.47980000
   7.01272000-18.61229000 -7.43941000
   7.01272000-21.47572000-12.39901000
   7.01272000-15.74886000 -2.47980000
   7.01272000 -7.15857000 -7.43941000
   7.01272000-10.02200000-12.39901000
   7.01272000 -4.29514000 -2.47980000
   9.35192000-15.74886000 -9.09261000
   9.35192000-18.61229000-14.05221000
   9.35192000-12.88543000 -4.13300000
   9.35192000-21.47572000 -9.09261000
   9.35192000-24.33915000-14.05221000
   9.35192000-18.61229000 -4.13300000
   9.35192000-10.02200000 -9.09261000
   9.35192000-12.88543000-14.05221000
   9.35192000 -7.15857000 -4.13300000
  11.69112000-18.61229000-10.74581000
  11.69112000-12.88543000 -0.82660000
  11.69112000-15.74886000 -5.78621000
  11.69112000 -7.15857000-10.74581000
  11.69112000 -1.43171000 -0.82660000
  11.69112000 -4.29514000 -5.78621000
  11.69112000-12.88543000-10.74581000
  11.69112000 -7.15857000 -0.82660000
  11.69112000-10.02200000 -5.78621000
  13.99306000-21.47572000-12.39901000
  13.99306000-15.74886000 -2.47980000
  13.99306000-18.61229000 -7.43941000
  13.99306000-10.02200000-12.39901000
  13.99306000 -4.29514000 -2.47980000
  13.99306000 -7.15857000 -7.43941000
  13.99306000-15.74886000-12.39901000
  13.99306000-10.02200000 -2.47980000
  13.99306000-12.88543000 -7.43941000
  16.34180000-24.33915000-14.05221000
  16.34180000-18.61229000 -4.13300000
  16.34180000-21.47572000 -9.09261000
  16.34180000-12.88543000-14.05221000
  16.34180000 -7.15857000 -4.13300000
  16.34180000-10.02200000 -9.09261000
  16.34180000-18.61229000-14.05221000
  16.34180000-12.88543000 -4.13300000
  16.34180000-15.74886000 -9.09261000
   2.36204000 -8.59029000 -6.61281000
   2.36204000-11.45372000-11.57241000
   2.36204000 -5.72686000 -1.65320000
   2.36204000-14.31714000 -6.61281000
   2.36204000-17.18057000-11.57241000
   2.36204000-11.45372000 -1.65320000
   2.36204000-20.04400000 -6.61281000
   2.36204000-22.90743000-11.57241000
   2.36204000-17.18057000 -1.65320000
   4.71078000-11.45372000 -8.26601000
   4.71078000-14.31714000-13.22561000
   4.71078000 -8.59029000 -3.30640000
   4.71078000-17.18057000 -8.26601000
   4.71078000-20.04400000-13.22561000
   4.71078000-14.31714000 -3.30640000
   4.71078000 -5.72686000 -8.26601000
   4.71078000 -8.59029000-13.22561000
   4.71078000 -2.86343000 -3.30640000
   7.01272000-14.31714000 -9.91921000
   7.01272000 -8.59029000  0.00000000
   7.01272000-11.45372000 -4.95960000
   7.01272000-20.04400000 -9.91921000
   7.01272000-14.31714000  0.00000000
   7.01272000-17.18057000 -4.95960000
   7.01272000 -8.59029000 -9.91921000
   7.01272000 -2.86343000  0.00000000
   7.01272000 -5.72686000 -4.95960000
   9.35192000-17.18057000-11.57241000
   9.35192000-11.45372000 -1.65320000
   9.35192000-14.31714000 -6.61281000
   9.35192000-22.90743000-11.57241000
   9.35192000-17.18057000 -1.65320000
   9.35192000-20.04400000 -6.61281000
   9.35192000-11.45372000-11.57241000
   9.35192000 -5.72686000 -1.65320000
   9.35192000 -8.59029000 -6.61281000
  11.69112000-20.04400000-13.22561000
  11.69112000-14.31714000 -3.30640000
  11.69112000-17.18057000 -8.26601000
  11.69112000 -8.59029000-13.22561000
  11.69112000 -2.86343000 -3.30640000
  11.69112000 -5.72686000 -8.26601000
  11.69112000-14.31714000-13.22561000
  11.69112000 -8.59029000 -3.30640000
  11.69112000-11.45372000 -8.26601000
  13.99306000-14.31714000  0.00000000
  13.99306000-17.18057000 -4.95960000
  13.99306000-20.04400000 -9.91921000
  13.99306000 -2.86343000  0.00000000
  13.99306000 -5.72686000 -4.95960000
  13.99306000 -8.59029000 -9.91921000
  13.99306000 -8.59029000  0.00000000
  13.99306000-11.45372000 -4.95960000
  13.99306000-14.31714000 -9.91921000
  16.34180000-17.18057000 -1.65320000
  16.34180000-20.04400000 -6.61281000
  16.34180000-22.90743000-11.57241000
  16.34180000 -5.72686000 -1.65320000
  16.34180000 -8.59029000 -6.61281000
  16.34180000-11.45372000-11.57241000
  16.34180000-11.45372000 -1.65320000
  16.34180000-14.31714000 -6.61281000
  16.34180000-17.18057000-11.57241000
   2.36204000-10.02200000 -4.13300000
   2.36204000-12.88543000 -9.09261000
   2.36204000-15.74886000-14.05221000
   2.36204000-15.74886000 -4.13300000
   2.36204000-18.61229000 -9.09261000
   2.36204000-21.47572000-14.05221000
   2.36204000 -4.29514000 -4.13300000
   2.36204000 -7.15857000 -9.09261000
   2.36204000-10.02200000-14.05221000
   4.71078000-12.88543000 -5.78621000
   4.71078000-15.74886000-10.74581000
   4.71078000-10.02200000 -0.82660000
   4.71078000-18.61229000 -5.78621000
   4.71078000-21.47572000-10.74581000
   4.71078000-15.74886000 -0.82660000
   4.71078000 -7.15857000 -5.78621000
   4.71078000-10.02200000-10.74581000
   4.71078000 -4.29514000 -0.82660000
   7.01272000-15.74886000 -7.43941000
   7.01272000-18.61229000-12.39901000
   7.01272000-12.88543000 -2.47980000
   7.01272000-21.47571346 -7.43941000
   7.01272000-24.33914346-12.39901000
   7.01272000-18.61228346 -2.47980000
   7.01272000-10.02200000 -7.43941000
   7.01272000-12.88543000-12.39901000
   7.01272000 -7.15857000 -2.47980000
   9.35192000-18.61229000 -9.09261000
   9.35192000-21.47572000-14.05221000
   9.35192000-15.74886000 -4.13300000
   9.35192000 -7.15857000 -9.09261000
   9.35192000-10.02200000-14.05221000
   9.35192000 -4.29514000 -4.13300000
   9.35192000-12.88543000 -9.09261000
   9.35192000-15.74886000-14.05221000
   9.35192000-10.02200000 -4.13300000
  11.69112000-21.47572000-10.74581000
  11.69112000-15.74886000 -0.82660000
  11.69112000-18.61229000 -5.78621000
  11.69112000-10.02200000-10.74581000
  11.69112000 -4.29514000 -0.82660000
  11.69112000 -7.15857000 -5.78621000
  11.69112000-15.74886000-10.74581000
  11.69112000-10.02200000 -0.82660000
  11.69112000-12.88543000 -5.78621000
  13.99306000-24.33914346-12.39901000
  13.99306000-18.61228346 -2.47980000
  13.99306000-21.47571346 -7.43941000
  13.99306000-12.88543000-12.39901000
  13.99306000 -7.15857000 -2.47980000
  13.99306000-10.02200000 -7.43941000
  13.99306000-18.61229000-12.39901000
  13.99306000-12.88543000 -2.47980000
  13.99306000-15.74886000 -7.43941000
  16.34180000-10.02200000-14.05221000
  16.34180000 -4.29514000 -4.13300000
  16.34180000 -7.15857000 -9.09261000
  16.34180000-15.74886000-14.05221000
  16.34180000-10.02200000 -4.13300000
  16.34180000-12.88543000 -9.09261000
  16.34180000-21.47572000-14.05221000
  16.34180000-15.74886000 -4.13300000
  16.34180000-18.61229000 -9.09261000
  19.04000000-10.02200000 -7.24000000
  19.04000000-10.02200333 -5.98600000
 


--------------------------------------------------------------------------------------------------------


 k-point  1 :   0.0000 0.0000 0.0000  plane waves:   90499
 k-point  2 :   0.5000 0.0000 0.0000  plane waves:   90530
 k-point  3 :   0.0000 0.5000 0.0000  plane waves:   90530

 maximum and minimum number of plane-waves per node :     90530    90499

 maximum number of plane-waves:     90530
 maximum index in each direction: 
   IXMAX=   24   IYMAX=   24   IZMAX=   42
   IXMIN=  -24   IYMIN=  -24   IZMIN=  -42


 serial   3D FFT for wavefunctions
 parallel 3D FFT for charge:
    minimum data exchange during FFTs selected (reduces bandwidth)


 total amount of memory used by VASP MPI-rank0   652144. kBytes
=======================================================================

   base      :      30000. kBytes
   nonlr-proj:      89923. kBytes
   fftplans  :      40601. kBytes
   grid      :      95147. kBytes
   one-center:       3950. kBytes
   wavefun   :     392523. kBytes
 
     INWAV:  cpu time    0.0000: real time    0.0001
 Broyden mixing: mesh for mixing (old mesh)
   NGX = 49   NGY = 49   NGZ = 85
  (NGX  =160   NGY  =160   NGZ  =256)
  gives a total of 204085 points

 initial charge density was supplied:
 charge density of overlapping atoms calculated
 number of electron     766.0000000 magnetization 
 keeping initial charge density in first step


--------------------------------------------------------------------------------------------------------


 Maximum index for non-local projection operator         4276
 Maximum index for augmentation-charges          758 (set IRDMAX)


--------------------------------------------------------------------------------------------------------


 First call to EWALD:  gamma=   0.090
 Maximum number of real-space cells 3x 3x 2
 Maximum number of reciprocal cells 2x 2x 4

    FEWALD:  cpu time    0.0347: real time    0.0408


----------------------------------------- Iteration    1(   1)  ---------------------------------------


    POTLOK:  cpu time    0.8347: real time    0.8679
    SETDIJ:  cpu time    0.1059: real time    0.1084
     EDDAV:  cpu time   18.3503: real time   21.1763
       DOS:  cpu time    0.0013: real time    0.0080
    --------------------------------------------
      LOOP:  cpu time   19.2944: real time   22.1814

 eigenvalue-minimisations  :  3120
 total energy-change (2. order) : 0.2135126E+04  (-0.1840157E+05)
 number of electron     766.0000000 magnetization 
 augmentation part      766.0000000 magnetization 

 Free energy of the ion-electron system (eV)
  ---------------------------------------------------
  alpha Z        PSCENC =       505.22967617
  Ewald energy   TEWEN  =     87554.47931062
  -Hartree energ DENC   =   -101627.37303783
  -exchange      EXHF   =         0.00000000
  -V(xc)+E(xc)   XCENC  =     -6606.07862498
  PAW double counting   =     17092.30507181    -9042.14386232
  entropy T*S    EENTRO =        -0.06255711
  eigenvalues    EBANDS =       239.56821377
  atomic energy  EATOM  =     14019.20197576
  Solvation  Ediel_sol  =         0.00000000
  ---------------------------------------------------
  free energy    TOTEN  =      2135.12616589 eV

  energy without entropy =     2135.18872300  energy(sigma->0) =     2135.15744444


--------------------------------------------------------------------------------------------------------




----------------------------------------- Iteration    1(   2)  ---------------------------------------


     EDDAV:  cpu time   23.1012: real time   26.2730
       DOS:  cpu time    0.0137: real time    0.0137
    --------------------------------------------
      LOOP:  cpu time   23.1163: real time   26.2962

 eigenvalue-minimisations  :  4224
 total energy-change (2. order) :-0.2878010E+04  (-0.2714451E+04)
 number of electron     766.0000000 magnetization 
 augmentation part      766.0000000 magnetization 

 Free energy of the ion-electron system (eV)
  ---------------------------------------------------
  alpha Z        PSCENC =       505.22967617
  Ewald energy   TEWEN  =     87554.47931062
  -Hartree energ DENC   =   -101627.37303783
  -exchange      EXHF   =         0.00000000
  -V(xc)+E(xc)   XCENC  =     -6606.07862498
  PAW double counting   =     17092.30507181    -9042.14386232
  entropy T*S    EENTRO =        -0.10963916
  eigenvalues    EBANDS =     -2638.39498956
  atomic energy  EATOM  =     14019.20197576
  Solvation  Ediel_sol  =         0.00000000
  ---------------------------------------------------
  free energy    TOTEN  =      -742.88411950 eV

  energy without entropy =     -742.77448034  energy(sigma->0) =     -742.82929992


--------------------------------------------------------------------------------------------------------




----------------------------------------- Iteration    1(   3)  ---------------------------------------


     EDDAV:  cpu time   24.5141: real time   27.9362
       DOS:  cpu time    0.0212: real time    0.0212
    --------------------------------------------
      LOOP:  cpu time   24.5366: real time   27.9602

 eigenvalue-minimisations  :  4572
 total energy-change (2. order) :-0.2117566E+03  (-0.2033707E+03)
 number of electron     766.0000000 magnetization 
 augmentation part      766.0000000 magnetization 

 Free energy of the ion-electron system (eV)
  ---------------------------------------------------
  alpha Z        PSCENC =       505.22967617
  Ewald energy   TEWEN  =     87554.47931062
  -Hartree energ DENC   =   -101627.37303783
  -exchange      EXHF   =         0.00000000
  -V(xc)+E(xc)   XCENC  =     -6606.07862498
  PAW double counting   =     17092.30507181    -9042.14386232
  entropy T*S    EENTRO =        -0.22766509
  eigenvalues    EBANDS =     -2850.03357285
  atomic energy  EATOM  =     14019.20197576
  Solvation  Ediel_sol  =         0.00000000
  ---------------------------------------------------
  free energy    TOTEN  =      -954.64072872 eV

  energy without entropy =     -954.41306362  energy(sigma->0) =     -954.52689617


--------------------------------------------------------------------------------------------------------




----------------------------------------- Iteration    1(   4)  ---------------------------------------


     EDDAV:  cpu time   23.7676: real time   27.0738
       DOS:  cpu time    0.0230: real time    0.0230
    --------------------------------------------
      LOOP:  cpu time   23.7920: real time   27.1002

 eigenvalue-minimisations  :  4392
 total energy-change (2. order) :-0.7445995E+01  (-0.7260705E+01)
 number of electron     766.0000000 magnetization 
 augmentation part      766.0000000 magnetization 

 Free energy of the ion-electron system (eV)
  ---------------------------------------------------
  alpha Z        PSCENC =       505.22967617
  Ewald energy   TEWEN  =     87554.47931062
  -Hartree energ DENC   =   -101627.37303783
  -exchange      EXHF   =         0.00000000
  -V(xc)+E(xc)   XCENC  =     -6606.07862498
  PAW double counting   =     17092.30507181    -9042.14386232
  entropy T*S    EENTRO =        -0.25811960
  eigenvalues    EBANDS =     -2857.44911336
  atomic energy  EATOM  =     14019.20197576
  Solvation  Ediel_sol  =         0.00000000
  ---------------------------------------------------
  free energy    TOTEN  =      -962.08672373 eV

  energy without entropy =     -961.82860413  energy(sigma->0) =     -961.95766393


--------------------------------------------------------------------------------------------------------




----------------------------------------- Iteration    1(   5)  ---------------------------------------


     EDDAV:  cpu time   25.8400: real time   29.4724
       DOS:  cpu time    0.0026: real time    0.0026
    CHARGE:  cpu time    1.6801: real time    1.7404
    MIXING:  cpu time    0.0264: real time    0.0264
    --------------------------------------------
      LOOP:  cpu time   27.5506: real time   31.2447

 eigenvalue-minimisations  :  4908
 total energy-change (2. order) :-0.3817876E+00  (-0.3800115E+00)
 number of electron     765.9999994 magnetization 
 augmentation part      -10.0170363 magnetization 

 Broyden mixing:
  rms(total) = 0.18642E+01    rms(broyden)= 0.18632E+01
  rms(prec ) = 0.26219E+01
  weight for this iteration     100.00

 Free energy of the ion-electron system (eV)
  ---------------------------------------------------
  alpha Z        PSCENC =       505.22967617
  Ewald energy   TEWEN  =     87554.47931062
  -Hartree energ DENC   =   -101627.37303783
  -exchange      EXHF   =         0.00000000
  -V(xc)+E(xc)   XCENC  =     -6606.07862498
  PAW double counting   =     17092.30507181    -9042.14386232
  entropy T*S    EENTRO =        -0.25983502
  eigenvalues    EBANDS =     -2857.82918551
  atomic energy  EATOM  =     14019.20197576
  Solvation  Ediel_sol  =         0.00000000
  ---------------------------------------------------
  free energy    TOTEN  =      -962.46851131 eV

  energy without entropy =     -962.20867629  energy(sigma->0) =     -962.33859380


--------------------------------------------------------------------------------------------------------




----------------------------------------- Iteration    1(   6)  ---------------------------------------


    POTLOK:  cpu time    0.7821: real time    0.7821
    SETDIJ:  cpu time    0.1069: real time    0.1069
     EDDAV:  cpu time   23.7382: real time   27.0308
       DOS:  cpu time    0.0013: real time    0.0013
    CHARGE:  cpu time    1.6589: real time    1.6915
    MIXING:  cpu time    0.0279: real time    0.0281
    --------------------------------------------
      LOOP:  cpu time   26.3168: real time   29.6434

 eigenvalue-minimisations  :  4380
 total energy-change (2. order) :-0.1541247E+02  (-0.1914996E+02)
 number of electron     765.9999994 magnetization 
 augmentation part       -9.9656170 magnetization 

 Broyden mixing:
  rms(total) = 0.18686E+01    rms(broyden)= 0.18686E+01
  rms(prec ) = 0.42092E+01
  weight for this iteration     100.00

 eigenvalues of (default mixing * dielectric matrix)
  average eigenvalue GAMMA=   0.7531
  0.7531

 Free energy of the ion-electron system (eV)
  ---------------------------------------------------
  alpha Z        PSCENC =       505.22967617
  Ewald energy   TEWEN  =     87554.47931062
  -Hartree energ DENC   =   -102550.37842324
  -exchange      EXHF   =         0.00000000
  -V(xc)+E(xc)   XCENC  =     -6596.17606555
  PAW double counting   =     19029.10014774   -10980.24590311
  entropy T*S    EENTRO =        -0.14804367
  eigenvalues    EBANDS =     -1958.94365316
  atomic energy  EATOM  =     14019.20197576
  Solvation  Ediel_sol  =         0.00000000
  ---------------------------------------------------
  free energy    TOTEN  =      -977.88097843 eV

  energy without entropy =     -977.73293476  energy(sigma->0) =     -977.80695660


--------------------------------------------------------------------------------------------------------




----------------------------------------- Iteration    1(   7)  ---------------------------------------


    POTLOK:  cpu time    0.7977: real time    0.7977
    SETDIJ:  cpu time    0.1056: real time    0.1056
     EDDAV:  cpu time   22.0731: real time   25.2146
       DOS:  cpu time    0.0012: real time    0.0012
    CHARGE:  cpu time    1.6746: real time    1.7077
    MIXING:  cpu time    0.0286: real time    0.0286
    --------------------------------------------
      LOOP:  cpu time   24.6824: real time   27.8582

 eigenvalue-minimisations  :  3996
 total energy-change (2. order) : 0.4069860E+02  (-0.1326915E+02)
 number of electron     765.9999994 magnetization 
 augmentation part      -10.0061540 magnetization 

 Broyden mixing:
  rms(total) = 0.96155E+00    rms(broyden)= 0.96154E+00
  rms(prec ) = 0.12228E+01
  weight for this iteration     100.00

 eigenvalues of (default mixing * dielectric matrix)
  average eigenvalue GAMMA=   1.1808
  2.0498  0.3118

 Free energy of the ion-electron system (eV)
  ---------------------------------------------------
  alpha Z        PSCENC =       505.22967617
  Ewald energy   TEWEN  =     87554.47931062
  -Hartree energ DENC   =   -102025.86980903
  -exchange      EXHF   =         0.00000000
  -V(xc)+E(xc)   XCENC  =     -6594.06051746
  PAW double counting   =     19405.30579439   -11356.57188338
  entropy T*S    EENTRO =        -0.04914399
  eigenvalues    EBANDS =     -2444.84778135
  atomic energy  EATOM  =     14019.20197576
  Solvation  Ediel_sol  =         0.00000000
  ---------------------------------------------------
  free energy    TOTEN  =      -937.18237826 eV

  energy without entropy =     -937.13323427  energy(sigma->0) =     -937.15780626


--------------------------------------------------------------------------------------------------------




----------------------------------------- Iteration    1(   8)  ---------------------------------------


    POTLOK:  cpu time    0.8002: real time    0.8003
    SETDIJ:  cpu time    0.1075: real time    0.1075
     EDDAV:  cpu time   21.8209: real time   24.9498
       DOS:  cpu time    0.0013: real time    0.0013
    CHARGE:  cpu time    1.6834: real time    1.7166
    MIXING:  cpu time    0.0300: real time    0.0300
    --------------------------------------------
      LOOP:  cpu time   24.4450: real time   27.6082

 eigenvalue-minimisations  :  3948
 total energy-change (2. order) : 0.9489617E-01  (-0.4579431E+01)
 number of electron     765.9999992 magnetization 
 augmentation part      -10.1657486 magnetization 

 Broyden mixing:
  rms(total) = 0.46949E+00    rms(broyden)= 0.46949E+00
  rms(prec ) = 0.69481E+00
  weight for this iteration     100.00

 eigenvalues of (default mixing * dielectric matrix)
  average eigenvalue GAMMA=   1.1537
  2.4880  0.6791  0.2940

 Free energy of the ion-electron system (eV)
  ---------------------------------------------------
  alpha Z        PSCENC =       505.22967617
  Ewald energy   TEWEN  =     87554.47931062
  -Hartree energ DENC   =   -102190.92332957
  -exchange      EXHF   =         0.00000000
  -V(xc)+E(xc)   XCENC  =     -6584.71429021
  PAW double counting   =     20916.27083340   -12868.38159852
  entropy T*S    EENTRO =        -0.05390400
  eigenvalues    EBANDS =     -2288.19615572
  atomic energy  EATOM  =     14019.20197576
  Solvation  Ediel_sol  =         0.00000000
  ---------------------------------------------------
  free energy    TOTEN  =      -937.08748208 eV

  energy without entropy =     -937.03357808  energy(sigma->0) =     -937.06053008


--------------------------------------------------------------------------------------------------------




----------------------------------------- Iteration    1(   9)  ---------------------------------------


    POTLOK:  cpu time    0.7952: real time    0.7952
    SETDIJ:  cpu time    0.1069: real time    0.1069
     EDDAV:  cpu time   22.6466: real time   25.8566
       DOS:  cpu time    0.0022: real time    0.0022
    CHARGE:  cpu time    1.6857: real time    1.7191
    MIXING:  cpu time    0.0307: real time    0.0307
    --------------------------------------------
      LOOP:  cpu time   25.2689: real time   28.5133

 eigenvalue-minimisations  :  4140
 total energy-change (2. order) :-0.2713307E+01  (-0.3885946E+00)
 number of electron     765.9999996 magnetization 
 augmentation part      -10.1846400 magnetization 

 Broyden mixing:
  rms(total) = 0.51323E+00    rms(broyden)= 0.51322E+00
  rms(prec ) = 0.18653E+01
  weight for this iteration     100.00

 eigenvalues of (default mixing * dielectric matrix)
  average eigenvalue GAMMA=   0.9230
  2.4994  0.6913  0.2895  0.2118

 Free energy of the ion-electron system (eV)
  ---------------------------------------------------
  alpha Z        PSCENC =       505.22967617
  Ewald energy   TEWEN  =     87554.47931062
  -Hartree energ DENC   =   -102343.00293286
  -exchange      EXHF   =         0.00000000
  -V(xc)+E(xc)   XCENC  =     -6577.90844240
  PAW double counting   =     21974.37655995   -13927.33060877
  entropy T*S    EENTRO =        -0.06403590
  eigenvalues    EBANDS =     -2144.78229208
  atomic energy  EATOM  =     14019.20197576
  Solvation  Ediel_sol  =         0.00000000
  ---------------------------------------------------
  free energy    TOTEN  =      -939.80078951 eV

  energy without entropy =     -939.73675361  energy(sigma->0) =     -939.76877156


--------------------------------------------------------------------------------------------------------




----------------------------------------- Iteration    1(  10)  ---------------------------------------


    POTLOK:  cpu time    0.7973: real time    0.7973
    SETDIJ:  cpu time    0.1068: real time    0.1068
     EDDAV:  cpu time   22.4731: real time   25.6503
       DOS:  cpu time    0.0026: real time    0.0026
    CHARGE:  cpu time    1.6858: real time    1.7186
    MIXING:  cpu time    0.0325: real time    0.0325
    --------------------------------------------
      LOOP:  cpu time   25.0998: real time   28.3110

 eigenvalue-minimisations  :  4080
 total energy-change (2. order) : 0.4984252E+01  (-0.2726014E+00)
 number of electron     765.9999992 magnetization 
 augmentation part      -10.2051470 magnetization 

 Broyden mixing:
  rms(total) = 0.11256E+00    rms(broyden)= 0.11247E+00
  rms(prec ) = 0.17919E+00
  weight for this iteration     100.00

 eigenvalues of (default mixing * dielectric matrix)
  average eigenvalue GAMMA=   1.0140
  2.4687  1.5005  0.6641  0.2966  0.1401

 Free energy of the ion-electron system (eV)
  ---------------------------------------------------
  alpha Z        PSCENC =       505.22967617
  Ewald energy   TEWEN  =     87554.47931062
  -Hartree energ DENC   =   -102372.60523841
  -exchange      EXHF   =         0.00000000
  -V(xc)+E(xc)   XCENC  =     -6576.50998899
  PAW double counting   =     22176.72600588   -14129.86687426
  entropy T*S    EENTRO =        -0.05295427
  eigenvalues    EBANDS =     -2111.41844965
  atomic energy  EATOM  =     14019.20197576
  Solvation  Ediel_sol  =         0.00000000
  ---------------------------------------------------
  free energy    TOTEN  =      -934.81653715 eV

  energy without entropy =     -934.76358288  energy(sigma->0) =     -934.79006002


--------------------------------------------------------------------------------------------------------




----------------------------------------- Iteration    1(  11)  ---------------------------------------


    POTLOK:  cpu time    0.7980: real time    0.7981
    SETDIJ:  cpu time    0.1068: real time    0.1068
     EDDAV:  cpu time   21.7845: real time   24.8881
       DOS:  cpu time    0.0047: real time    0.0047
    CHARGE:  cpu time    1.6623: real time    1.6945
    MIXING:  cpu time    0.0340: real time    0.0342
    --------------------------------------------
      LOOP:  cpu time   24.3920: real time   27.5296

 eigenvalue-minimisations  :  3912
 total energy-change (2. order) : 0.2132835E-01  (-0.2346390E+00)
 number of electron     765.9999992 magnetization 
 augmentation part      -10.2373506 magnetization 

 Broyden mixing:
  rms(total) = 0.69926E-01    rms(broyden)= 0.69923E-01
  rms(prec ) = 0.10523E+00
  weight for this iteration     100.00

 eigenvalues of (default mixing * dielectric matrix)
  average eigenvalue GAMMA=   1.0361
  2.2019  2.2019  0.6879  0.6879  0.2960  0.1406

 Free energy of the ion-electron system (eV)
  ---------------------------------------------------
  alpha Z        PSCENC =       505.22967617
  Ewald energy   TEWEN  =     87554.47931062
  -Hartree energ DENC   =   -102429.78048977
  -exchange      EXHF   =         0.00000000
  -V(xc)+E(xc)   XCENC  =     -6575.42571431
  PAW double counting   =     22211.28503014   -14164.75097201
  entropy T*S    EENTRO =        -0.05315919
  eigenvalues    EBANDS =     -2054.98086621
  atomic energy  EATOM  =     14019.20197576
  Solvation  Ediel_sol  =         0.00000000
  ---------------------------------------------------
  free energy    TOTEN  =      -934.79520880 eV

  energy without entropy =     -934.74204962  energy(sigma->0) =     -934.76862921


--------------------------------------------------------------------------------------------------------




----------------------------------------- Iteration    1(  12)  ---------------------------------------


    POTLOK:  cpu time    0.8128: real time    0.8128
    SETDIJ:  cpu time    0.1076: real time    0.1076
     EDDAV:  cpu time   22.3342: real time   25.5347
       DOS:  cpu time    0.0025: real time    0.0025
    CHARGE:  cpu time    1.6601: real time    1.6928
    MIXING:  cpu time    0.0350: real time    0.0350
    --------------------------------------------
      LOOP:  cpu time   24.9537: real time   28.1881

 eigenvalue-minimisations  :  4068
 total energy-change (2. order) : 0.2159005E-01  (-0.1838424E-01)
 number of electron     765.9999992 magnetization 
 augmentation part      -10.2430296 magnetization 

 Broyden mixing:
  rms(total) = 0.50598E-01    rms(broyden)= 0.50597E-01
  rms(prec ) = 0.71894E-01
  weight for this iteration     100.00

 eigenvalues of (default mixing * dielectric matrix)
  average eigenvalue GAMMA=   1.1090
  2.4689  2.4689  0.8581  0.8581  0.6722  0.2962  0.1406

 Free energy of the ion-electron system (eV)
  ---------------------------------------------------
  alpha Z        PSCENC =       505.22967617
  Ewald energy   TEWEN  =     87554.47931062
  -Hartree energ DENC   =   -102459.78662048
  -exchange      EXHF   =         0.00000000
  -V(xc)+E(xc)   XCENC  =     -6575.12735567
  PAW double counting   =     22199.16312251   -14152.80668598
  entropy T*S    EENTRO =        -0.05362314
  eigenvalues    EBANDS =     -2025.07341855
  atomic energy  EATOM  =     14019.20197576
  Solvation  Ediel_sol  =         0.00000000
  ---------------------------------------------------
  free energy    TOTEN  =      -934.77361876 eV

  energy without entropy =     -934.71999562  energy(sigma->0) =     -934.74680719


--------------------------------------------------------------------------------------------------------




----------------------------------------- Iteration    1(  13)  ---------------------------------------


    POTLOK:  cpu time    0.8026: real time    0.8027
    SETDIJ:  cpu time    0.1067: real time    0.1067
     EDDAV:  cpu time   22.0168: real time   25.0975
       DOS:  cpu time    0.0012: real time    0.0012
    CHARGE:  cpu time    1.6805: real time    1.7143
    MIXING:  cpu time    0.0371: real time    0.0371
    --------------------------------------------
      LOOP:  cpu time   24.6467: real time   27.7628

 eigenvalue-minimisations  :  3972
 total energy-change (2. order) : 0.3240584E-01  (-0.5027128E-02)
 number of electron     765.9999992 magnetization 
 augmentation part      -10.2398409 magnetization 

 Broyden mixing:
  rms(total) = 0.27175E-01    rms(broyden)= 0.27170E-01
  rms(prec ) = 0.44635E-01
  weight for this iteration     100.00

 eigenvalues of (default mixing * dielectric matrix)
  average eigenvalue GAMMA=   1.1724
  2.7602  2.7602  1.0338  1.0338  0.2962  0.6774  0.6774  0.1406

 Free energy of the ion-electron system (eV)
  ---------------------------------------------------
  alpha Z        PSCENC =       505.22967617
  Ewald energy   TEWEN  =     87554.47931062
  -Hartree energ DENC   =   -102502.65478499
  -exchange      EXHF   =         0.00000000
  -V(xc)+E(xc)   XCENC  =     -6574.63181469
  PAW double counting   =     22205.54509315   -14159.40138541
  entropy T*S    EENTRO =        -0.05370586
  eigenvalues    EBANDS =     -1982.45557766
  atomic energy  EATOM  =     14019.20197576
  Solvation  Ediel_sol  =         0.00000000
  ---------------------------------------------------
  free energy    TOTEN  =      -934.74121291 eV

  energy without entropy =     -934.68750705  energy(sigma->0) =     -934.71435998


--------------------------------------------------------------------------------------------------------




----------------------------------------- Iteration    1(  14)  ---------------------------------------


    POTLOK:  cpu time    0.8044: real time    0.8044
    SETDIJ:  cpu time    0.1066: real time    0.1066
     EDDAV:  cpu time   21.5975: real time   24.7151
       DOS:  cpu time    0.0012: real time    0.0012
    CHARGE:  cpu time    1.6572: real time    1.6898
    MIXING:  cpu time    0.0378: real time    0.0378
    --------------------------------------------
      LOOP:  cpu time   24.2064: real time   27.3577

 eigenvalue-minimisations  :  3888
 total energy-change (2. order) : 0.6041653E-02  (-0.3003367E-02)
 number of electron     765.9999992 magnetization 
 augmentation part      -10.2374954 magnetization 

 Broyden mixing:
  rms(total) = 0.18441E-01    rms(broyden)= 0.18435E-01
  rms(prec ) = 0.32524E-01
  weight for this iteration     100.00

 eigenvalues of (default mixing * dielectric matrix)
  average eigenvalue GAMMA=   1.1558
  3.0218  2.6483  1.2552  0.2962  0.1406  0.7951  0.7951  0.7890  0.6609

 Free energy of the ion-electron system (eV)
  ---------------------------------------------------
  alpha Z        PSCENC =       505.22967617
  Ewald energy   TEWEN  =     87554.47931062
  -Hartree energ DENC   =   -102531.82132094
  -exchange      EXHF   =         0.00000000
  -V(xc)+E(xc)   XCENC  =     -6574.25827891
  PAW double counting   =     22215.67612360   -14169.61040592
  entropy T*S    EENTRO =        -0.05418313
  eigenvalues    EBANDS =     -1953.57806850
  atomic energy  EATOM  =     14019.20197576
  Solvation  Ediel_sol  =         0.00000000
  ---------------------------------------------------
  free energy    TOTEN  =      -934.73517126 eV

  energy without entropy =     -934.68098813  energy(sigma->0) =     -934.70807969


--------------------------------------------------------------------------------------------------------




----------------------------------------- Iteration    1(  15)  ---------------------------------------


    POTLOK:  cpu time    0.8121: real time    0.8121
    SETDIJ:  cpu time    0.1066: real time    0.1066
     EDDAV:  cpu time   21.2554: real time   24.2342
       DOS:  cpu time    0.0015: real time    0.0015
    CHARGE:  cpu time    1.6861: real time    1.7189
    MIXING:  cpu time    0.0408: real time    0.0408
    --------------------------------------------
      LOOP:  cpu time   23.9041: real time   26.9170

 eigenvalue-minimisations  :  3792
 total energy-change (2. order) :-0.3320877E-02  (-0.8877733E-03)
 number of electron     765.9999992 magnetization 
 augmentation part      -10.2371719 magnetization 

 Broyden mixing:
  rms(total) = 0.13847E-01    rms(broyden)= 0.13847E-01
  rms(prec ) = 0.21786E-01
  weight for this iteration     100.00

 eigenvalues of (default mixing * dielectric matrix)
  average eigenvalue GAMMA=   1.3037
  3.6736  2.5114  2.4754  0.1406  0.2962  0.9922  0.9922  0.7387  0.7387  0.4779

 Free energy of the ion-electron system (eV)
  ---------------------------------------------------
  alpha Z        PSCENC =       505.22967617
  Ewald energy   TEWEN  =     87554.47931062
  -Hartree energ DENC   =   -102544.10285927
  -exchange      EXHF   =         0.00000000
  -V(xc)+E(xc)   XCENC  =     -6574.13963848
  PAW double counting   =     22216.58251827   -14170.50424979
  entropy T*S    EENTRO =        -0.05405880
  eigenvalues    EBANDS =     -1941.43116660
  atomic energy  EATOM  =     14019.20197576
  Solvation  Ediel_sol  =         0.00000000
  ---------------------------------------------------
  free energy    TOTEN  =      -934.73849214 eV

  energy without entropy =     -934.68443333  energy(sigma->0) =     -934.71146273


--------------------------------------------------------------------------------------------------------




----------------------------------------- Iteration    1(  16)  ---------------------------------------


    POTLOK:  cpu time    0.8224: real time    0.8225
    SETDIJ:  cpu time    0.1073: real time    0.1073
     EDDAV:  cpu time   19.5462: real time   22.4032
       DOS:  cpu time    0.0012: real time    0.0012
    CHARGE:  cpu time    1.6566: real time    1.6889
    MIXING:  cpu time    0.0417: real time    0.0417
    --------------------------------------------
      LOOP:  cpu time   22.1770: real time   25.0674

 eigenvalue-minimisations  :  3396
 total energy-change (2. order) :-0.1331427E-01  (-0.1004648E-02)
 number of electron     765.9999992 magnetization 
 augmentation part      -10.2369681 magnetization 

 Broyden mixing:
  rms(total) = 0.60475E-02    rms(broyden)= 0.60464E-02
  rms(prec ) = 0.97552E-02
  weight for this iteration     100.00

 eigenvalues of (default mixing * dielectric matrix)
  average eigenvalue GAMMA=   1.4146
  4.7718  2.7361  2.5102  0.1406  0.2962  1.0880  1.0880  1.0024  0.7252  0.7252
  0.4774

 Free energy of the ion-electron system (eV)
  ---------------------------------------------------
  alpha Z        PSCENC =       505.22967617
  Ewald energy   TEWEN  =     87554.47931062
  -Hartree energ DENC   =   -102564.56378155
  -exchange      EXHF   =         0.00000000
  -V(xc)+E(xc)   XCENC  =     -6574.06629574
  PAW double counting   =     22207.07384482   -14160.89323669
  entropy T*S    EENTRO =        -0.05423986
  eigenvalues    EBANDS =     -1921.15905993
  atomic energy  EATOM  =     14019.20197576
  Solvation  Ediel_sol  =         0.00000000
  ---------------------------------------------------
  free energy    TOTEN  =      -934.75180641 eV

  energy without entropy =     -934.69756655  energy(sigma->0) =     -934.72468648


--------------------------------------------------------------------------------------------------------




----------------------------------------- Iteration    1(  17)  ---------------------------------------


    POTLOK:  cpu time    0.8292: real time    0.8293
    SETDIJ:  cpu time    0.1070: real time    0.1070
     EDDAV:  cpu time   21.4698: real time   24.5351
       DOS:  cpu time    0.0022: real time    0.0022
    CHARGE:  cpu time    1.6738: real time    1.7065
    MIXING:  cpu time    0.0441: real time    0.0441
    --------------------------------------------
[...]
     11.69112     -8.59029     -8.26601        -0.001295     -0.008150      0.001659
     11.69112    -17.18057    -13.22561         0.005676      0.001379     -0.003187
     11.69112    -11.45372     -3.30640         0.005180      0.005042     -0.011284
     11.69112    -14.31714     -8.26601        -0.000218     -0.001576      0.000884
     13.99306      0.00000      0.00000         0.001762     -0.000237      0.001235
     13.99306     -2.86343     -4.95960        -0.003176     -0.005514      0.001401
     13.99306     -5.72686     -9.91921         0.002467      0.000597     -0.001520
     13.99306     -5.72686      0.00000        -0.000936     -0.002233     -0.003506
     13.99306     -8.59029     -4.95960        -0.034661      0.008682     -0.004542
     13.99306    -11.45372     -9.91921         0.003026      0.002177      0.013791
     13.99306    -11.45372      0.00000        -0.000963     -0.000992     -0.000946
     13.99306    -14.31714     -4.95960         0.000053     -0.006093     -0.001204
     13.99306    -17.18057     -9.91921        -0.001524      0.002634      0.001592
     16.34180     -2.86343     -1.65320        -0.003258     -0.001894      0.000643
     16.34180     -5.72686     -6.61281         0.010258      0.002856     -0.002371
     16.34180     -8.59029    -11.57241         0.007929     -0.000520      0.001381
     16.34180     -8.59029     -1.65320         0.005486      0.002951     -0.001936
     16.34180    -11.45372     -6.61281        -0.242188     -0.105937      0.007882
     16.34180    -14.31714    -11.57241         0.001743      0.001639      0.001828
     16.34180    -14.31714     -1.65320         0.000713      0.002005     -0.002234
     16.34180    -17.18057     -6.61281        -0.001119      0.007626     -0.000659
     16.34180    -20.04400    -11.57241        -0.000968     -0.002234     -0.001231
      2.36204     -7.15857     -4.13300         0.000887     -0.005191     -0.007169
      2.36204    -10.02200     -9.09261        -0.011651      0.000000      0.008799
      2.36204    -12.88543    -14.05221        -0.002837     -0.001901     -0.002760
      2.36204    -12.88543     -4.13300         0.000887      0.005191     -0.007169
      2.36204    -15.74886     -9.09261         0.006703     -0.007834     -0.006852
      2.36204    -18.61229    -14.05221         0.000642      0.000000     -0.001357
      2.36204    -18.61229     -4.13300        -0.001815      0.000000     -0.000119
      2.36204    -21.47572     -9.09261         0.006703      0.007834     -0.006852
      2.36204    -24.33915    -14.05221        -0.002837      0.001901     -0.002760
      4.71078    -10.02200     -5.78621        -0.014199      0.000000     -0.003250
      4.71078    -12.88543    -10.74581         0.003444      0.003283     -0.001485
      4.71078     -7.15857     -0.82660        -0.002742      0.000281      0.003883
      4.71078    -15.74886     -5.78621         0.001052     -0.003580      0.001886
      4.71078    -18.61229    -10.74581        -0.002030      0.000000      0.002094
      4.71078    -12.88543     -0.82660        -0.002742     -0.000281      0.003883
      4.71078     -4.29514     -5.78621         0.001052      0.003580      0.001886
      4.71078     -7.15857    -10.74581         0.003444     -0.003283     -0.001485
      4.71078     -1.43171     -0.82660        -0.002392      0.000000      0.000890
      7.01272    -12.88543     -7.43941        -0.000243      0.009500      0.001744
      7.01272    -15.74886    -12.39901         0.002506     -0.003003      0.002814
      7.01272    -10.02200     -2.47980        -0.003973      0.000000     -0.007655
      7.01272    -18.61229     -7.43941         0.001823      0.000000      0.004021
      7.01272    -21.47572    -12.39901         0.002506      0.003003      0.002814
      7.01272    -15.74886     -2.47980         0.000909     -0.001725      0.002651
      7.01272     -7.15857     -7.43941        -0.000243     -0.009500      0.001744
      7.01272    -10.02200    -12.39901         0.001920      0.000000      0.000935
      7.01272     -4.29514     -2.47980         0.000909      0.001725      0.002651
      9.35192    -15.74886     -9.09261         0.001837     -0.003895      0.000785
      9.35192    -18.61229    -14.05221        -0.003760      0.000000     -0.001258
      9.35192    -12.88543     -4.13300         0.000466      0.011546     -0.007468
      9.35192    -21.47572     -9.09261         0.001837      0.003895      0.000785
      9.35192    -24.33915    -14.05221         0.003377     -0.000720      0.000181
      9.35192    -18.61229     -4.13300         0.003431      0.000000      0.000007
      9.35192    -10.02200     -9.09261         0.012830      0.000000      0.009564
      9.35192    -12.88543    -14.05221         0.003377      0.000720      0.000181
      9.35192     -7.15857     -4.13300         0.000466     -0.011546     -0.007468
     11.69112    -18.61229    -10.74581         0.003115      0.000000     -0.002132
     11.69112    -12.88543     -0.82660         0.006360      0.001579     -0.003710
     11.69112    -15.74886     -5.78621         0.001976     -0.004445     -0.000532
     11.69112     -7.15857    -10.74581         0.001405      0.000310     -0.002648
     11.69112     -1.43171     -0.82660         0.003235      0.000000      0.000369
     11.69112     -4.29514     -5.78621         0.001976      0.004445     -0.000532
     11.69112    -12.88543    -10.74581         0.001405     -0.000310     -0.002648
     11.69112     -7.15857     -0.82660         0.006360     -0.001579     -0.003710
     11.69112    -10.02200     -5.78621        -0.029523      0.000000      0.000645
     13.99306    -21.47572    -12.39901        -0.001245     -0.000790      0.000466
     13.99306    -15.74886     -2.47980        -0.000392     -0.000605     -0.001058
     13.99306    -18.61229     -7.43941        -0.002759      0.000000     -0.000094
     13.99306    -10.02200    -12.39901         0.006836      0.000000      0.000067
     13.99306     -4.29514     -2.47980        -0.000392      0.000605     -0.001058
     13.99306     -7.15857     -7.43941        -0.002990     -0.016875      0.012524
     13.99306    -15.74886    -12.39901        -0.001245      0.000790      0.000466
     13.99306    -10.02200     -2.47980        -0.001781      0.000000      0.010022
     13.99306    -12.88543     -7.43941        -0.002990      0.016875      0.012524
     16.34180    -24.33915    -14.05221        -0.001852     -0.002025      0.000690
     16.34180    -18.61229     -4.13300        -0.003186      0.000000      0.000044
     16.34180    -21.47572     -9.09261         0.003601     -0.001691      0.001379
     16.34180    -12.88543    -14.05221        -0.001852      0.002025      0.000690
     16.34180     -7.15857     -4.13300         0.011202     -0.001520      0.001282
     16.34180    -10.02200     -9.09261         0.028665      0.000000      0.021697
     16.34180    -18.61229    -14.05221         0.002788      0.000000     -0.002759
     16.34180    -12.88543     -4.13300         0.011202      0.001520      0.001282
     16.34180    -15.74886     -9.09261         0.003601      0.001691      0.001379
      2.36204     -8.59029     -6.61281        -0.020001     -0.008135      0.001693
      2.36204    -11.45372    -11.57241         0.002114      0.000031     -0.001802
      2.36204     -5.72686     -1.65320        -0.000458      0.001389      0.005019
      2.36204    -14.31714     -6.61281         0.004241      0.005207      0.005897
      2.36204    -17.18057    -11.57241        -0.003385      0.001268      0.003530
      2.36204    -11.45372     -1.65320         0.005654     -0.004036      0.004465
      2.36204    -20.04400     -6.61281        -0.000677      0.005703      0.001174
      2.36204    -22.90743    -11.57241         0.002165      0.001623     -0.005295
      2.36204    -17.18057     -1.65320        -0.002709      0.001952      0.000250
      4.71078    -11.45372     -8.26601        -0.008554      0.003572      0.007711
      4.71078    -14.31714    -13.22561        -0.004521     -0.001063     -0.002174
      4.71078     -8.59029     -3.30640        -0.000622     -0.003117     -0.008757
      4.71078    -17.18057     -8.26601        -0.000270     -0.005780      0.000608
      4.71078    -20.04400    -13.22561        -0.003943     -0.000916     -0.001048
      4.71078    -14.31714     -3.30640         0.002377     -0.002678      0.001119
      4.71078     -5.72686     -8.26601         0.005676     -0.005927      0.004155
      4.71078     -8.59029    -13.22561        -0.001646      0.000063     -0.000033
      4.71078     -2.86343     -3.30640        -0.003683     -0.000822      0.001841
      7.01272    -14.31714     -9.91921         0.004533     -0.000955     -0.001996
      7.01272     -8.59029      0.00000        -0.000382     -0.000410      0.001385
      7.01272    -11.45372     -4.95960         0.003859      0.006791     -0.006547
      7.01272    -20.04400     -9.91921        -0.001273     -0.003082     -0.005185
      7.01272    -14.31714      0.00000         0.000690      0.000909      0.000440
      7.01272    -17.18057     -4.95960         0.001073     -0.001598     -0.001749
      7.01272     -8.59029     -9.91921         0.001524     -0.004484      0.009407
      7.01272     -2.86343      0.00000        -0.000588      0.001199     -0.003797
      7.01272     -5.72686     -4.95960         0.001008     -0.006054     -0.003528
      9.35192    -17.18057    -11.57241        -0.000247      0.001823      0.001519
      9.35192    -11.45372     -1.65320        -0.001765     -0.002533      0.001743
      9.35192    -14.31714     -6.61281         0.001273      0.007726     -0.001872
      9.35192    -22.90743    -11.57241         0.003804     -0.000365     -0.000323
      9.35192    -17.18057     -1.65320         0.000808      0.001982     -0.002250
      9.35192    -20.04400     -6.61281         0.005180      0.000856     -0.000186
      9.35192    -11.45372    -11.57241        -0.002797     -0.002665     -0.000474
      9.35192     -5.72686     -1.65320         0.003302      0.000656      0.001570
      9.35192     -8.59029     -6.61281         0.019377      0.002147      0.000397
     11.69112    -20.04400    -13.22561         0.005676     -0.001379     -0.003187
     11.69112    -14.31714     -3.30640        -0.000623     -0.002294      0.002928
     11.69112    -17.18057     -8.26601        -0.000359      0.005003      0.002048
     11.69112     -8.59029    -13.22561         0.002997      0.002079      0.005179
     11.69112     -2.86343     -3.30640         0.002711     -0.004380     -0.001646
     11.69112     -5.72686     -8.26601        -0.000218      0.001576      0.000884
     11.69112    -14.31714    -13.22561         0.000163      0.004213      0.003535
     11.69112     -8.59029     -3.30640         0.005180     -0.005042     -0.011284
     11.69112    -11.45372     -8.26601        -0.001295      0.008150      0.001659
     13.99306    -14.31714      0.00000        -0.000936      0.002233     -0.003506
     13.99306    -17.18057     -4.95960        -0.003176      0.005514      0.001401
     13.99306    -20.04400     -9.91921        -0.001524     -0.002634      0.001592
     13.99306     -2.86343      0.00000         0.001762      0.000237      0.001235
     13.99306     -5.72686     -4.95960         0.000053      0.006093     -0.001204
     13.99306     -8.59029     -9.91921         0.003026     -0.002177      0.013791
     13.99306     -8.59029      0.00000        -0.000963      0.000992     -0.000946
     13.99306    -11.45372     -4.95960        -0.034661     -0.008682     -0.004542
     13.99306    -14.31714     -9.91921         0.002467     -0.000597     -0.001520
     16.34180    -17.18057     -1.65320        -0.003258      0.001894      0.000643
     16.34180    -20.04400     -6.61281        -0.001119     -0.007626     -0.000659
     16.34180    -22.90743    -11.57241         0.001743     -0.001639      0.001828
     16.34180     -5.72686     -1.65320         0.000713     -0.002005     -0.002234
     16.34180     -8.59029     -6.61281        -0.242188      0.105937      0.007882
     16.34180    -11.45372    -11.57241         0.007929      0.000520      0.001381
     16.34180    -11.45372     -1.65320         0.005486     -0.002951     -0.001936
     16.34180    -14.31714     -6.61281         0.010258     -0.002856     -0.002371
     16.34180    -17.18057    -11.57241        -0.000968      0.002234     -0.001231
      2.36204    -10.02200     -4.13300        -0.007285      0.000000     -0.015316
      2.36204    -12.88543     -9.09261         0.003719      0.012467      0.003860
      2.36204    -15.74886    -14.05221        -0.003495      0.003132     -0.001223
      2.36204    -15.74886     -4.13300         0.003219     -0.004024      0.004115
      2.36204    -18.61229     -9.09261        -0.002017      0.000000     -0.001679
      2.36204    -21.47572    -14.05221        -0.003495     -0.003132     -0.001223
      2.36204     -4.29514     -4.13300         0.003219      0.004024      0.004115
      2.36204     -7.15857     -9.09261         0.003719     -0.012467      0.003860
      2.36204    -10.02200    -14.05221        -0.001386      0.000000     -0.000526
      4.71078    -12.88543     -5.78621        -0.004729      0.011882     -0.001584
      4.71078    -15.74886    -10.74581        -0.001806     -0.005953     -0.003585
      4.71078    -10.02200     -0.82660         0.006295      0.000000      0.002977
      4.71078    -18.61229     -5.78621        -0.001950      0.000000     -0.002996
      4.71078    -21.47572    -10.74581        -0.001806      0.005953     -0.003585
      4.71078    -15.74886     -0.82660        -0.002627     -0.000962      0.000010
      4.71078     -7.15857     -5.78621        -0.004729     -0.011882     -0.001584
      4.71078    -10.02200    -10.74581         0.001157      0.000000      0.004070
      4.71078     -4.29514     -0.82660        -0.002627      0.000962      0.000010
      7.01272    -15.74886     -7.43941         0.000030     -0.001944     -0.002269
      7.01272    -18.61229    -12.39901         0.004359      0.000000     -0.001249
      7.01272    -12.88543     -2.47980         0.001857     -0.000354     -0.000672
      7.01272    -21.47571     -7.43941         0.000030      0.001944     -0.002269
      7.01272    -24.33914    -12.39901        -0.000757     -0.000204      0.000027
      7.01272    -18.61228     -2.47980         0.000851      0.000000      0.000233
      7.01272    -10.02200     -7.43941         0.010601      0.000000     -0.000113
      7.01272    -12.88543    -12.39901        -0.000757      0.000204      0.000027
      7.01272     -7.15857     -2.47980         0.001857      0.000354     -0.000672
      9.35192    -18.61229     -9.09261         0.006673      0.000000      0.002299
      9.35192    -21.47572    -14.05221         0.000906     -0.000302     -0.002728
      9.35192    -15.74886     -4.13300         0.001347     -0.004821      0.000580
      9.35192     -7.15857     -9.09261        -0.003693     -0.006745      0.007105
      9.35192    -10.02200    -14.05221         0.000730      0.000000     -0.000387
      9.35192     -4.29514     -4.13300         0.001347      0.004821      0.000580
      9.35192    -12.88543     -9.09261        -0.003693      0.006745      0.007105
      9.35192    -15.74886    -14.05221         0.000906      0.000302     -0.002728
      9.35192    -10.02200     -4.13300         0.011431      0.000000     -0.009401
     11.69112    -21.47572    -10.74581         0.003287     -0.001460      0.001764
     11.69112    -15.74886     -0.82660         0.002255      0.000722     -0.002286
     11.69112    -18.61229     -5.78621        -0.000593      0.000000     -0.000802
     11.69112    -10.02200    -10.74581        -0.004079      0.000000      0.004898
     11.69112     -4.29514     -0.82660         0.002255     -0.000722     -0.002286
     11.69112     -7.15857     -5.78621         0.004949     -0.006963     -0.001722
     11.69112    -15.74886    -10.74581         0.003287      0.001460      0.001764
     11.69112    -10.02200     -0.82660         0.005220      0.000000     -0.000904
     11.69112    -12.88543     -5.78621         0.004949      0.006963     -0.001722
     13.99306    -24.33914    -12.39901         0.002343     -0.000851      0.001722
     13.99306    -18.61228     -2.47980        -0.002996      0.000000      0.000559
     13.99306    -21.47571     -7.43941         0.004377      0.001203      0.001663
     13.99306    -12.88543    -12.39901         0.002343      0.000851      0.001722
     13.99306     -7.15857     -2.47980         0.002495      0.002281      0.004954
     13.99306    -10.02200     -7.43941        -0.087065      0.000000     -0.001531
     13.99306    -18.61229    -12.39901        -0.002194      0.000000      0.000870
     13.99306    -12.88543     -2.47980         0.002495     -0.002281      0.004954
     13.99306    -15.74886     -7.43941         0.004377     -0.001203      0.001663
     16.34180    -10.02200    -14.05221         0.001831      0.000000      0.001013
     16.34180     -4.29514     -4.13300         0.003538     -0.002200     -0.000423
     16.34180     -7.15857     -9.09261         0.004621      0.003899      0.000698
     16.34180    -15.74886    -14.05221        -0.000571     -0.001832      0.000193
     16.34180    -10.02200     -4.13300         0.019588      0.000000     -0.035644
     16.34180    -12.88543     -9.09261         0.004621     -0.003899      0.000698
     16.34180    -21.47572    -14.05221        -0.000571      0.001832      0.000193
     16.34180    -15.74886     -4.13300         0.003538      0.002200     -0.000423
     16.34180    -18.61229     -9.09261        -0.002301      0.000000      0.000821
     19.04000    -10.02200     -7.24000         0.230251      0.000000      9.289298
     19.04000    -10.02200     -5.98600         0.175258     -0.000000     -9.323875
 -----------------------------------------------------------------------------------
    total drift:                                0.004413      0.000217      0.000198


--------------------------------------------------------------------------------------------------------



  FREE ENERGIE OF THE ION-ELECTRON SYSTEM (eV)
  ---------------------------------------------------
  free  energy   TOTEN  =      -934.76573932 eV

  energy  without entropy=     -934.71141588  energy(sigma->0) =     -934.73857760
 


--------------------------------------------------------------------------------------------------------


    POTLOK:  cpu time    0.9404: real time    0.9564


--------------------------------------------------------------------------------------------------------


     LOOP+:  cpu time  678.9657: real time  767.4665
    4ORBIT:  cpu time    0.0000: real time    0.0044

 total amount of memory used by VASP MPI-rank0   652144. kBytes
=======================================================================

   base      :      30000. kBytes
   nonlr-proj:      89923. kBytes
   fftplans  :      40601. kBytes
   grid      :      95147. kBytes
   one-center:       3950. kBytes
   wavefun   :     392523. kBytes
 
  
  
 General timing and accounting informations for this job:
 ========================================================
  
                  Total CPU time used (sec):      695.609
                            User time (sec):      119.643
                          System time (sec):      575.965
                         Elapsed time (sec):      788.658
  
                   Maximum memory used (kb):     1003532.
                   Average memory used (kb):           0.
  
                          Minor page faults:     26218921
                          Major page faults:           38
                 Voluntary context switches:        18289
