 254 254   0   0
  0.3019211E+02  0.1718057E-08  0.1718057E-08  0.3000000E-08  0.5000000E-15
  1.000000000000000E-004
  CAR 
 NiAl                                    
      5.52067127    -24.10107150  301      1.81311804      1.00000000
    -24.101  0.0000E+00  0.0000E+00
    -24.002  0.0000E+00  0.0000E+00
    -23.904  0.0000E+00  0.0000E+00
    -23.805  0.0000E+00  0.0000E+00
    -23.706  0.0000E+00  0.0000E+00
    -23.607  0.0000E+00  0.0000E+00
    -23.509  0.0000E+00  0.0000E+00
    -23.410  0.0000E+00  0.0000E+00
    -23.311  0.0000E+00  0.0000E+00
    -23.212  0.0000E+00  0.0000E+00
    -23.114  0.0000E+00  0.0000E+00
    -23.015  0.1791E-11  0.1768E-12
    -22.916  0.4881E-04  0.4820E-05
    -22.817  0.7607E+00  0.7512E-01
    -22.719  0.1634E+02  0.1689E+01
    -22.620  0.3149E+01  0.2000E+01
    -22.521  0.1432E-02  0.2000E+01
    -22.423  0.4206E-09  0.2000E+01
    -22.324  0.0000E+00  0.2000E+01
    -22.225  0.0000E+00  0.2000E+01
    -22.126  0.0000E+00  0.2000E+01
    -22.028  0.0000E+00  0.2000E+01
    -21.929  0.0000E+00  0.2000E+01
    -21.830  0.0000E+00  0.2000E+01
    -21.731  0.0000E+00  0.2000E+01
    -21.633  0.0000E+00  0.2000E+01
    -21.534  0.0000E+00  0.2000E+01
    -21.435  0.0000E+00  0.2000E+01
    -21.336  0.0000E+00  0.2000E+01
    -21.238  0.0000E+00  0.2000E+01
    -21.139  0.0000E+00  0.2000E+01
    -21.040  0.0000E+00  0.2000E+01
    -20.941  0.0000E+00  0.2000E+01
    -20.843  0.0000E+00  0.2000E+01
    -20.744  0.0000E+00  0.2000E+01
    -20.645  0.0000E+00  0.2000E+01
    -20.546  0.0000E+00  0.2000E+01
    -20.448  0.0000E+00  0.2000E+01
    -20.349  0.0000E+00  0.2000E+01
    -20.250  0.0000E+00  0.2000E+01
    -20.152  0.0000E+00  0.2000E+01
    -20.053  0.0000E+00  0.2000E+01
    -19.954  0.0000E+00  0.2000E+01
    -19.855  0.0000E+00  0.2000E+01
    -19.757  0.0000E+00  0.2000E+01
    -19.658  0.0000E+00  0.2000E+01
    -19.559  0.0000E+00  0.2000E+01
    -19.460  0.0000E+00  0.2000E+01
    -19.362  0.0000E+00  0.2000E+01
    -19.263  0.0000E+00  0.2000E+01
    -19.164  0.0000E+00  0.2000E+01
    -19.065  0.0000E+00  0.2000E+01
    -18.967  0.0000E+00  0.2000E+01
    -18.868  0.0000E+00  0.2000E+01
    -18.769  0.0000E+00  0.2000E+01
    -18.670  0.0000E+00  0.2000E+01
    -18.572  0.0000E+00  0.2000E+01
    -18.473  0.0000E+00  0.2000E+01
    -18.374  0.0000E+00  0.2000E+01
    -18.275  0.0000E+00  0.2000E+01
    -18.177  0.0000E+00  0.2000E+01
    -18.078  0.0000E+00  0.2000E+01
    -17.979  0.0000E+00  0.2000E+01
    -17.881  0.0000E+00  0.2000E+01
    -17.782  0.0000E+00  0.2000E+01
    -17.683  0.0000E+00  0.2000E+01
    -17.584  0.0000E+00  0.2000E+01
    -17.486  0.0000E+00  0.2000E+01
    -17.387  0.0000E+00  0.2000E+01
    -17.288  0.0000E+00  0.2000E+01
    -17.189  0.0000E+00  0.2000E+01
    -17.091  0.0000E+00  0.2000E+01
    -16.992  0.0000E+00  0.2000E+01
    -16.893  0.0000E+00  0.2000E+01
    -16.794  0.0000E+00  0.2000E+01
    -16.696  0.0000E+00  0.2000E+01
    -16.597  0.0000E+00  0.2000E+01
    -16.498  0.0000E+00  0.2000E+01
    -16.399  0.0000E+00  0.2000E+01
    -16.301  0.0000E+00  0.2000E+01
    -16.202  0.0000E+00  0.2000E+01
    -16.103  0.0000E+00  0.2000E+01
    -16.004  0.0000E+00  0.2000E+01
    -15.906  0.0000E+00  0.2000E+01
    -15.807  0.0000E+00  0.2000E+01
    -15.708  0.0000E+00  0.2000E+01
    -15.610  0.0000E+00  0.2000E+01
    -15.511  0.0000E+00  0.2000E+01
    -15.412  0.0000E+00  0.2000E+01
    -15.313  0.0000E+00  0.2000E+01
    -15.215  0.0000E+00  0.2000E+01
    -15.116  0.0000E+00  0.2000E+01
    -15.017  0.0000E+00  0.2000E+01
    -14.918  0.0000E+00  0.2000E+01
    -14.820  0.0000E+00  0.2000E+01
    -14.721  0.0000E+00  0.2000E+01
    -14.622  0.0000E+00  0.2000E+01
    -14.523  0.0000E+00  0.2000E+01
    -14.425  0.0000E+00  0.2000E+01
    -14.326  0.0000E+00  0.2000E+01
    -14.227  0.0000E+00  0.2000E+01
    -14.128  0.0000E+00  0.2000E+01
    -14.030  0.0000E+00  0.2000E+01
    -13.931  0.0000E+00  0.2000E+01
    -13.832  0.0000E+00  0.2000E+01
    -13.733  0.0000E+00  0.2000E+01
    -13.635  0.0000E+00  0.2000E+01
    -13.536  0.0000E+00  0.2000E+01
    -13.437  0.0000E+00  0.2000E+01
    -13.339  0.0000E+00  0.2000E+01
    -13.240  0.0000E+00  0.2000E+01
    -13.141  0.0000E+00  0.2000E+01
    -13.042  0.0000E+00  0.2000E+01
    -12.944  0.0000E+00  0.2000E+01
    -12.845  0.0000E+00  0.2000E+01
    -12.746  0.0000E+00  0.2000E+01
    -12.647  0.0000E+00  0.2000E+01
    -12.549  0.0000E+00  0.2000E+01
    -12.450  0.0000E+00  0.2000E+01
    -12.351  0.0000E+00  0.2000E+01
    -12.252  0.0000E+00  0.2000E+01
    -12.154  0.0000E+00  0.2000E+01
    -12.055  0.0000E+00  0.2000E+01
    -11.956  0.0000E+00  0.2000E+01
    -11.857  0.0000E+00  0.2000E+01
    -11.759  0.0000E+00  0.2000E+01
    -11.660  0.0000E+00  0.2000E+01
    -11.561  0.0000E+00  0.2000E+01
    -11.462  0.0000E+00  0.2000E+01
    -11.364  0.0000E+00  0.2000E+01
    -11.265  0.0000E+00  0.2000E+01
    -11.166  0.0000E+00  0.2000E+01
    -11.068  0.0000E+00  0.2000E+01
    -10.969  0.0000E+00  0.2000E+01
    -10.870  0.0000E+00  0.2000E+01
    -10.771  0.0000E+00  0.2000E+01
    -10.673  0.0000E+00  0.2000E+01
    -10.574  0.0000E+00  0.2000E+01
    -10.475  0.0000E+00  0.2000E+01
    -10.376  0.0000E+00  0.2000E+01
    -10.278  0.0000E+00  0.2000E+01
    -10.179  0.0000E+00  0.2000E+01
    -10.080  0.0000E+00  0.2000E+01
     -9.981  0.0000E+00  0.2000E+01
     -9.883  0.0000E+00  0.2000E+01
     -9.784  0.0000E+00  0.2000E+01
     -9.685  0.0000E+00  0.2000E+01
     -9.586  0.0000E+00  0.2000E+01
     -9.488  0.0000E+00  0.2000E+01
     -9.389  0.1124E-14  0.2000E+01
     -9.290  0.2435E-06  0.2000E+01
     -9.191  0.2798E-01  0.2003E+01
     -9.093  0.3007E+01  0.2300E+01
     -8.994  0.3445E+01  0.2640E+01
     -8.895  0.2495E+02  0.5104E+01
     -8.797  0.4430E+01  0.5541E+01
     -8.698  0.4354E+01  0.5971E+01
     -8.599  0.2554E+02  0.8493E+01
     -8.500  0.3611E+02  0.1206E+02
     -8.402  0.2461E+02  0.1449E+02
     -8.303  0.7061E+01  0.1518E+02
     -8.204  0.2533E+02  0.1769E+02
     -8.105  0.1281E+02  0.1895E+02
     -8.007  0.2716E+02  0.2163E+02
     -7.908  0.6821E+02  0.2837E+02
     -7.809  0.2162E+02  0.3050E+02
     -7.710  0.9630E+01  0.3145E+02
     -7.612  0.4753E+02  0.3615E+02
     -7.513  0.8323E+02  0.4436E+02
     -7.414  0.2152E+02  0.4649E+02
     -7.315  0.1204E+02  0.4768E+02
     -7.217  0.2920E+02  0.5056E+02
     -7.118  0.2749E+02  0.5328E+02
     -7.019  0.3902E+02  0.5713E+02
     -6.920  0.8506E+02  0.6553E+02
     -6.822  0.3901E+02  0.6938E+02
     -6.723  0.5040E+02  0.7436E+02
     -6.624  0.3893E+02  0.7820E+02
     -6.526  0.8784E+02  0.8687E+02
     -6.427  0.2495E+02  0.8934E+02
     -6.328  0.6736E+01  0.9000E+02
     -6.229  0.2716E+01  0.9027E+02
     -6.131  0.4067E+02  0.9429E+02
     -6.032  0.1095E+03  0.1051E+03
     -5.933  0.9378E+02  0.1144E+03
     -5.834  0.4916E+02  0.1192E+03
     -5.736  0.6778E+02  0.1259E+03
     -5.637  0.6417E+02  0.1322E+03
     -5.538  0.9894E+02  0.1420E+03
     -5.439  0.2672E+02  0.1446E+03
     -5.341  0.1689E+02  0.1463E+03
     -5.242  0.7613E+02  0.1538E+03
     -5.143  0.3560E+02  0.1573E+03
     -5.044  0.8795E+02  0.1660E+03
     -4.946  0.7953E+02  0.1739E+03
     -4.847  0.2192E+02  0.1760E+03
     -4.748  0.4060E+02  0.1801E+03
     -4.649  0.9558E+02  0.1895E+03
     -4.551  0.8010E+02  0.1974E+03
     -4.452  0.6256E+02  0.2036E+03
     -4.353  0.3012E+02  0.2066E+03
     -4.255  0.7844E+02  0.2143E+03
     -4.156  0.1018E+03  0.2243E+03
     -4.057  0.1137E+03  0.2356E+03
     -3.958  0.7901E+02  0.2434E+03
     -3.860  0.2728E+02  0.2461E+03
     -3.761  0.8929E+02  0.2549E+03
     -3.662  0.7738E+02  0.2625E+03
     -3.563  0.6136E+02  0.2686E+03
     -3.465  0.6869E+02  0.2754E+03
     -3.366  0.2126E+02  0.2775E+03
     -3.267  0.1492E+02  0.2789E+03
     -3.168  0.8736E+02  0.2876E+03
     -3.070  0.8237E+02  0.2957E+03
     -2.971  0.1125E+03  0.3068E+03
     -2.872  0.8626E+02  0.3153E+03
     -2.773  0.1573E+03  0.3309E+03
     -2.675  0.1738E+03  0.3480E+03
     -2.576  0.1507E+02  0.3495E+03
     -2.477  0.2676E+01  0.3498E+03
     -2.378  0.4576E+02  0.3543E+03
     -2.280  0.1067E+03  0.3648E+03
     -2.181  0.1101E+03  0.3757E+03
     -2.082  0.8064E+02  0.3836E+03
     -1.984  0.5877E+02  0.3894E+03
     -1.885  0.6799E+02  0.3962E+03
     -1.786  0.1125E+03  0.4073E+03
     -1.687  0.1419E+03  0.4213E+03
     -1.589  0.2938E+02  0.4242E+03
     -1.490  0.7811E+02  0.4319E+03
     -1.391  0.5775E+02  0.4376E+03
     -1.292  0.1783E+03  0.4552E+03
     -1.194  0.9392E+02  0.4645E+03
     -1.095  0.1131E+03  0.4756E+03
     -0.996  0.6704E+02  0.4823E+03
     -0.897  0.7319E+02  0.4895E+03
     -0.799  0.1473E+03  0.5040E+03
     -0.700  0.7312E+02  0.5113E+03
     -0.601  0.5155E+02  0.5163E+03
     -0.502  0.4946E+02  0.5212E+03
     -0.404  0.1740E+03  0.5384E+03
     -0.305  0.1362E+03  0.5519E+03
     -0.206  0.1287E+03  0.5646E+03
     -0.107  0.7481E+02  0.5720E+03
     -0.009  0.3626E+02  0.5755E+03
      0.090  0.8715E+02  0.5841E+03
      0.189  0.8058E+02  0.5921E+03
      0.287  0.1010E+03  0.6021E+03
      0.386  0.7793E+02  0.6098E+03
      0.485  0.9790E+02  0.6194E+03
      0.584  0.1295E+03  0.6322E+03
      0.682  0.6242E+02  0.6384E+03
      0.781  0.3709E+02  0.6420E+03
      0.880  0.5936E+02  0.6479E+03
      0.979  0.1521E+03  0.6629E+03
      1.077  0.2306E+03  0.6857E+03
      1.176  0.1094E+03  0.6965E+03
      1.275  0.7891E+02  0.7043E+03
      1.374  0.6104E+02  0.7103E+03
      1.472  0.8585E+02  0.7188E+03
      1.571  0.1237E+03  0.7310E+03
      1.670  0.1735E+03  0.7481E+03
      1.769  0.1492E+03  0.7629E+03
      1.867  0.4409E+02  0.7672E+03
      1.966  0.7725E+02  0.7748E+03
      2.065  0.1777E+03  0.7924E+03
      2.164  0.7140E+02  0.7994E+03
      2.262  0.8223E+02  0.8076E+03
      2.361  0.4957E+02  0.8125E+03
      2.460  0.1129E+03  0.8236E+03
      2.558  0.8320E+02  0.8318E+03
      2.657  0.1419E+03  0.8458E+03
      2.756  0.7820E+02  0.8535E+03
      2.855  0.7678E+02  0.8611E+03
      2.953  0.2290E+03  0.8837E+03
      3.052  0.2500E+03  0.9084E+03
      3.151  0.6865E+02  0.9152E+03
      3.250  0.7162E+02  0.9223E+03
      3.348  0.1122E+03  0.9334E+03
      3.447  0.1484E+03  0.9480E+03
      3.546  0.1215E+03  0.9600E+03
      3.645  0.6840E+02  0.9668E+03
      3.743  0.1145E+03  0.9781E+03
      3.842  0.7282E+02  0.9853E+03
      3.941  0.1202E+03  0.9971E+03
      4.040  0.1800E+03  0.1015E+04
      4.138  0.1319E+03  0.1028E+04
      4.237  0.4075E+02  0.1032E+04
      4.336  0.6029E+00  0.1032E+04
      4.435  0.2877E-04  0.1032E+04
      4.533  0.9484E-12  0.1032E+04
      4.632  0.0000E+00  0.1032E+04
      4.731  0.0000E+00  0.1032E+04
      4.829  0.0000E+00  0.1032E+04
      4.928  0.0000E+00  0.1032E+04
      5.027  0.0000E+00  0.1032E+04
      5.126  0.0000E+00  0.1032E+04
      5.224  0.0000E+00  0.1032E+04
      5.323  0.0000E+00  0.1032E+04
      5.422  0.0000E+00  0.1032E+04
      5.521  0.0000E+00  0.1032E+04
