       N       E                     dE             d eps       ncg     rms          rms(c)
DAV:   1     0.213978032040E+04    0.21398E+04   -0.18399E+05  3120   0.734E+02
DAV:   2    -0.743613604569E+03   -0.28834E+04   -0.27169E+04  4212   0.193E+02
DAV:   3    -0.955520673473E+03   -0.21191E+03   -0.20376E+03  4416   0.408E+01
DAV:   4    -0.963557559205E+03   -0.80369E+01   -0.78715E+01  4356   0.827E+00
DAV:   5    -0.963988534145E+03   -0.43097E+00   -0.42961E+00  4944   0.206E+00    0.196E+01
DAV:   6    -0.978722730570E+03   -0.14734E+02   -0.18974E+02  4344   0.162E+01    0.190E+01
DAV:   7    -0.938415474208E+03    0.40307E+02   -0.13340E+02  3996   0.153E+01    0.102E+01
DAV:   8    -0.938017736889E+03    0.39774E+00   -0.47904E+01  3840   0.565E+00    0.476E+00
DAV:   9    -0.935959523306E+03    0.20582E+01   -0.52640E+00  3660   0.246E+00    0.128E+00
DAV:  10    -0.936502548783E+03   -0.54303E+00   -0.80495E-01  4548   0.217E+00    0.199E+00
DAV:  11    -0.935803726452E+03    0.69882E+00   -0.51023E-01  4368   0.184E+00    0.621E-01
DAV:  12    -0.935774682711E+03    0.29044E-01   -0.21556E-01  3612   0.532E-01    0.434E-01
DAV:  13    -0.935749473241E+03    0.25209E-01   -0.62739E-02  4020   0.266E-01    0.210E-01
DAV:  14    -0.935744951378E+03    0.45219E-02   -0.27368E-02  3768   0.169E-01    0.152E-01
DAV:  15    -0.935749164762E+03   -0.42134E-02   -0.71949E-03  3996   0.102E-01    0.120E-01
DAV:  16    -0.935757063977E+03   -0.78992E-02   -0.46732E-03  3768   0.744E-02    0.707E-02
DAV:  17    -0.935764268505E+03   -0.72045E-02   -0.21992E-03  4068   0.475E-02    0.414E-02
DAV:  18    -0.935766027838E+03   -0.17593E-02   -0.73363E-04  4032   0.285E-02    0.217E-02
DAV:  19    -0.935767846454E+03   -0.18186E-02   -0.46428E-04  3816   0.184E-02    0.160E-02
DAV:  20    -0.935768493688E+03   -0.64723E-03   -0.20022E-04  3696   0.121E-02    0.105E-02
DAV:  21    -0.935769615232E+03   -0.11215E-02   -0.12507E-04  3636   0.944E-03    0.773E-03
DAV:  22    -0.935770463444E+03   -0.84821E-03   -0.43856E-05  3300   0.585E-03    0.581E-03
DAV:  23    -0.935771270774E+03   -0.80733E-03   -0.54225E-05  3096   0.496E-03    0.285E-03
DAV:  24    -0.935771716452E+03   -0.44568E-03   -0.29905E-05  3156   0.311E-03    0.148E-03
DAV:  25    -0.935771882540E+03   -0.16609E-03   -0.10170E-05  2700   0.185E-03    0.824E-04
DAV:  26    -0.935771923998E+03   -0.41458E-04   -0.25353E-06  2508   0.109E-03    0.528E-04
DAV:  27    -0.935771931127E+03   -0.71297E-05   -0.49443E-07  2280   0.758E-04    0.488E-04
DAV:  28    -0.935771932197E+03   -0.10692E-05   -0.20225E-07  2004   0.577E-04
   1 F= -.93577193E+03 E0= -.93574410E+03  d E =-.556662E-01
