 vasp.5.4.4.18Apr17-6-g9f103f2a35 (build May 02 2017 15:33:50) complex          
  
 executed on Intel-16.0.3.210-OMP date 2018.08.08  22:05:10
 running on    6 total cores
 distrk:  each k-point on    6 cores,    1 groups
 distr:  one band on NCORES_PER_BAND=   1 cores,    6 groups


--------------------------------------------------------------------------------------------------------


 INCAR:
 POTCAR:    PAW Al_GW 19Mar2012                   
 POTCAR:    PAW_PBE N 08Apr2002                   

 ----------------------------------------------------------------------------- 
|                                                                             |
|           W    W    AA    RRRRR   N    N  II  N    N   GGGG   !!!           |
|           W    W   A  A   R    R  NN   N  II  NN   N  G    G  !!!           |
|           W    W  A    A  R    R  N N  N  II  N N  N  G       !!!           |
|           W WW W  AAAAAA  RRRRR   N  N N  II  N  N N  G  GGG   !            |
|           WW  WW  A    A  R   R   N   NN  II  N   NN  G    G                |
|           W    W  A    A  R    R  N    N  II  N    N   GGGG   !!!           |
|                                                                             |
|      For optimal performance we recommend to set                            |
|        NCORE= 4 - approx SQRT( number of cores)                             |
|      NCORE specifies how many cores store one orbital (NPAR=cpu/NCORE).     |
|      This setting can  greatly improve the performance of VASP for DFT.     |
|      The default,   NCORE=1            might be grossly inefficient         |
|      on modern multi-core architectures or massively parallel machines.     |
|      Do your own testing !!!!                                               |
|      Unfortunately you need to use the default for GW and RPA calculations. |
|      (for HF NCORE is supported but not extensively tested yet)             |
|                                                                             |
 ----------------------------------------------------------------------------- 

 POTCAR:    PAW Al_GW 19Mar2012                   
   VRHFIN =Al: s2p1                                                             
   LEXCH  = PE                                                                  
   EATOM  =    53.5387 eV,    3.9350 Ry                                         
                                                                                
   TITEL  = PAW Al_GW 19Mar2012                                                 
   LULTRA =        F    use ultrasoft PP ?                                      
   IUNSCR =        1    unscreen: 0-lin 1-nonlin 2-no                           
   RPACOR =    1.500    partial core radius                                     
   POMASS =   26.982; ZVAL   =    3.000    mass and valenz                      
   RCORE  =    2.000    outmost cutoff radius                                   
   RWIGS  =    2.000; RWIGS  =    1.058    wigner-seitz radius (au A)           
   ENMAX  =  240.300; ENMIN  =  180.225 eV                                      
   ICORE  =        3    local potential                                         
   LCOR   =        T    correct aug charges                                     
   LPAW   =        T    paw PP                                                  
   EAUG   =  482.059                                                            
   DEXC   =    0.000                                                            
   RMAX   =    2.051    core radius for proj-oper                               
   RAUG   =    1.300    factor for augmentation sphere                          
   RDEP   =    2.096    radius for radial grids                                 
   RDEPT  =    1.856    core radius for aug-charge                              
                                                                                
   Atomic configuration                                                         
    7 entries                                                                   
     n  l   j            E        occ.                                          
     1  0  0.50     -1511.1048   2.0000                                         
     2  0  0.50      -108.1629   2.0000                                         
     2  1  1.50       -69.6402   6.0000                                         
     3  0  0.50        -7.7528   2.0000                                         
     3  1  1.50        -2.7121   1.0000                                         
     3  2  2.50        -2.7212   0.0000                                         
     4  3  2.50        -2.7212   0.0000                                         
   Description                                                                  
     l       E           TYP  RCUT    TYP  RCUT                                 
     0     -7.7528455     23  1.900                                             
     0     68.0291300     23  1.900                                             
     1     -2.7120682     23  1.900                                             
     1     68.0291300     23  1.900                                             
     2     -1.3605826     23  1.900                                             
     2     81.6349560     23  1.900                                             
     3     74.8320430     23  2.000                                             
  local pseudopotential read in
  partial core-charges read in
  partial kinetic energy density read in
  kinetic energy density of atom read in
  atomic valenz-charges read in
  non local Contribution for L=           0  read in
    real space projection operators read in
  non local Contribution for L=           0  read in
    real space projection operators read in
  non local Contribution for L=           1  read in
    real space projection operators read in
  non local Contribution for L=           1  read in
    real space projection operators read in
  non local Contribution for L=           2  read in
    real space projection operators read in
  non local Contribution for L=           2  read in
    real space projection operators read in
    PAW grid and wavefunctions read in
 
   number of l-projection  operators is LMAX  =           6
   number of lm-projection operators is LMMAX =          18
 
 POTCAR:    PAW_PBE N 08Apr2002                   
   VRHFIN =N: s2p3                                                              
   LEXCH  = PE                                                                  
   EATOM  =   264.5486 eV,   19.4438 Ry                                         
                                                                                
   TITEL  = PAW_PBE N 08Apr2002                                                 
   LULTRA =        F    use ultrasoft PP ?                                      
   IUNSCR =        1    unscreen: 0-lin 1-nonlin 2-no                           
   RPACOR =    1.200    partial core radius                                     
   POMASS =   14.001; ZVAL   =    5.000    mass and valenz                      
   RCORE  =    1.500    outmost cutoff radius                                   
   RWIGS  =    1.400; RWIGS  =    0.741    wigner-seitz radius (au A)           
   ENMAX  =  400.000; ENMIN  =  300.000 eV                                      
   ICORE  =        2    local potential                                         
   LCOR   =        T    correct aug charges                                     
   LPAW   =        T    paw PP                                                  
   EAUG   =  627.112                                                            
   DEXC   =    0.000                                                            
   RMAX   =    1.529    core radius for proj-oper                               
   RAUG   =    1.300    factor for augmentation sphere                          
   RDEP   =    1.514    radius for radial grids                                 
   RDEPT  =    1.338    core radius for aug-charge                              
                                                                                
   Atomic configuration                                                         
    4 entries                                                                   
     n  l   j            E        occ.                                          
     1  0  0.50      -384.7179   2.0000                                         
     2  0  0.50       -18.5828   2.0000                                         
     2  1  0.50        -7.0898   3.0000                                         
     3  2  1.50        -6.8029   0.0000                                         
   Description                                                                  
     l       E           TYP  RCUT    TYP  RCUT                                 
     0    -18.5828119     23  1.200                                             
     0    -13.5018863     23  1.200                                             
     1     -7.0897853     23  1.500                                             
     1      9.5240782     23  1.500                                             
     2     -6.8029130      7  1.500                                             
  local pseudopotential read in
  partial core-charges read in
  partial kinetic energy density read in
  atomic valenz-charges read in
  non local Contribution for L=           0  read in
    real space projection operators read in
  non local Contribution for L=           0  read in
    real space projection operators read in
  non local Contribution for L=           1  read in
    real space projection operators read in
  non local Contribution for L=           1  read in
    real space projection operators read in
    PAW grid and wavefunctions read in
 
   number of l-projection  operators is LMAX  =           4
   number of lm-projection operators is LMMAX =           8
 
 Optimization of the real space projectors (new method)

 maximal supplied QI-value         = 18.90
 optimisation between [QCUT,QGAM] = [  8.69, 17.57] = [ 21.16, 86.49] Ry 
 Optimized for a Real-space Cutoff    1.59 Angstroem

   l    n(q)    QCUT    max X(q) W(low)/X(q) W(high)/X(q)  e(spline) 
   0      8     8.693    11.519    0.12E-03    0.31E-04    0.21E-06
   0      8     8.693     5.834    0.89E-04    0.32E-04    0.16E-06
   1      8     8.693    10.132    0.25E-03    0.39E-03    0.25E-06
   1      8     8.693     3.004    0.16E-03    0.27E-03    0.22E-06
   2      7     8.693     3.169    0.39E-03    0.93E-03    0.44E-06
   2      7     8.693     1.605    0.70E-04    0.91E-04    0.19E-06
 Optimization of the real space projectors (new method)

 maximal supplied QI-value         = 25.13
 optimisation between [QCUT,QGAM] = [  8.80, 17.59] = [ 21.67, 86.68] Ry 
 Optimized for a Real-space Cutoff    2.14 Angstroem

   l    n(q)    QCUT    max X(q) W(low)/X(q) W(high)/X(q)  e(spline) 
   0     11     8.797    79.467    0.70E-04    0.19E-04    0.19E-05
   0     11     8.797    66.151    0.68E-04    0.18E-04    0.19E-05
   1     11     8.797     6.738    0.26E-03    0.11E-02    0.73E-05
   1     11     8.797     5.013    0.25E-03    0.11E-02    0.72E-05
  PAW Al_GW 19Mar2012                   :
 energy of atom  1       EATOM=  -53.5387
 kinetic energy error for atom=    0.0011 (will be added to EATOM!!)
  PAW_PBE N 08Apr2002                   :
 energy of atom  2       EATOM= -264.5486
 kinetic energy error for atom=    0.6882 (will be added to EATOM!!)
 
 
 POSCAR: New structure                           
  positions in cartesian coordinates
  No initial velocities read in
 exchange correlation table for  LEXCH =        8
   RHO(1)=    0.500       N(1)  =     2000
   RHO(2)=  100.500       N(2)  =     4000
 


--------------------------------------------------------------------------------------------------------


 ion  position               nearest neighbor table
   1  0.444  0.444  0.079-
   2  0.444  0.778  0.079-
   3  0.444  0.111  0.079-
   4  0.778  0.444  0.079-
   5  0.778  0.778  0.079-
   6  0.778  0.111  0.079-
   7  0.111  0.444  0.079-
   8  0.111  0.778  0.079-
   9  0.111  0.111  0.079-
  10  0.556  0.556  0.157-
  11  0.556  0.889  0.157-
  12  0.556  0.222  0.157-
  13  0.889  0.556  0.157-
  14  0.889  0.889  0.157-
  15  0.889  0.222  0.157-
  16  0.222  0.556  0.157-
  17  0.222  0.889  0.157-
  18  0.222  0.222  0.157-
  19  0.667  0.667  0.234-
  20  0.667  0.000  0.234-
  21  0.667  0.333  0.234-
  22  0.000  0.667  0.234-
  23  0.000  0.000  0.234-
  24  0.000  0.333  0.234-
  25  0.333  0.667  0.234-
  26  0.333  0.000  0.234-
  27  0.333  0.333  0.234-
  28  0.778  0.778  0.312-
  29  0.778  0.111  0.312-
  30  0.778  0.444  0.312-
  31  0.111  0.778  0.312-
  32  0.111  0.111  0.312-
  33  0.111  0.444  0.312-
  34  0.444  0.778  0.312-
  35  0.444  0.111  0.312-
  36  0.444  0.444  0.312-
  37  0.889  0.889  0.390-
  38  0.889  0.222  0.390-
  39  0.889  0.556  0.390-
  40  0.222  0.889  0.390-
  41  0.222  0.222  0.390-
  42  0.222  0.556  0.390-
  43  0.556  0.889  0.390-
  44  0.556  0.222  0.390-
  45  0.556  0.556  0.390-
  46  0.000  0.000  0.466-
  47  0.000  0.333  0.466-
  48  0.000  0.667  0.466-
  49  0.333  0.000  0.466-
  50  0.333  0.333  0.466-
  51  0.333  0.667  0.466-
  52  0.667  0.000  0.466-
  53  0.667  0.333  0.466-
  54  0.667  0.667  0.466-
  55  0.111  0.111  0.545-
  56  0.111  0.444  0.545-
  57  0.111  0.778  0.545-
  58  0.444  0.111  0.545-
  59  0.444  0.444  0.545-
  60  0.444  0.778  0.545-
  61  0.778  0.111  0.545-
  62  0.778  0.444  0.545-
  63  0.778  0.778  0.545-
  64  0.278  0.278  0.079-
  65  0.278  0.611  0.079-
  66  0.278  0.944  0.079-
  67  0.611  0.278  0.079-
  68  0.611  0.611  0.079-
  69  0.611  0.944  0.079-
  70  0.944  0.278  0.079-
  71  0.944  0.611  0.079-
  72  0.944  0.944  0.079-
  73  0.389  0.389  0.157-
  74  0.389  0.722  0.157-
  75  0.389  0.056  0.157-
  76  0.722  0.389  0.157-
  77  0.722  0.722  0.157-
  78  0.722  0.056  0.157-
  79  0.056  0.389  0.157-
  80  0.056  0.722  0.157-
  81  0.056  0.056  0.157-
  82  0.500  0.500  0.234-
  83  0.500  0.833  0.234-
  84  0.500  0.167  0.234-
  85  0.833  0.500  0.234-
  86  0.833  0.833  0.234-
  87  0.833  0.167  0.234-
  88  0.167  0.500  0.234-
  89  0.167  0.833  0.234-
  90  0.167  0.167  0.234-
  91  0.611  0.611  0.312-
  92  0.611  0.944  0.312-
  93  0.611  0.278  0.312-
  94  0.944  0.611  0.312-
  95  0.944  0.944  0.312-
  96  0.944  0.278  0.312-
  97  0.278  0.611  0.312-
  98  0.278  0.944  0.312-
  99  0.278  0.278  0.312-
 100  0.722  0.722  0.390-
 101  0.722  0.056  0.390-
 102  0.722  0.389  0.390-
 103  0.056  0.722  0.390-
 104  0.056  0.056  0.390-
 105  0.056  0.389  0.390-
 106  0.389  0.722  0.390-
 107  0.389  0.056  0.390-
 108  0.389  0.389  0.390-
 109  0.833  0.833  0.466-
 110  0.833  0.167  0.466-
 111  0.833  0.500  0.466-
 112  0.167  0.833  0.466-
 113  0.167  0.167  0.466-
 114  0.167  0.500  0.466-
 115  0.500  0.833  0.466-
 116  0.500  0.167  0.466-
 117  0.500  0.500  0.466-
 118  0.944  0.944  0.545-
 119  0.944  0.278  0.545-
 120  0.944  0.611  0.545-
 121  0.278  0.944  0.545-
 122  0.278  0.278  0.545-
 123  0.278  0.611  0.545-
 124  0.611  0.944  0.545-
 125  0.611  0.278  0.545-
 126  0.611  0.611  0.545-
 127  0.278  0.444  0.079-
 128  0.278  0.778  0.079-
 129  0.278  0.111  0.079-
 130  0.611  0.444  0.079-
 131  0.611  0.778  0.079-
 132  0.611  0.111  0.079-
 133  0.944  0.444  0.079-
 134  0.944  0.778  0.079-
 135  0.944  0.111  0.079-
 136  0.389  0.556  0.157-
 137  0.389  0.889  0.157-
 138  0.389  0.222  0.157-
 139  0.722  0.556  0.157-
 140  0.722  0.889  0.157-
 141  0.722  0.222  0.157-
 142  0.056  0.556  0.157-
 143  0.056  0.889  0.157-
 144  0.056  0.222  0.157-
 145  0.500  0.667  0.234-
 146  0.500  0.000  0.234-
 147  0.500  0.333  0.234-
 148  0.833  0.667  0.234-
 149  0.833  0.000  0.234-
 150  0.833  0.333  0.234-
 151  0.167  0.667  0.234-
 152  0.167  0.000  0.234-
 153  0.167  0.333  0.234-
 154  0.611  0.778  0.312-
 155  0.611  0.111  0.312-
 156  0.611  0.444  0.312-
 157  0.944  0.778  0.312-
 158  0.944  0.111  0.312-
 159  0.944  0.444  0.312-
 160  0.278  0.778  0.312-
 161  0.278  0.111  0.312-
 162  0.278  0.444  0.312-
 163  0.722  0.889  0.390-
 164  0.722  0.222  0.390-
 165  0.722  0.556  0.390-
 166  0.056  0.889  0.390-
 167  0.056  0.222  0.390-
 168  0.056  0.556  0.390-
 169  0.389  0.889  0.390-
 170  0.389  0.222  0.390-
 171  0.389  0.556  0.390-
 172  0.833  0.000  0.466-
 173  0.833  0.333  0.466-
 174  0.833  0.667  0.466-
 175  0.167  0.000  0.466-
 176  0.167  0.333  0.466-
 177  0.167  0.667  0.466-
 178  0.500  0.000  0.466-
 179  0.500  0.333  0.466-
 180  0.500  0.667  0.466-
 181  0.944  0.111  0.545-
 182  0.944  0.444  0.545-
 183  0.944  0.778  0.545-
 184  0.278  0.111  0.545-
 185  0.278  0.444  0.545-
 186  0.278  0.778  0.545-
 187  0.611  0.111  0.545-
 188  0.611  0.444  0.545-
 189  0.611  0.778  0.545-
 190  0.444  0.278  0.079-
 191  0.444  0.611  0.079-
 192  0.444  0.944  0.079-
 193  0.778  0.278  0.079-
 194  0.778  0.611  0.079-
 195  0.778  0.944  0.079-
 196  0.111  0.278  0.079-
 197  0.111  0.611  0.079-
 198  0.111  0.944  0.079-
 199  0.556  0.389  0.157-
 200  0.556  0.722  0.157-
 201  0.556  0.056  0.157-
 202  0.889  0.389  0.157-
 203  0.889  0.722  0.157-
 204  0.889  0.056  0.157-
 205  0.222  0.389  0.157-
 206  0.222  0.722  0.157-
 207  0.222  0.056  0.157-
 208  0.667  0.500  0.234-
 209  0.667  0.833  0.234-
 210  0.667  0.167  0.234-
 211  1.000  0.500  0.234-
 212  1.000  0.833  0.234-
 213  1.000  0.167  0.234-
 214  0.333  0.500  0.234-
 215  0.333  0.833  0.234-
 216  0.333  0.167  0.234-
 217  0.778  0.611  0.312-
 218  0.778  0.944  0.312-
 219  0.778  0.278  0.312-
 220  0.111  0.611  0.312-
 221  0.111  0.944  0.312-
 222  0.111  0.278  0.312-
 223  0.444  0.611  0.312-
 224  0.444  0.944  0.312-
 225  0.444  0.278  0.312-
 226  0.889  0.722  0.390-
 227  0.889  0.056  0.390-
 228  0.889  0.389  0.390-
 229  0.222  0.722  0.390-
 230  0.222  0.056  0.390-
 231  0.222  0.389  0.390-
 232  0.556  0.722  0.390-
 233  0.556  0.056  0.390-
 234  0.556  0.389  0.390-
 235  1.000  0.833  0.466-
 236  1.000  0.167  0.466-
 237  1.000  0.500  0.466-
 238  0.333  0.833  0.466-
 239  0.333  0.167  0.466-
 240  0.333  0.500  0.466-
 241  0.667  0.833  0.466-
 242  0.667  0.167  0.466-
 243  0.667  0.500  0.466-
 244  0.111  0.944  0.545-
 245  0.111  0.278  0.545-
 246  0.111  0.611  0.545-
 247  0.444  0.944  0.545-
 248  0.444  0.278  0.545-
 249  0.444  0.611  0.545-
 250  0.778  0.944  0.545-
 251  0.778  0.278  0.545-
 252  0.778  0.611  0.545-
 253  0.343  0.481  0.701- 254 1.10
 254  0.380  0.407  0.701- 253 1.10
 
  LATTYP: Found a hexagonal cell.
 ALAT       =    17.1805734625
 C/A-ratio  =     1.7461582447
  
  Lattice vectors:
  
 A1 = (   0.0000000000,  -8.5902867312,  14.8788130701)
 A2 = (   0.0000000000,  17.1805734625,   0.0000000000)
 A3 = ( -30.0000000000,   0.0000000000,   0.0000000000)


Analysis of symmetry for initial positions (statically):
=====================================================================
 Subroutine PRICEL returns:
 Original cell was already a primitive cell.
 

 Routine SETGRP: Setting up the symmetry group for a 
 hexagonal supercell.


 Subroutine GETGRP returns: Found  2 space group operations
 (whereof  1 operations were pure point group operations)
 out of a pool of 24 trial point group operations.


The static configuration has the point symmetry C_1 .
 The point group associated with its full space group is C_1h.


Analysis of symmetry for dynamics (positions and initial velocities):
=====================================================================
 Subroutine PRICEL returns:
 Original cell was already a primitive cell.
 

 Routine SETGRP: Setting up the symmetry group for a 
 hexagonal supercell.


 Subroutine GETGRP returns: Found  2 space group operations
 (whereof  1 operations were pure point group operations)
 out of a pool of 24 trial point group operations.


The dynamic configuration has the point symmetry C_1 .
 The point group associated with its full space group is C_1h.


 Subroutine INISYM returns: Found  2 space group operations
 (whereof  1 operations are pure point group operations),
 and found     1 'primitive' translations

 
 
 KPOINTS: Automatic generation                    

Automatic generation of k-mesh.
Space group operators:
 irot       det(A)        alpha          n_x          n_y          n_z        tau_x        tau_y        tau_z
    1     1.000000     0.000000     1.000000     0.000000     0.000000     0.000000     0.000000     0.000000
    2    -1.000000   180.000000     0.000000     1.000000     0.000000    -0.833333     0.000000     0.000000
 
 Subroutine IBZKPT returns following result:
 ===========================================
 
 Found      3 irreducible k-points:
 
 Following reciprocal coordinates:
            Coordinates               Weight
  0.000000  0.000000  0.000000      1.000000
  0.500000  0.000000  0.000000      2.000000
  0.000000  0.500000  0.000000      1.000000
 
 Following cartesian coordinates:
            Coordinates               Weight
  0.000000  0.000000  0.000000      1.000000
  0.000000 -0.029103  0.016802      2.000000
  0.000000  0.000000 -0.033605      1.000000
 


--------------------------------------------------------------------------------------------------------




 Dimension of arrays:
   k-points           NKPTS =      3   k-points in BZ     NKDIM =      3   number of bands    NBANDS=    516
   number of dos      NEDOS =    301   number of ions     NIONS =    254
   non local maximal  LDIM  =      6   non local SUM 2l+1 LMDIM =     18
   total plane-waves  NPLWV = 819200
   max r-space proj   IRMAX =   4449   max aug-charges    IRDMAX=   4357
   dimension x,y,z NGX =    80 NGY =   80 NGZ =  128
   dimension x,y,z NGXF=   160 NGYF=  160 NGZF=  256
   support grid    NGXF=   160 NGYF=  160 NGZF=  256
   ions per type =             252   2
   NGX,Y,Z   is equivalent  to a cutoff of   7.74,  7.74,  7.09 a.u.
   NGXF,Y,Z  is equivalent  to a cutoff of  15.48, 15.48, 14.19 a.u.

 SYSTEM =  NiAl                                    
 POSCAR =  New structure                           

 Startparameter for this run:
   NWRITE =      2    write-flag & timer
   PREC   = normal    normal or accurate (medium, high low for compatibility)
   ISTART =      0    job   : 0-new  1-cont  2-samecut
   ICHARG =      2    charge: 1-file 2-atom 10-const
   ISPIN  =      1    spin polarized calculation?
   LNONCOLLINEAR =      F non collinear calculations
   LSORBIT =      F    spin-orbit coupling
   INIWAV =      1    electr: 0-lowe 1-rand  2-diag
   LASPH  =      F    aspherical Exc in radial PAW
   METAGGA=      F    non-selfconsistent MetaGGA calc.

 Electronic Relaxation 1
   ENCUT  =  300.0 eV  22.05 Ry    4.70 a.u.  24.26 24.26 42.37*2*pi/ulx,y,z
   ENINI  =  300.0     initial cutoff
   ENAUG  =  627.1 eV  augmentation charge cutoff
   NELM   =     60;   NELMIN=  6; NELMDL= -5     # of ELM steps 
   EDIFF  = 0.5E-05   stopping-criterion for ELM
   LREAL  =      T    real-space projection
   NLSPLINE    = F    spline interpolate recip. space projectors
   LCOMPAT=      F    compatible to vasp.4.4
   GGA_COMPAT  = T    GGA compatible to vasp.4.4-vasp.4.6
   LMAXPAW     = -100 max onsite density
   LMAXMIX     =    2 max onsite mixed and CHGCAR
   VOSKOWN=      0    Vosko Wilk Nusair interpolation
   ROPT   =   -0.00050  -0.00050
 Ionic relaxation
   EDIFFG = 0.5E-04   stopping-criterion for IOM
   NSW    =      0    number of steps for IOM
   NBLOCK =      1;   KBLOCK =      1    inner block; outer block 
   IBRION =     -1    ionic relax: 0-MD 1-quasi-New 2-CG
   NFREE  =      0    steps in history (QN), initial steepest desc. (CG)
   ISIF   =      0    stress and relaxation
   IWAVPR =     10    prediction:  0-non 1-charg 2-wave 3-comb
   ISYM   =      2    0-nonsym 1-usesym 2-fastsym
   LCORR  =      T    Harris-Foulkes like correction to forces

   POTIM  = 0.5000    time-step for ionic-motion
   TEIN   =    0.0    initial temperature
   TEBEG  =    0.0;   TEEND  =   0.0 temperature during run
   SMASS  =  -3.00    Nose mass-parameter (am)
   estimated Nose-frequenzy (Omega)   =  0.10E-29 period in steps =****** mass=  -0.675E-26a.u.
   SCALEE = 1.0000    scale energy and forces
   NPACO  =    256;   APACO  = 16.0  distance and # of slots for P.C.
   PSTRESS=    0.0 pullay stress

  Mass of Ions in am
   POMASS =  26.98 14.00
  Ionic Valenz
   ZVAL   =   3.00  5.00
  Atomic Wigner-Seitz radii
   RWIGS  =  -1.00 -1.00
  virtual crystal weights 
   VCA    =   1.00  1.00
   NELECT =     766.0000    total number of electrons
   NUPDOWN=      -1.0000    fix difference up-down

 DOS related values:
   EMIN   =  10.00;   EMAX   =-10.00  energy-range for DOS
   EFERMI =   0.00
   ISMEAR =     0;   SIGMA  =   0.05  broadening in eV -4-tet -1-fermi 0-gaus

 Electronic relaxation 2 (details)
   IALGO  =     38    algorithm
   LDIAG  =      T    sub-space diagonalisation (order eigenvalues)
   LSUBROT=      F    optimize rotation matrix (better conditioning)
   TURBO    =      0    0=normal 1=particle mesh
   IRESTART =      0    0=no restart 2=restart with 2 vectors
   NREBOOT  =      0    no. of reboots
   NMIN     =      0    reboot dimension
   EREF     =   0.00    reference energy to select bands
   IMIX   =      4    mixing-type and parameters
     AMIX     =   0.40;   BMIX     =  1.00
     AMIX_MAG =   1.60;   BMIX_MAG =  1.00
     AMIN     =   0.10
     WC   =   100.;   INIMIX=   1;  MIXPRE=   1;  MAXMIX= -45

 Intra band minimization:
   WEIMIN = 0.0000     energy-eigenvalue tresh-hold
   EBREAK =  0.24E-08  absolut break condition
   DEPER  =   0.30     relativ break condition  

   TIME   =   0.40     timestep for ELM

  volume/ion in A,a.u.               =      30.19       203.75
  Fermi-wavevector in a.u.,A,eV,Ry     =   0.759583  1.435404  7.850108  0.576967
  Thomas-Fermi vector in A             =   1.858410
 
 Write flags
   LWAVE        =      F    write WAVECAR
   LDOWNSAMPLE  =      F    k-point downsampling of WAVECAR
   LCHARG       =      F    write CHGCAR
   LVTOT        =      F    write LOCPOT, total local potential
   LVHAR        =      F    write LOCPOT, Hartree potential only
   LELF         =      F    write electronic localiz. function (ELF)
   LORBIT       =      0    0 simple, 1 ext, 2 COOP (PROOUT), +10 PAW based schemes


 Dipole corrections
   LMONO  =      F    monopole corrections only (constant potential shift)
   LDIPOL =      F    correct potential (dipole corrections)
   IDIPOL =      0    1-x, 2-y, 3-z, 4-all directions 
   EPSILON=  1.0000000 bulk dielectric constant

 Exchange correlation treatment:
   GGA     =    --    GGA type
   LEXCH   =     8    internal setting for exchange type
   VOSKOWN=      0    Vosko Wilk Nusair interpolation
   LHFCALC =     F    Hartree Fock is set to
   LHFONE  =     F    Hartree Fock one center treatment
   AEXX    =    0.0000 exact exchange contribution

 Linear response parameters
   LEPSILON=     F    determine dielectric tensor
   LRPA    =     F    only Hartree local field effects (RPA)
   LNABLA  =     F    use nabla operator in PAW spheres
   LVEL    =     F    velocity operator in full k-point grid
   LINTERFAST=   F  fast interpolation
   KINTER  =     0    interpolate to denser k-point grid
   CSHIFT  =0.1000    complex shift for real part using Kramers Kronig
   OMEGAMAX=  -1.0    maximum frequency
   DEG_THRESHOLD= 0.2000000E-02 threshold for treating states as degnerate
   RTIME   =   -0.100 relaxation time in fs
  (WPLASMAI=    0.000 imaginary part of plasma frequency in eV, 0.658/RTIME)
   DFIELD  = 0.0000000 0.0000000 0.0000000 field for delta impulse in time
 
 Orbital magnetization related:
   ORBITALMAG=     F  switch on orbital magnetization
   LCHIMAG   =     F  perturbation theory with respect to B field
   DQ        =  0.001000  dq finite difference perturbation B field
   LLRAUG    =     F  two centre corrections for induced B field



--------------------------------------------------------------------------------------------------------


 Static calculation
 charge density and potential will be updated during run
 non-spin polarized calculation
 Variant of blocked Davidson
 Davidson routine will perform the subspace rotation
 perform sub-space diagonalisation
    after iterative eigenvector-optimisation
 modified Broyden-mixing scheme, WC =      100.0
 initial mixing is a Kerker type mixing with AMIX =  0.4000 and BMIX =      1.0000
 Hartree-type preconditioning will be used
 using additional bands          133
 real space projection scheme for non local part
 use partial core corrections
 calculate Harris-corrections to forces 
   (improved forces if not selfconsistent)
 use gradient corrections 
 use of overlap-Matrix (Vanderbilt PP)
 Gauss-broadening in eV      SIGMA  =   0.05


--------------------------------------------------------------------------------------------------------


  energy-cutoff  :      300.00
  volume of cell :     7668.80
      direct lattice vectors                 reciprocal lattice vectors
     0.000000000-17.180573462  0.000000000     0.000000000 -0.058205275  0.033604831
     0.000000000 -8.590286731-14.878813070     0.000000000  0.000000000 -0.067209662
    30.000000000  0.000000000  0.000000000     0.033333333  0.000000000  0.000000000

  length of vectors
    17.180573462 17.180573462 30.000000000     0.067209662  0.067209662  0.033333333


 
 k-points in units of 2pi/SCALE and weight: Automatic generation                    
   0.00000000  0.00000000  0.00000000       0.250
   0.00000000 -0.02910264  0.01680242       0.500
   0.00000000  0.00000000 -0.03360483       0.250
 
 k-points in reciprocal lattice and weights: Automatic generation                    
   0.00000000  0.00000000  0.00000000       0.250
   0.50000000  0.00000000  0.00000000       0.500
   0.00000000  0.50000000  0.00000000       0.250
 
 position of ions in fractional coordinates (direct lattice) 
   0.44444456  0.44444473  0.07873467
   0.44444419  0.77777777  0.07873467
   0.44444468  0.11111101  0.07873467
   0.77777744  0.44444473  0.07873467
   0.77777765  0.77777777  0.07873467
   0.77777756  0.11111101  0.07873467
   0.11111110  0.44444473  0.07873467
   0.11111131  0.77777777  0.07873467
   0.11111122  0.11111101  0.07873467
   0.55555520  0.55555574  0.15702600
   0.55555541  0.88888878  0.15702600
   0.55555591  0.22222203  0.15702600
   0.88888866  0.55555574  0.15702600
   0.88888887  0.88888878  0.15702600
   0.88888878  0.22222203  0.15702600
   0.22222232  0.55555574  0.15702600
   0.22222253  0.88888878  0.15702600
   0.22222245  0.22222203  0.15702600
   0.66666642  0.66666675  0.23375733
   0.66666692  0.00000000  0.23375733
   0.66666655  0.33333304  0.23375733
   0.00000008  0.66666675  0.23375733
   0.00000000  0.00000000  0.23375733
   0.00000021  0.33333304  0.23375733
   0.33333354  0.66666675  0.23375733
   0.33333346  0.00000000  0.23375733
   0.33333367  0.33333304  0.23375733
   0.77777765  0.77777777  0.31173067
   0.77777756  0.11111101  0.31173067
   0.77777744  0.44444473  0.31173067
   0.11111131  0.77777777  0.31173067
   0.11111122  0.11111101  0.31173067
   0.11111110  0.44444473  0.31173067
   0.44444419  0.77777777  0.31173067
   0.44444468  0.11111101  0.31173067
   0.44444456  0.44444473  0.31173067
   0.88888887  0.88888878  0.38970400
   0.88888878  0.22222203  0.38970400
   0.88888866  0.55555574  0.38970400
   0.22222253  0.88888878  0.38970400
   0.22222245  0.22222203  0.38970400
   0.22222232  0.55555574  0.38970400
   0.55555541  0.88888878  0.38970400
   0.55555591  0.22222203  0.38970400
   0.55555520  0.55555574  0.38970400
   0.00000000  0.00000000  0.46643533
   0.00000021  0.33333304  0.46643533
   0.00000008  0.66666675  0.46643533
   0.33333346  0.00000000  0.46643533
   0.33333367  0.33333304  0.46643533
   0.33333354  0.66666675  0.46643533
   0.66666692  0.00000000  0.46643533
   0.66666655  0.33333304  0.46643533
   0.66666642  0.66666675  0.46643533
   0.11111122  0.11111101  0.54472667
   0.11111110  0.44444473  0.54472667
   0.11111131  0.77777777  0.54472667
   0.44444468  0.11111101  0.54472667
   0.44444456  0.44444473  0.54472667
   0.44444419  0.77777777  0.54472667
   0.77777756  0.11111101  0.54472667
   0.77777744  0.44444473  0.54472667
   0.77777765  0.77777777  0.54472667
   0.27777777  0.27777753  0.07873467
   0.27777764  0.61111125  0.07873467
   0.27777785  0.94444429  0.07873467
   0.61111123  0.27777753  0.07873467
   0.61111110  0.61111125  0.07873467
   0.61111131  0.94444429  0.07873467
   0.94444469  0.27777753  0.07873467
   0.94444456  0.61111125  0.07873467
   0.94444477  0.94444429  0.07873467
   0.38888865  0.38888922  0.15702600
   0.38888886  0.72222226  0.15702600
   0.38888878  0.05555551  0.15702600
   0.72222211  0.38888922  0.15702600
   0.72222232  0.72222226  0.15702600
   0.72222224  0.05555551  0.15702600
   0.05555519  0.38888922  0.15702600
   0.05555540  0.72222226  0.15702600
   0.05555532  0.05555551  0.15702600
   0.49999988  0.50000023  0.23375733
   0.50000009  0.83333327  0.23375733
   0.50000000  0.16666652  0.23375733
   0.83333334  0.50000023  0.23375733
   0.83333355  0.83333327  0.23375733
   0.83333346  0.16666652  0.23375733
   0.16666642  0.50000023  0.23375733
   0.16666663  0.83333327  0.23375733
   0.16666654  0.16666652  0.23375733
   0.61111110  0.61111125  0.31173067
   0.61111131  0.94444429  0.31173067
   0.61111123  0.27777753  0.31173067
   0.94444456  0.61111125  0.31173067
   0.94444477  0.94444429  0.31173067
   0.94444469  0.27777753  0.31173067
   0.27777764  0.61111125  0.31173067
   0.27777785  0.94444429  0.31173067
   0.27777777  0.27777753  0.31173067
   0.72222232  0.72222226  0.38970400
   0.72222224  0.05555551  0.38970400
   0.72222211  0.38888922  0.38970400
   0.05555540  0.72222226  0.38970400
   0.05555532  0.05555551  0.38970400
   0.05555519  0.38888922  0.38970400
   0.38888886  0.72222226  0.38970400
   0.38888878  0.05555551  0.38970400
   0.38888865  0.38888922  0.38970400
   0.83333355  0.83333327  0.46643533
   0.83333346  0.16666652  0.46643533
   0.83333334  0.50000023  0.46643533
   0.16666663  0.83333327  0.46643533
   0.16666654  0.16666652  0.46643533
   0.16666642  0.50000023  0.46643533
   0.50000009  0.83333327  0.46643533
   0.50000000  0.16666652  0.46643533
   0.49999988  0.50000023  0.46643533
   0.94444477  0.94444429  0.54472667
   0.94444469  0.27777753  0.54472667
   0.94444456  0.61111125  0.54472667
   0.27777785  0.94444429  0.54472667
   0.27777777  0.27777753  0.54472667
   0.27777764  0.61111125  0.54472667
   0.61111131  0.94444429  0.54472667
   0.61111123  0.27777753  0.54472667
   0.61111110  0.61111125  0.54472667
   0.27777783  0.44444473  0.07873467
   0.27777804  0.77777777  0.07873467
   0.27777795  0.11111101  0.07873467
   0.61111071  0.44444473  0.07873467
   0.61111092  0.77777777  0.07873467
   0.61111141  0.11111101  0.07873467
   0.94444417  0.44444473  0.07873467
   0.94444438  0.77777777  0.07873467
   0.94444429  0.11111101  0.07873467
   0.38888905  0.55555574  0.15702600
   0.38888868  0.88888878  0.15702600
   0.38888918  0.22222203  0.15702600
   0.72222193  0.55555574  0.15702600
   0.72222214  0.88888878  0.15702600
   0.72222205  0.22222203  0.15702600
   0.05555559  0.55555574  0.15702600
   0.05555580  0.88888878  0.15702600
   0.05555572  0.22222203  0.15702600
   0.49999969  0.66666675  0.23375733
   0.50000019  0.00000000  0.23375733
   0.50000040  0.33333304  0.23375733
   0.83333315  0.66666675  0.23375733
   0.83333307  0.00000000  0.23375733
   0.83333328  0.33333304  0.23375733
   0.16666681  0.66666675  0.23375733
   0.16666673  0.00000000  0.23375733
   0.16666694  0.33333304  0.23375733
   0.61111092  0.77777777  0.31173067
   0.61111141  0.11111101  0.31173067
   0.61111071  0.44444473  0.31173067
   0.94444438  0.77777777  0.31173067
   0.94444429  0.11111101  0.31173067
   0.94444417  0.44444473  0.31173067
   0.27777804  0.77777777  0.31173067
   0.27777795  0.11111101  0.31173067
   0.27777783  0.44444473  0.31173067
   0.72222214  0.88888878  0.38970400
   0.72222205  0.22222203  0.38970400
   0.72222193  0.55555574  0.38970400
   0.05555580  0.88888878  0.38970400
   0.05555572  0.22222203  0.38970400
   0.05555559  0.55555574  0.38970400
   0.38888868  0.88888878  0.38970400
   0.38888918  0.22222203  0.38970400
   0.38888905  0.55555574  0.38970400
   0.83333307  0.00000000  0.46643533
   0.83333328  0.33333304  0.46643533
   0.83333315  0.66666675  0.46643533
   0.16666673  0.00000000  0.46643533
   0.16666694  0.33333304  0.46643533
   0.16666681  0.66666675  0.46643533
   0.50000019  0.00000000  0.46643533
   0.50000040  0.33333304  0.46643533
   0.49999969  0.66666675  0.46643533
   0.94444429  0.11111101  0.54472667
   0.94444417  0.44444473  0.54472667
   0.94444438  0.77777777  0.54472667
   0.27777795  0.11111101  0.54472667
   0.27777783  0.44444473  0.54472667
   0.27777804  0.77777777  0.54472667
   0.61111141  0.11111101  0.54472667
   0.61111071  0.44444473  0.54472667
   0.61111092  0.77777777  0.54472667
   0.44444450  0.27777753  0.07873467
   0.44444437  0.61111125  0.07873467
   0.44444458  0.94444429  0.07873467
   0.77777796  0.27777753  0.07873467
   0.77777783  0.61111125  0.07873467
   0.77777804  0.94444429  0.07873467
   0.11111104  0.27777753  0.07873467
   0.11111091  0.61111125  0.07873467
   0.11111112  0.94444429  0.07873467
   0.55555538  0.38888922  0.15702600
   0.55555559  0.72222226  0.15702600
   0.55555551  0.05555551  0.15702600
   0.88888884  0.38888922  0.15702600
   0.88888905  0.72222226  0.15702600
   0.88888897  0.05555551  0.15702600
   0.22222192  0.38888922  0.15702600
   0.22222213  0.72222226  0.15702600
   0.22222205  0.05555551  0.15702600
   0.66666661  0.50000023  0.23375733
   0.66666682  0.83333327  0.23375733
   0.66666673  0.16666652  0.23375733
   0.99999969  0.50000023  0.23375733
   0.99999990  0.83333327  0.23375733
   0.99999981  0.16666652  0.23375733
   0.33333315  0.50000023  0.23375733
   0.33333336  0.83333327  0.23375733
   0.33333327  0.16666652  0.23375733
   0.77777783  0.61111125  0.31173067
   0.77777804  0.94444429  0.31173067
   0.77777796  0.27777753  0.31173067
   0.11111091  0.61111125  0.31173067
   0.11111112  0.94444429  0.31173067
   0.11111104  0.27777753  0.31173067
   0.44444437  0.61111125  0.31173067
   0.44444458  0.94444429  0.31173067
   0.44444450  0.27777753  0.31173067
   0.88888905  0.72222226  0.38970400
   0.88888897  0.05555551  0.38970400
   0.88888884  0.38888922  0.38970400
   0.22222213  0.72222226  0.38970400
   0.22222205  0.05555551  0.38970400
   0.22222192  0.38888922  0.38970400
   0.55555559  0.72222226  0.38970400
   0.55555551  0.05555551  0.38970400
   0.55555538  0.38888922  0.38970400
   0.99999990  0.83333327  0.46643533
   0.99999981  0.16666652  0.46643533
   0.99999969  0.50000023  0.46643533
   0.33333336  0.83333327  0.46643533
   0.33333327  0.16666652  0.46643533
   0.33333315  0.50000023  0.46643533
   0.66666682  0.83333327  0.46643533
   0.66666673  0.16666652  0.46643533
   0.66666661  0.50000023  0.46643533
   0.11111112  0.94444429  0.54472667
   0.11111104  0.27777753  0.54472667
   0.11111091  0.61111125  0.54472667
   0.44444458  0.94444429  0.54472667
   0.44444450  0.27777753  0.54472667
   0.44444437  0.61111125  0.54472667
   0.77777804  0.94444429  0.54472667
   0.77777796  0.27777753  0.54472667
   0.77777783  0.61111125  0.54472667
   0.34272267  0.48122118  0.70133333
   0.37958737  0.40749218  0.70133333
 
 position of ions in cartesian coordinates  (Angst):
   2.36204000-11.45372000 -6.61281000
   2.36204000-14.31714000-11.57241000
   2.36204000 -8.59029000 -1.65320000
   2.36204000-17.18057000 -6.61281000
   2.36204000-20.04400000-11.57241000
   2.36204000-14.31714000 -1.65320000
   2.36204000 -5.72686000 -6.61281000
   2.36204000 -8.59029000-11.57241000
   2.36204000 -2.86343000 -1.65320000
   4.71078000-14.31714000 -8.26601000
   4.71078000-17.18057000-13.22561000
   4.71078000-11.45372000 -3.30640000
   4.71078000-20.04400000 -8.26601000
   4.71078000-22.90743000-13.22561000
   4.71078000-17.18057000 -3.30640000
   4.71078000 -8.59029000 -8.26601000
   4.71078000-11.45372000-13.22561000
   4.71078000 -5.72686000 -3.30640000
   7.01272000-17.18057000 -9.91921000
   7.01272000-11.45372000  0.00000000
   7.01272000-14.31714000 -4.95960000
   7.01272000 -5.72686000 -9.91921000
   7.01272000  0.00000000  0.00000000
   7.01272000 -2.86343000 -4.95960000
   7.01272000-11.45372000 -9.91921000
   7.01272000 -5.72686000  0.00000000
   7.01272000 -8.59029000 -4.95960000
   9.35192000-20.04400000-11.57241000
   9.35192000-14.31714000 -1.65320000
   9.35192000-17.18057000 -6.61281000
   9.35192000 -8.59029000-11.57241000
   9.35192000 -2.86343000 -1.65320000
   9.35192000 -5.72686000 -6.61281000
   9.35192000-14.31714000-11.57241000
   9.35192000 -8.59029000 -1.65320000
   9.35192000-11.45372000 -6.61281000
  11.69112000-22.90743000-13.22561000
  11.69112000-17.18057000 -3.30640000
  11.69112000-20.04400000 -8.26601000
  11.69112000-11.45372000-13.22561000
  11.69112000 -5.72686000 -3.30640000
  11.69112000 -8.59029000 -8.26601000
  11.69112000-17.18057000-13.22561000
  11.69112000-11.45372000 -3.30640000
  11.69112000-14.31714000 -8.26601000
  13.99306000  0.00000000  0.00000000
  13.99306000 -2.86343000 -4.95960000
  13.99306000 -5.72686000 -9.91921000
  13.99306000 -5.72686000  0.00000000
  13.99306000 -8.59029000 -4.95960000
  13.99306000-11.45372000 -9.91921000
  13.99306000-11.45372000  0.00000000
  13.99306000-14.31714000 -4.95960000
  13.99306000-17.18057000 -9.91921000
  16.34180000 -2.86343000 -1.65320000
  16.34180000 -5.72686000 -6.61281000
  16.34180000 -8.59029000-11.57241000
  16.34180000 -8.59029000 -1.65320000
  16.34180000-11.45372000 -6.61281000
  16.34180000-14.31714000-11.57241000
  16.34180000-14.31714000 -1.65320000
  16.34180000-17.18057000 -6.61281000
  16.34180000-20.04400000-11.57241000
   2.36204000 -7.15857000 -4.13300000
   2.36204000-10.02200000 -9.09261000
   2.36204000-12.88543000-14.05221000
   2.36204000-12.88543000 -4.13300000
   2.36204000-15.74886000 -9.09261000
   2.36204000-18.61229000-14.05221000
   2.36204000-18.61229000 -4.13300000
   2.36204000-21.47572000 -9.09261000
   2.36204000-24.33915000-14.05221000
   4.71078000-10.02200000 -5.78621000
   4.71078000-12.88543000-10.74581000
   4.71078000 -7.15857000 -0.82660000
   4.71078000-15.74886000 -5.78621000
   4.71078000-18.61229000-10.74581000
   4.71078000-12.88543000 -0.82660000
   4.71078000 -4.29514000 -5.78621000
   4.71078000 -7.15857000-10.74581000
   4.71078000 -1.43171000 -0.82660000
   7.01272000-12.88543000 -7.43941000
   7.01272000-15.74886000-12.39901000
   7.01272000-10.02200000 -2.47980000
   7.01272000-18.61229000 -7.43941000
   7.01272000-21.47572000-12.39901000
   7.01272000-15.74886000 -2.47980000
   7.01272000 -7.15857000 -7.43941000
   7.01272000-10.02200000-12.39901000
   7.01272000 -4.29514000 -2.47980000
   9.35192000-15.74886000 -9.09261000
   9.35192000-18.61229000-14.05221000
   9.35192000-12.88543000 -4.13300000
   9.35192000-21.47572000 -9.09261000
   9.35192000-24.33915000-14.05221000
   9.35192000-18.61229000 -4.13300000
   9.35192000-10.02200000 -9.09261000
   9.35192000-12.88543000-14.05221000
   9.35192000 -7.15857000 -4.13300000
  11.69112000-18.61229000-10.74581000
  11.69112000-12.88543000 -0.82660000
  11.69112000-15.74886000 -5.78621000
  11.69112000 -7.15857000-10.74581000
  11.69112000 -1.43171000 -0.82660000
  11.69112000 -4.29514000 -5.78621000
  11.69112000-12.88543000-10.74581000
  11.69112000 -7.15857000 -0.82660000
  11.69112000-10.02200000 -5.78621000
  13.99306000-21.47572000-12.39901000
  13.99306000-15.74886000 -2.47980000
  13.99306000-18.61229000 -7.43941000
  13.99306000-10.02200000-12.39901000
  13.99306000 -4.29514000 -2.47980000
  13.99306000 -7.15857000 -7.43941000
  13.99306000-15.74886000-12.39901000
  13.99306000-10.02200000 -2.47980000
  13.99306000-12.88543000 -7.43941000
  16.34180000-24.33915000-14.05221000
  16.34180000-18.61229000 -4.13300000
  16.34180000-21.47572000 -9.09261000
  16.34180000-12.88543000-14.05221000
  16.34180000 -7.15857000 -4.13300000
  16.34180000-10.02200000 -9.09261000
  16.34180000-18.61229000-14.05221000
  16.34180000-12.88543000 -4.13300000
  16.34180000-15.74886000 -9.09261000
   2.36204000 -8.59029000 -6.61281000
   2.36204000-11.45372000-11.57241000
   2.36204000 -5.72686000 -1.65320000
   2.36204000-14.31714000 -6.61281000
   2.36204000-17.18057000-11.57241000
   2.36204000-11.45372000 -1.65320000
   2.36204000-20.04400000 -6.61281000
   2.36204000-22.90743000-11.57241000
   2.36204000-17.18057000 -1.65320000
   4.71078000-11.45372000 -8.26601000
   4.71078000-14.31714000-13.22561000
   4.71078000 -8.59029000 -3.30640000
   4.71078000-17.18057000 -8.26601000
   4.71078000-20.04400000-13.22561000
   4.71078000-14.31714000 -3.30640000
   4.71078000 -5.72686000 -8.26601000
   4.71078000 -8.59029000-13.22561000
   4.71078000 -2.86343000 -3.30640000
   7.01272000-14.31714000 -9.91921000
   7.01272000 -8.59029000  0.00000000
   7.01272000-11.45372000 -4.95960000
   7.01272000-20.04400000 -9.91921000
   7.01272000-14.31714000  0.00000000
   7.01272000-17.18057000 -4.95960000
   7.01272000 -8.59029000 -9.91921000
   7.01272000 -2.86343000  0.00000000
   7.01272000 -5.72686000 -4.95960000
   9.35192000-17.18057000-11.57241000
   9.35192000-11.45372000 -1.65320000
   9.35192000-14.31714000 -6.61281000
   9.35192000-22.90743000-11.57241000
   9.35192000-17.18057000 -1.65320000
   9.35192000-20.04400000 -6.61281000
   9.35192000-11.45372000-11.57241000
   9.35192000 -5.72686000 -1.65320000
   9.35192000 -8.59029000 -6.61281000
  11.69112000-20.04400000-13.22561000
  11.69112000-14.31714000 -3.30640000
  11.69112000-17.18057000 -8.26601000
  11.69112000 -8.59029000-13.22561000
  11.69112000 -2.86343000 -3.30640000
  11.69112000 -5.72686000 -8.26601000
  11.69112000-14.31714000-13.22561000
  11.69112000 -8.59029000 -3.30640000
  11.69112000-11.45372000 -8.26601000
  13.99306000-14.31714000  0.00000000
  13.99306000-17.18057000 -4.95960000
  13.99306000-20.04400000 -9.91921000
  13.99306000 -2.86343000  0.00000000
  13.99306000 -5.72686000 -4.95960000
  13.99306000 -8.59029000 -9.91921000
  13.99306000 -8.59029000  0.00000000
  13.99306000-11.45372000 -4.95960000
  13.99306000-14.31714000 -9.91921000
  16.34180000-17.18057000 -1.65320000
  16.34180000-20.04400000 -6.61281000
  16.34180000-22.90743000-11.57241000
  16.34180000 -5.72686000 -1.65320000
  16.34180000 -8.59029000 -6.61281000
  16.34180000-11.45372000-11.57241000
  16.34180000-11.45372000 -1.65320000
  16.34180000-14.31714000 -6.61281000
  16.34180000-17.18057000-11.57241000
   2.36204000-10.02200000 -4.13300000
   2.36204000-12.88543000 -9.09261000
   2.36204000-15.74886000-14.05221000
   2.36204000-15.74886000 -4.13300000
   2.36204000-18.61229000 -9.09261000
   2.36204000-21.47572000-14.05221000
   2.36204000 -4.29514000 -4.13300000
   2.36204000 -7.15857000 -9.09261000
   2.36204000-10.02200000-14.05221000
   4.71078000-12.88543000 -5.78621000
   4.71078000-15.74886000-10.74581000
   4.71078000-10.02200000 -0.82660000
   4.71078000-18.61229000 -5.78621000
   4.71078000-21.47572000-10.74581000
   4.71078000-15.74886000 -0.82660000
   4.71078000 -7.15857000 -5.78621000
   4.71078000-10.02200000-10.74581000
   4.71078000 -4.29514000 -0.82660000
   7.01272000-15.74886000 -7.43941000
   7.01272000-18.61229000-12.39901000
   7.01272000-12.88543000 -2.47980000
   7.01272000-21.47571346 -7.43941000
   7.01272000-24.33914346-12.39901000
   7.01272000-18.61228346 -2.47980000
   7.01272000-10.02200000 -7.43941000
   7.01272000-12.88543000-12.39901000
   7.01272000 -7.15857000 -2.47980000
   9.35192000-18.61229000 -9.09261000
   9.35192000-21.47572000-14.05221000
   9.35192000-15.74886000 -4.13300000
   9.35192000 -7.15857000 -9.09261000
   9.35192000-10.02200000-14.05221000
   9.35192000 -4.29514000 -4.13300000
   9.35192000-12.88543000 -9.09261000
   9.35192000-15.74886000-14.05221000
   9.35192000-10.02200000 -4.13300000
  11.69112000-21.47572000-10.74581000
  11.69112000-15.74886000 -0.82660000
  11.69112000-18.61229000 -5.78621000
  11.69112000-10.02200000-10.74581000
  11.69112000 -4.29514000 -0.82660000
  11.69112000 -7.15857000 -5.78621000
  11.69112000-15.74886000-10.74581000
  11.69112000-10.02200000 -0.82660000
  11.69112000-12.88543000 -5.78621000
  13.99306000-24.33914346-12.39901000
  13.99306000-18.61228346 -2.47980000
  13.99306000-21.47571346 -7.43941000
  13.99306000-12.88543000-12.39901000
  13.99306000 -7.15857000 -2.47980000
  13.99306000-10.02200000 -7.43941000
  13.99306000-18.61229000-12.39901000
  13.99306000-12.88543000 -2.47980000
  13.99306000-15.74886000 -7.43941000
  16.34180000-10.02200000-14.05221000
  16.34180000 -4.29514000 -4.13300000
  16.34180000 -7.15857000 -9.09261000
  16.34180000-15.74886000-14.05221000
  16.34180000-10.02200000 -4.13300000
  16.34180000-12.88543000 -9.09261000
  16.34180000-21.47572000-14.05221000
  16.34180000-15.74886000 -4.13300000
  16.34180000-18.61229000 -9.09261000
  21.04000000-10.02200000 -7.16000000
  21.04000000-10.02200333 -6.06300000
 


--------------------------------------------------------------------------------------------------------


 k-point  1 :   0.0000 0.0000 0.0000  plane waves:   90499
 k-point  2 :   0.5000 0.0000 0.0000  plane waves:   90530
 k-point  3 :   0.0000 0.5000 0.0000  plane waves:   90530

 maximum and minimum number of plane-waves per node :     90530    90499

 maximum number of plane-waves:     90530
 maximum index in each direction: 
   IXMAX=   24   IYMAX=   24   IZMAX=   42
   IXMIN=  -24   IYMIN=  -24   IZMIN=  -42


 serial   3D FFT for wavefunctions
 parallel 3D FFT for charge:
    minimum data exchange during FFTs selected (reduces bandwidth)


 total amount of memory used by VASP MPI-rank0   652120. kBytes
=======================================================================

   base      :      30000. kBytes
   nonlr-proj:      89899. kBytes
   fftplans  :      40601. kBytes
   grid      :      95147. kBytes
   one-center:       3950. kBytes
   wavefun   :     392523. kBytes
 
     INWAV:  cpu time    0.0001: real time    0.0001
 Broyden mixing: mesh for mixing (old mesh)
   NGX = 49   NGY = 49   NGZ = 85
  (NGX  =160   NGY  =160   NGZ  =256)
  gives a total of 204085 points

 initial charge density was supplied:
 charge density of overlapping atoms calculated
 number of electron     766.0000000 magnetization 
 keeping initial charge density in first step


--------------------------------------------------------------------------------------------------------


 Maximum index for non-local projection operator         4270
 Maximum index for augmentation-charges          758 (set IRDMAX)


--------------------------------------------------------------------------------------------------------


 First call to EWALD:  gamma=   0.090
 Maximum number of real-space cells 3x 3x 2
 Maximum number of reciprocal cells 2x 2x 4

    FEWALD:  cpu time    0.0274: real time    0.0274


----------------------------------------- Iteration    1(   1)  ---------------------------------------


    POTLOK:  cpu time    0.7017: real time    0.7651
    SETDIJ:  cpu time    0.0862: real time    0.0894
     EDDAV:  cpu time   18.2697: real time   21.4478
       DOS:  cpu time    0.0013: real time    0.0070
    --------------------------------------------
      LOOP:  cpu time   19.0609: real time   22.3328

 eigenvalue-minimisations  :  3120
 total energy-change (2. order) : 0.2139780E+04  (-0.1839882E+05)
 number of electron     766.0000000 magnetization 
 augmentation part      766.0000000 magnetization 

 Free energy of the ion-electron system (eV)
  ---------------------------------------------------
  alpha Z        PSCENC =       505.22967617
  Ewald energy   TEWEN  =     86057.57495161
  -Hartree energ DENC   =   -100118.30320510
  -exchange      EXHF   =         0.00000000
  -V(xc)+E(xc)   XCENC  =     -6605.85974485
  PAW double counting   =     17092.30507181    -9042.14386232
  entropy T*S    EENTRO =        -0.07023707
  eigenvalues    EBANDS =       231.84569440
  atomic energy  EATOM  =     14019.20197576
  Solvation  Ediel_sol  =         0.00000000
  ---------------------------------------------------
  free energy    TOTEN  =      2139.78032040 eV

  energy without entropy =     2139.85055747  energy(sigma->0) =     2139.81543893


--------------------------------------------------------------------------------------------------------




----------------------------------------- Iteration    1(   2)  ---------------------------------------


     EDDAV:  cpu time   22.8597: real time   26.6341
       DOS:  cpu time    0.0260: real time    0.0260
    --------------------------------------------
      LOOP:  cpu time   22.8871: real time   26.6705

 eigenvalue-minimisations  :  4212
 total energy-change (2. order) :-0.2883394E+04  (-0.2716886E+04)
 number of electron     766.0000000 magnetization 
 augmentation part      766.0000000 magnetization 

 Free energy of the ion-electron system (eV)
  ---------------------------------------------------
  alpha Z        PSCENC =       505.22967617
  Ewald energy   TEWEN  =     86057.57495161
  -Hartree energ DENC   =   -100118.30320510
  -exchange      EXHF   =         0.00000000
  -V(xc)+E(xc)   XCENC  =     -6605.85974485
  PAW double counting   =     17092.30507181    -9042.14386232
  entropy T*S    EENTRO =        -0.09830831
  eigenvalues    EBANDS =     -2651.52015932
  atomic energy  EATOM  =     14019.20197576
  Solvation  Ediel_sol  =         0.00000000
  ---------------------------------------------------
  free energy    TOTEN  =      -743.61360457 eV

  energy without entropy =     -743.51529626  energy(sigma->0) =     -743.56445041


--------------------------------------------------------------------------------------------------------




----------------------------------------- Iteration    1(   3)  ---------------------------------------


     EDDAV:  cpu time   23.7544: real time   27.6393
       DOS:  cpu time    0.0024: real time    0.0024
    --------------------------------------------
      LOOP:  cpu time   23.7581: real time   27.6440

 eigenvalue-minimisations  :  4416
 total energy-change (2. order) :-0.2119071E+03  (-0.2037610E+03)
 number of electron     766.0000000 magnetization 
 augmentation part      766.0000000 magnetization 

 Free energy of the ion-electron system (eV)
  ---------------------------------------------------
  alpha Z        PSCENC =       505.22967617
  Ewald energy   TEWEN  =     86057.57495161
  -Hartree energ DENC   =   -100118.30320510
  -exchange      EXHF   =         0.00000000
  -V(xc)+E(xc)   XCENC  =     -6605.85974485
  PAW double counting   =     17092.30507181    -9042.14386232
  entropy T*S    EENTRO =        -0.23034070
  eigenvalues    EBANDS =     -2863.29519584
  atomic energy  EATOM  =     14019.20197576
  Solvation  Ediel_sol  =         0.00000000
  ---------------------------------------------------
  free energy    TOTEN  =      -955.52067347 eV

  energy without entropy =     -955.29033277  energy(sigma->0) =     -955.40550312


--------------------------------------------------------------------------------------------------------




----------------------------------------- Iteration    1(   4)  ---------------------------------------


     EDDAV:  cpu time   23.5061: real time   27.3150
       DOS:  cpu time    0.0110: real time    0.0110
    --------------------------------------------
      LOOP:  cpu time   23.5185: real time   27.3284

 eigenvalue-minimisations  :  4356
 total energy-change (2. order) :-0.8036886E+01  (-0.7871528E+01)
 number of electron     766.0000000 magnetization 
 augmentation part      766.0000000 magnetization 

 Free energy of the ion-electron system (eV)
  ---------------------------------------------------
  alpha Z        PSCENC =       505.22967617
  Ewald energy   TEWEN  =     86057.57495161
  -Hartree energ DENC   =   -100118.30320510
  -exchange      EXHF   =         0.00000000
  -V(xc)+E(xc)   XCENC  =     -6605.85974485
  PAW double counting   =     17092.30507181    -9042.14386232
  entropy T*S    EENTRO =        -0.25955474
  eigenvalues    EBANDS =     -2871.30286753
  atomic energy  EATOM  =     14019.20197576
  Solvation  Ediel_sol  =         0.00000000
  ---------------------------------------------------
  free energy    TOTEN  =      -963.55755920 eV

  energy without entropy =     -963.29800446  energy(sigma->0) =     -963.42778183


--------------------------------------------------------------------------------------------------------




----------------------------------------- Iteration    1(   5)  ---------------------------------------


     EDDAV:  cpu time   26.3157: real time   30.4093
       DOS:  cpu time    0.0011: real time    0.0011
    CHARGE:  cpu time    1.6126: real time    1.6828
    MIXING:  cpu time    0.0227: real time    0.0228
    --------------------------------------------
      LOOP:  cpu time   27.9536: real time   32.1185

 eigenvalue-minimisations  :  4944
 total energy-change (2. order) :-0.4309749E+00  (-0.4296131E+00)
 number of electron     765.9999985 magnetization 
 augmentation part       -9.8958362 magnetization 

 Broyden mixing:
  rms(total) = 0.19616E+01    rms(broyden)= 0.19599E+01
  rms(prec ) = 0.26894E+01
  weight for this iteration     100.00

 Free energy of the ion-electron system (eV)
  ---------------------------------------------------
  alpha Z        PSCENC =       505.22967617
  Ewald energy   TEWEN  =     86057.57495161
  -Hartree energ DENC   =   -100118.30320510
  -exchange      EXHF   =         0.00000000
  -V(xc)+E(xc)   XCENC  =     -6605.85974485
  PAW double counting   =     17092.30507181    -9042.14386232
  entropy T*S    EENTRO =        -0.25963507
  eigenvalues    EBANDS =     -2871.73376214
  atomic energy  EATOM  =     14019.20197576
  Solvation  Ediel_sol  =         0.00000000
  ---------------------------------------------------
  free energy    TOTEN  =      -963.98853414 eV

  energy without entropy =     -963.72889908  energy(sigma->0) =     -963.85871661


--------------------------------------------------------------------------------------------------------




----------------------------------------- Iteration    1(   6)  ---------------------------------------


    POTLOK:  cpu time    0.6761: real time    0.6798
    SETDIJ:  cpu time    0.0856: real time    0.0879
     EDDAV:  cpu time   23.5278: real time   27.3458
       DOS:  cpu time    0.0017: real time    0.0017
    CHARGE:  cpu time    1.6210: real time    1.6760
    MIXING:  cpu time    0.0250: real time    0.0253
    --------------------------------------------
      LOOP:  cpu time   25.9388: real time   29.8193

 eigenvalue-minimisations  :  4344
 total energy-change (2. order) :-0.1473420E+02  (-0.1897417E+02)
 number of electron     765.9999987 magnetization 
 augmentation part       -9.8662444 magnetization 

 Broyden mixing:
  rms(total) = 0.19001E+01    rms(broyden)= 0.19000E+01
  rms(prec ) = 0.42066E+01
  weight for this iteration     100.00

 eigenvalues of (default mixing * dielectric matrix)
  average eigenvalue GAMMA=   0.7982
  0.7982

 Free energy of the ion-electron system (eV)
  ---------------------------------------------------
  alpha Z        PSCENC =       505.22967617
  Ewald energy   TEWEN  =     86057.57495161
  -Hartree energ DENC   =   -101044.76476054
  -exchange      EXHF   =         0.00000000
  -V(xc)+E(xc)   XCENC  =     -6595.51681925
  PAW double counting   =     19105.10697460   -11056.39194274
  entropy T*S    EENTRO =        -0.17229260
  eigenvalues    EBANDS =     -1968.99049357
  atomic energy  EATOM  =     14019.20197576
  Solvation  Ediel_sol  =         0.00000000
  ---------------------------------------------------
  free energy    TOTEN  =      -978.72273057 eV

  energy without entropy =     -978.55043797  energy(sigma->0) =     -978.63658427


--------------------------------------------------------------------------------------------------------




----------------------------------------- Iteration    1(   7)  ---------------------------------------


    POTLOK:  cpu time    0.6803: real time    0.6870
    SETDIJ:  cpu time    0.0859: real time    0.0861
     EDDAV:  cpu time   22.1301: real time   25.7393
       DOS:  cpu time    0.0010: real time    0.0010
    CHARGE:  cpu time    1.6294: real time    1.6835
    MIXING:  cpu time    0.0249: real time    0.0249
    --------------------------------------------
      LOOP:  cpu time   24.5533: real time   28.2249

 eigenvalue-minimisations  :  3996
 total energy-change (2. order) : 0.4030726E+02  (-0.1333986E+02)
 number of electron     765.9999987 magnetization 
 augmentation part       -9.9095082 magnetization 

 Broyden mixing:
  rms(total) = 0.10150E+01    rms(broyden)= 0.10150E+01
  rms(prec ) = 0.12880E+01
  weight for this iteration     100.00

 eigenvalues of (default mixing * dielectric matrix)
  average eigenvalue GAMMA=   1.1896
  2.0661  0.3131

 Free energy of the ion-electron system (eV)
  ---------------------------------------------------
  alpha Z        PSCENC =       505.22967617
  Ewald energy   TEWEN  =     86057.57495161
  -Hartree energ DENC   =   -100517.32108352
  -exchange      EXHF   =         0.00000000
  -V(xc)+E(xc)   XCENC  =     -6593.32190041
  PAW double counting   =     19506.19559786   -11457.62402113
  entropy T*S    EENTRO =        -0.04833070
  eigenvalues    EBANDS =     -2458.30233983
  atomic energy  EATOM  =     14019.20197576
  Solvation  Ediel_sol  =         0.00000000
  ---------------------------------------------------
  free energy    TOTEN  =      -938.41547421 eV

  energy without entropy =     -938.36714351  energy(sigma->0) =     -938.39130886


--------------------------------------------------------------------------------------------------------




----------------------------------------- Iteration    1(   8)  ---------------------------------------


    POTLOK:  cpu time    0.6838: real time    0.6875
    SETDIJ:  cpu time    0.0862: real time    0.0885
     EDDAV:  cpu time   21.4499: real time   24.9179
       DOS:  cpu time    0.0017: real time    0.0017
    CHARGE:  cpu time    1.6255: real time    1.6748
    MIXING:  cpu time    0.0261: real time    0.0261
    --------------------------------------------
      LOOP:  cpu time   23.8748: real time   27.4011

 eigenvalue-minimisations  :  3840
 total energy-change (2. order) : 0.3977373E+00  (-0.4790412E+01)
 number of electron     765.9999986 magnetization 
 augmentation part      -10.0771446 magnetization 

 Broyden mixing:
  rms(total) = 0.47558E+00    rms(broyden)= 0.47558E+00
  rms(prec ) = 0.61212E+00
  weight for this iteration     100.00

 eigenvalues of (default mixing * dielectric matrix)
  average eigenvalue GAMMA=   1.1578
  2.4769  0.7013  0.2952

 Free energy of the ion-electron system (eV)
  ---------------------------------------------------
  alpha Z        PSCENC =       505.22967617
  Ewald energy   TEWEN  =     86057.57495161
  -Hartree energ DENC   =   -100692.62930628
  -exchange      EXHF   =         0.00000000
  -V(xc)+E(xc)   XCENC  =     -6583.55303978
  PAW double counting   =     21143.61738552   -13095.99316248
  entropy T*S    EENTRO =        -0.05777901
  eigenvalues    EBANDS =     -2291.40843839
  atomic energy  EATOM  =     14019.20197576
  Solvation  Ediel_sol  =         0.00000000
  ---------------------------------------------------
  free energy    TOTEN  =      -938.01773689 eV

  energy without entropy =     -937.95995788  energy(sigma->0) =     -937.98884738


--------------------------------------------------------------------------------------------------------




----------------------------------------- Iteration    1(   9)  ---------------------------------------


    POTLOK:  cpu time    0.6803: real time    0.6884
    SETDIJ:  cpu time    0.0869: real time    0.0870
     EDDAV:  cpu time   20.6466: real time   23.9985
       DOS:  cpu time    0.0010: real time    0.0010
    CHARGE:  cpu time    1.6198: real time    1.6712
    MIXING:  cpu time    0.0277: real time    0.0277
    --------------------------------------------
      LOOP:  cpu time   23.0639: real time   26.4765

 eigenvalue-minimisations  :  3660
 total energy-change (2. order) : 0.2058214E+01  (-0.5264031E+00)
 number of electron     765.9999987 magnetization 
 augmentation part      -10.1404923 magnetization 

 Broyden mixing:
  rms(total) = 0.12846E+00    rms(broyden)= 0.12845E+00
  rms(prec ) = 0.22379E+00
  weight for this iteration     100.00

 eigenvalues of (default mixing * dielectric matrix)
  average eigenvalue GAMMA=   1.2199
  2.4100  1.4986  0.2971  0.6738

 Free energy of the ion-electron system (eV)
  ---------------------------------------------------
  alpha Z        PSCENC =       505.22967617
  Ewald energy   TEWEN  =     86057.57495161
  -Hartree energ DENC   =   -100864.53014341
  -exchange      EXHF   =         0.00000000
  -V(xc)+E(xc)   XCENC  =     -6575.84275080
  PAW double counting   =     22399.54572480   -14352.93424977
  entropy T*S    EENTRO =        -0.05506847
  eigenvalues    EBANDS =     -2124.14963919
  atomic energy  EATOM  =     14019.20197576
  Solvation  Ediel_sol  =         0.00000000
  ---------------------------------------------------
  free energy    TOTEN  =      -935.95952331 eV

  energy without entropy =     -935.90445483  energy(sigma->0) =     -935.93198907


--------------------------------------------------------------------------------------------------------




----------------------------------------- Iteration    1(  10)  ---------------------------------------


    POTLOK:  cpu time    0.6819: real time    0.6855
    SETDIJ:  cpu time    0.0861: real time    0.0883
     EDDAV:  cpu time   24.4100: real time   28.3855
       DOS:  cpu time    0.0011: real time    0.0011
    CHARGE:  cpu time    1.6169: real time    1.6676
    MIXING:  cpu time    0.0286: real time    0.0286
    --------------------------------------------
      LOOP:  cpu time   26.8263: real time   30.8597

 eigenvalue-minimisations  :  4548
 total energy-change (2. order) :-0.5430255E+00  (-0.8049523E-01)
 number of electron     765.9999988 magnetization 
 augmentation part      -10.1476838 magnetization 

 Broyden mixing:
  rms(total) = 0.19946E+00    rms(broyden)= 0.19946E+00
  rms(prec ) = 0.70228E+00
  weight for this iteration     100.00

 eigenvalues of (default mixing * dielectric matrix)
  average eigenvalue GAMMA=   1.0289
  2.3944  1.6077  0.6672  0.2976  0.1778

 Free energy of the ion-electron system (eV)
  ---------------------------------------------------
  alpha Z        PSCENC =       505.22967617
  Ewald energy   TEWEN  =     86057.57495161
  -Hartree energ DENC   =   -100899.11613870
  -exchange      EXHF   =         0.00000000
  -V(xc)+E(xc)   XCENC  =     -6575.35384217
  PAW double counting   =     22425.30758585   -14378.90630558
  entropy T*S    EENTRO =        -0.05573253
  eigenvalues    EBANDS =     -2090.38471920
  atomic energy  EATOM  =     14019.20197576
  Solvation  Ediel_sol  =         0.00000000
  ---------------------------------------------------
  free energy    TOTEN  =      -936.50254878 eV

  energy without entropy =     -936.44681626  energy(sigma->0) =     -936.47468252


--------------------------------------------------------------------------------------------------------




----------------------------------------- Iteration    1(  11)  ---------------------------------------


    POTLOK:  cpu time    0.6808: real time    0.6868
    SETDIJ:  cpu time    0.0866: real time    0.0866
     EDDAV:  cpu time   23.7544: real time   27.5794
       DOS:  cpu time    0.0119: real time    0.0119
    CHARGE:  cpu time    1.6135: real time    1.6653
    MIXING:  cpu time    0.0300: real time    0.0329
    --------------------------------------------
      LOOP:  cpu time   26.1789: real time   30.0660

 eigenvalue-minimisations  :  4368
 total energy-change (2. order) : 0.6988223E+00  (-0.5102304E-01)
 number of electron     765.9999987 magnetization 
 augmentation part      -10.1488662 magnetization 

 Broyden mixing:
  rms(total) = 0.62115E-01    rms(broyden)= 0.62112E-01
  rms(prec ) = 0.86592E-01
  weight for this iteration     100.00

 eigenvalues of (default mixing * dielectric matrix)
  average eigenvalue GAMMA=   1.0599
  2.3537  1.9785  0.7954  0.7954  0.2967  0.1396

 Free energy of the ion-electron system (eV)
  ---------------------------------------------------
  alpha Z        PSCENC =       505.22967617
  Ewald energy   TEWEN  =     86057.57495161
  -Hartree energ DENC   =   -100934.10414599
  -exchange      EXHF   =         0.00000000
  -V(xc)+E(xc)   XCENC  =     -6574.84856346
  PAW double counting   =     22443.96812562   -14397.79019348
  entropy T*S    EENTRO =        -0.05524887
  eigenvalues    EBANDS =     -2054.98030380
  atomic energy  EATOM  =     14019.20197576
  Solvation  Ediel_sol  =         0.00000000
  ---------------------------------------------------
  free energy    TOTEN  =      -935.80372645 eV

  energy without entropy =     -935.74847758  energy(sigma->0) =     -935.77610202


--------------------------------------------------------------------------------------------------------




----------------------------------------- Iteration    1(  12)  ---------------------------------------


    POTLOK:  cpu time    0.6786: real time    0.6840
    SETDIJ:  cpu time    0.0861: real time    0.0864
     EDDAV:  cpu time   20.5173: real time   23.8882
       DOS:  cpu time    0.0020: real time    0.0020
    CHARGE:  cpu time    1.6233: real time    1.6715
    MIXING:  cpu time    0.0328: real time    0.0332
    --------------------------------------------
      LOOP:  cpu time   22.9419: real time   26.3894

 eigenvalue-minimisations  :  3612
 total energy-change (2. order) : 0.2904374E-01  (-0.2155586E-01)
 number of electron     765.9999987 magnetization 
 augmentation part      -10.1580255 magnetization 

 Broyden mixing:
  rms(total) = 0.43365E-01    rms(broyden)= 0.43364E-01
  rms(prec ) = 0.62224E-01
  weight for this iteration     100.00

 eigenvalues of (default mixing * dielectric matrix)
  average eigenvalue GAMMA=   1.1593
  2.3465  2.3465  1.1506  1.1506  0.6850  0.2969  0.1392

 Free energy of the ion-electron system (eV)
  ---------------------------------------------------
  alpha Z        PSCENC =       505.22967617
  Ewald energy   TEWEN  =     86057.57495161
  -Hartree energ DENC   =   -100970.80452548
  -exchange      EXHF   =         0.00000000
  -V(xc)+E(xc)   XCENC  =     -6574.21677202
  PAW double counting   =     22465.35533295   -14419.37018591
  entropy T*S    EENTRO =        -0.05531332
  eigenvalues    EBANDS =     -2018.68982247
  atomic energy  EATOM  =     14019.20197576
  Solvation  Ediel_sol  =         0.00000000
  ---------------------------------------------------
  free energy    TOTEN  =      -935.77468271 eV

  energy without entropy =     -935.71936940  energy(sigma->0) =     -935.74702605


--------------------------------------------------------------------------------------------------------




----------------------------------------- Iteration    1(  13)  ---------------------------------------


    POTLOK:  cpu time    0.6921: real time    0.6971
    SETDIJ:  cpu time    0.0860: real time    0.0882
     EDDAV:  cpu time   22.1990: real time   25.7495
       DOS:  cpu time    0.0017: real time    0.0017
    CHARGE:  cpu time    1.6144: real time    1.6632
    MIXING:  cpu time    0.0326: real time    0.0328
    --------------------------------------------
      LOOP:  cpu time   24.6275: real time   28.2352

 eigenvalue-minimisations  :  4020
 total energy-change (2. order) : 0.2520947E-01  (-0.6273869E-02)
 number of electron     765.9999987 magnetization 
 augmentation part      -10.1567266 magnetization 

 Broyden mixing:
  rms(total) = 0.21000E-01    rms(broyden)= 0.20999E-01
  rms(prec ) = 0.36181E-01
  weight for this iteration     100.00

 eigenvalues of (default mixing * dielectric matrix)
  average eigenvalue GAMMA=   1.2518
  2.9534  2.6510  1.1679  1.1679  0.9432  0.6949  0.2968  0.1392

 Free energy of the ion-electron system (eV)
  ---------------------------------------------------
  alpha Z        PSCENC =       505.22967617
  Ewald energy   TEWEN  =     86057.57495161
  -Hartree energ DENC   =   -101007.38596395
  -exchange      EXHF   =         0.00000000
  -V(xc)+E(xc)   XCENC  =     -6573.77583183
  PAW double counting   =     22461.35386369   -14415.48644382
  entropy T*S    EENTRO =        -0.05539118
  eigenvalues    EBANDS =     -1982.40630968
  atomic energy  EATOM  =     14019.20197576
  Solvation  Ediel_sol  =         0.00000000
  ---------------------------------------------------
  free energy    TOTEN  =      -935.74947324 eV

  energy without entropy =     -935.69408207  energy(sigma->0) =     -935.72177765


--------------------------------------------------------------------------------------------------------




----------------------------------------- Iteration    1(  14)  ---------------------------------------


    POTLOK:  cpu time    0.6850: real time    0.6907
    SETDIJ:  cpu time    0.0861: real time    0.0865
     EDDAV:  cpu time   21.0510: real time   24.5211
       DOS:  cpu time    0.0027: real time    0.0027
    CHARGE:  cpu time    1.6121: real time    1.6629
    MIXING:  cpu time    0.0339: real time    0.0340
    --------------------------------------------
      LOOP:  cpu time   23.4726: real time   27.0010

 eigenvalue-minimisations  :  3768
 total energy-change (2. order) : 0.4521863E-02  (-0.2736812E-02)
 number of electron     765.9999987 magnetization 
 augmentation part      -10.1547057 magnetization 

 Broyden mixing:
  rms(total) = 0.15204E-01    rms(broyden)= 0.15204E-01
  rms(prec ) = 0.24730E-01
  weight for this iteration     100.00

 eigenvalues of (default mixing * dielectric matrix)
  average eigenvalue GAMMA=   1.2943
  3.4398  2.5224  1.4290  1.2009  1.2009  0.2969  0.6810  0.7389  0.1392

 Free energy of the ion-electron system (eV)
  ---------------------------------------------------
  alpha Z        PSCENC =       505.22967617
  Ewald energy   TEWEN  =     86057.57495161
  -Hartree energ DENC   =   -101041.01171087
  -exchange      EXHF   =         0.00000000
  -V(xc)+E(xc)   XCENC  =     -6573.41888517
  PAW double counting   =     22457.58624442   -14411.77047962
  entropy T*S    EENTRO =        -0.05549941
  eigenvalues    EBANDS =     -1949.08122426
  atomic energy  EATOM  =     14019.20197576
  Solvation  Ediel_sol  =         0.00000000
  ---------------------------------------------------
  free energy    TOTEN  =      -935.74495138 eV

  energy without entropy =     -935.68945196  energy(sigma->0) =     -935.71720167


--------------------------------------------------------------------------------------------------------




----------------------------------------- Iteration    1(  15)  ---------------------------------------


    POTLOK:  cpu time    0.6857: real time    0.6908
    SETDIJ:  cpu time    0.0862: real time    0.0865
     EDDAV:  cpu time   22.0395: real time   25.6392
       DOS:  cpu time    0.0025: real time    0.0025
    CHARGE:  cpu time    1.6197: real time    1.6666
    MIXING:  cpu time    0.0360: real time    0.0382
    --------------------------------------------
      LOOP:  cpu time   24.4714: real time   28.1266

 eigenvalue-minimisations  :  3996
 total energy-change (2. order) :-0.4213385E-02  (-0.7194880E-03)
 number of electron     765.9999987 magnetization 
 augmentation part      -10.1539989 magnetization 

 Broyden mixing:
  rms(total) = 0.11956E-01    rms(broyden)= 0.11956E-01
  rms(prec ) = 0.18078E-01
  weight for this iteration     100.00

 eigenvalues of (default mixing * dielectric matrix)
  average eigenvalue GAMMA=   1.3681
  3.8367  2.4646  2.2577  1.2999  1.2999  0.2969  0.1392  0.8367  0.6867  0.5629

 Free energy of the ion-electron system (eV)
  ---------------------------------------------------
  alpha Z        PSCENC =       505.22967617
  Ewald energy   TEWEN  =     86057.57495161
  -Hartree energ DENC   =   -101054.95017881
  -exchange      EXHF   =         0.00000000
  -V(xc)+E(xc)   XCENC  =     -6573.30464979
  PAW double counting   =     22457.08257888   -14411.24524375
  entropy T*S    EENTRO =        -0.05555864
  eigenvalues    EBANDS =     -1935.28271619
  atomic energy  EATOM  =     14019.20197576
  Solvation  Ediel_sol  =         0.00000000
  ---------------------------------------------------
  free energy    TOTEN  =      -935.74916476 eV

  energy without entropy =     -935.69360612  energy(sigma->0) =     -935.72138544


--------------------------------------------------------------------------------------------------------




----------------------------------------- Iteration    1(  16)  ---------------------------------------


    POTLOK:  cpu time    0.6897: real time    0.6957
    SETDIJ:  cpu time    0.0868: real time    0.0868
     EDDAV:  cpu time   21.1177: real time   24.5499
       DOS:  cpu time    0.0220: real time    0.0221
    CHARGE:  cpu time    1.6186: real time    1.6670
    MIXING:  cpu time    0.0373: real time    0.0373
    --------------------------------------------
      LOOP:  cpu time   23.5740: real time   27.0621

 eigenvalue-minimisations  :  3768
 total energy-change (2. order) :-0.7899215E-02  (-0.4673202E-03)
 number of electron     765.9999987 magnetization 
 augmentation part      -10.1536681 magnetization 

 Broyden mixing:
  rms(total) = 0.70742E-02    rms(broyden)= 0.70740E-02
  rms(prec ) = 0.10674E-01
  weight for this iteration     100.00

 eigenvalues of (default mixing * dielectric matrix)
  average eigenvalue GAMMA=   1.4626
  4.6605  3.1044  2.4655  1.3340  1.0601  1.0601  0.2969  0.7021  0.7731  0.1392
  0.4924

 Free energy of the ion-electron system (eV)
  ---------------------------------------------------
  alpha Z        PSCENC =       505.22967617
  Ewald energy   TEWEN  =     86057.57495161
  -Hartree energ DENC   =   -101067.20922151
  -exchange      EXHF   =         0.00000000
  -V(xc)+E(xc)   XCENC  =     -6573.25769089
  PAW double counting   =     22453.51159267   -14407.61877928
  entropy T*S    EENTRO =        -0.05561841
  eigenvalues    EBANDS =     -1923.13395010
  atomic energy  EATOM  =     14019.20197576
  Solvation  Ediel_sol  =         0.00000000
  ---------------------------------------------------
  free energy    TOTEN  =      -935.75706398 eV

  energy without entropy =     -935.70144557  energy(sigma->0) =     -935.72925477


--------------------------------------------------------------------------------------------------------




----------------------------------------- Iteration    1(  17)  ---------------------------------------


    POTLOK:  cpu time    0.6967: real time    0.7022
    SETDIJ:  cpu time    0.0864: real time    0.0864
     EDDAV:  cpu time   22.4564: real time   26.0414
       DOS:  cpu time    0.0021: real time    0.0021
    CHARGE:  cpu time    1.6171: real time    1.6675
    MIXING:  cpu time    0.0396: real time    0.0396
    --------------------------------------------
[...]
     11.69112     -8.59029     -8.26601         0.000818      0.000059      0.000048
     11.69112    -17.18057    -13.22561         0.000789     -0.000049     -0.000153
     11.69112    -11.45372     -3.30640         0.000695      0.000041      0.000109
     11.69112    -14.31714     -8.26601         0.000606     -0.000128      0.000044
     13.99306      0.00000      0.00000        -0.001274      0.000028      0.000000
     13.99306     -2.86343     -4.95960        -0.001475     -0.000040      0.000055
     13.99306     -5.72686     -9.91921        -0.001517      0.000032     -0.000135
     13.99306     -5.72686      0.00000        -0.001430      0.000035     -0.000004
     13.99306     -8.59029     -4.95960        -0.000797     -0.000065      0.000138
     13.99306    -11.45372     -9.91921        -0.001754      0.000025     -0.000020
     13.99306    -11.45372      0.00000        -0.001369     -0.000070     -0.000003
     13.99306    -14.31714     -4.95960        -0.001293     -0.000029      0.000101
     13.99306    -17.18057     -9.91921        -0.001460     -0.000074     -0.000094
     16.34180     -2.86343     -1.65320        -0.001092      0.000037      0.000155
     16.34180     -5.72686     -6.61281        -0.001121      0.000187     -0.000141
     16.34180     -8.59029    -11.57241        -0.001014     -0.000057      0.000068
     16.34180     -8.59029     -1.65320        -0.000973     -0.000059      0.000073
     16.34180    -11.45372     -6.61281        -0.002196     -0.000775     -0.000054
     16.34180    -14.31714    -11.57241        -0.001237      0.000070     -0.000034
     16.34180    -14.31714     -1.65320        -0.000985      0.000040      0.000107
     16.34180    -17.18057     -6.61281        -0.001271      0.000076      0.000030
     16.34180    -20.04400    -11.57241        -0.001094     -0.000051     -0.000107
      2.36204     -7.15857     -4.13300        -0.000629     -0.000028      0.000165
      2.36204    -10.02200     -9.09261        -0.000851     -0.000000     -0.000167
      2.36204    -12.88543    -14.05221        -0.000598      0.000023     -0.000047
      2.36204    -12.88543     -4.13300        -0.000629      0.000028      0.000165
      2.36204    -15.74886     -9.09261        -0.000715     -0.000065      0.000022
      2.36204    -18.61229    -14.05221        -0.000662     -0.000000     -0.000109
      2.36204    -18.61229     -4.13300        -0.000629     -0.000000      0.000016
      2.36204    -21.47572     -9.09261        -0.000715      0.000065      0.000022
      2.36204    -24.33915    -14.05221        -0.000598     -0.000023     -0.000047
      4.71078    -10.02200     -5.78621        -0.001495     -0.000000      0.000078
      4.71078    -12.88543    -10.74581        -0.001674      0.000014     -0.000021
      4.71078     -7.15857     -0.82660        -0.001577     -0.000086      0.000054
      4.71078    -15.74886     -5.78621        -0.001528     -0.000085     -0.000006
      4.71078    -18.61229    -10.74581        -0.001555     -0.000000      0.000017
      4.71078    -12.88543     -0.82660        -0.001577      0.000086      0.000054
      4.71078     -4.29514     -5.78621        -0.001528      0.000085     -0.000006
      4.71078     -7.15857    -10.74581        -0.001674     -0.000014     -0.000021
      4.71078     -1.43171     -0.82660        -0.001431     -0.000000      0.000096
      7.01272    -12.88543     -7.43941         0.000492     -0.000020      0.000007
      7.01272    -15.74886    -12.39901         0.000290     -0.000017     -0.000013
      7.01272    -10.02200     -2.47980         0.000442     -0.000000      0.000160
      7.01272    -18.61229     -7.43941         0.000504     -0.000000      0.000053
      7.01272    -21.47572    -12.39901         0.000290      0.000017     -0.000013
      7.01272    -15.74886     -2.47980         0.000303     -0.000018      0.000062
      7.01272     -7.15857     -7.43941         0.000492      0.000020      0.000007
      7.01272    -10.02200    -12.39901         0.000420     -0.000000     -0.000134
      7.01272     -4.29514     -2.47980         0.000303      0.000018      0.000062
      9.35192    -15.74886     -9.09261         0.000619      0.000004      0.000111
      9.35192    -18.61229    -14.05221         0.000421     -0.000000     -0.000086
      9.35192    -12.88543     -4.13300         0.000491      0.000003     -0.000002
      9.35192    -21.47572     -9.09261         0.000619     -0.000004      0.000111
      9.35192    -24.33915    -14.05221         0.000491      0.000007     -0.000037
      9.35192    -18.61229     -4.13300         0.000532     -0.000000     -0.000029
      9.35192    -10.02200     -9.09261         0.000616     -0.000000      0.000054
      9.35192    -12.88543    -14.05221         0.000491     -0.000007     -0.000037
      9.35192     -7.15857     -4.13300         0.000491     -0.000003     -0.000002
     11.69112    -18.61229    -10.74581         0.000918     -0.000000     -0.000020
     11.69112    -12.88543     -0.82660         0.000715      0.000101      0.000033
     11.69112    -15.74886     -5.78621         0.000772     -0.000034     -0.000072
     11.69112     -7.15857    -10.74581         0.000765     -0.000029     -0.000030
     11.69112     -1.43171     -0.82660         0.000679     -0.000000      0.000150
     11.69112     -4.29514     -5.78621         0.000772      0.000034     -0.000072
     11.69112    -12.88543    -10.74581         0.000765      0.000029     -0.000030
     11.69112     -7.15857     -0.82660         0.000715     -0.000101      0.000033
     11.69112    -10.02200     -5.78621         0.001070     -0.000000      0.000044
     13.99306    -21.47572    -12.39901        -0.001432     -0.000024      0.000028
     13.99306    -15.74886     -2.47980        -0.001487      0.000051     -0.000052
     13.99306    -18.61229     -7.43941        -0.001393     -0.000000      0.000062
     13.99306    -10.02200    -12.39901        -0.001690     -0.000000      0.000137
     13.99306     -4.29514     -2.47980        -0.001487     -0.000051     -0.000052
     13.99306     -7.15857     -7.43941        -0.000515     -0.000017      0.000010
     13.99306    -15.74886    -12.39901        -0.001432      0.000024      0.000028
     13.99306    -10.02200     -2.47980        -0.002071     -0.000000      0.000034
     13.99306    -12.88543     -7.43941        -0.000515      0.000017      0.000010
     16.34180    -24.33915    -14.05221        -0.001158     -0.000073      0.000032
     16.34180    -18.61229     -4.13300        -0.001291     -0.000000     -0.000046
     16.34180    -21.47572     -9.09261        -0.001150     -0.000016      0.000082
     16.34180    -12.88543    -14.05221        -0.001158      0.000073      0.000032
     16.34180     -7.15857     -4.13300        -0.000639     -0.000302      0.000117
     16.34180    -10.02200     -9.09261         0.001828     -0.000000     -0.000051
     16.34180    -18.61229    -14.05221        -0.001146     -0.000000     -0.000119
     16.34180    -12.88543     -4.13300        -0.000639      0.000302      0.000117
     16.34180    -15.74886     -9.09261        -0.001150      0.000016      0.000082
      2.36204     -8.59029     -6.61281        -0.000274      0.000137     -0.000113
      2.36204    -11.45372    -11.57241        -0.000802      0.000115      0.000063
      2.36204     -5.72686     -1.65320        -0.000788     -0.000043      0.000071
      2.36204    -14.31714     -6.61281        -0.000449     -0.000102     -0.000041
      2.36204    -17.18057    -11.57241        -0.000691     -0.000029      0.000039
      2.36204    -11.45372     -1.65320        -0.000851      0.000057      0.000066
      2.36204    -20.04400     -6.61281        -0.000585      0.000030     -0.000084
      2.36204    -22.90743    -11.57241        -0.000611     -0.000008      0.000052
      2.36204    -17.18057     -1.65320        -0.000703      0.000003      0.000067
      4.71078    -11.45372     -8.26601        -0.001425      0.000037     -0.000007
      4.71078    -14.31714    -13.22561        -0.001699     -0.000009      0.000016
      4.71078     -8.59029     -3.30640        -0.001710     -0.000101      0.000072
      4.71078    -17.18057     -8.26601        -0.001544      0.000011      0.000040
      4.71078    -20.04400    -13.22561        -0.001515      0.000021     -0.000077
      4.71078    -14.31714     -3.30640        -0.001595     -0.000039      0.000053
      4.71078     -5.72686     -8.26601        -0.001350      0.000030     -0.000018
      4.71078     -8.59029    -13.22561        -0.001579     -0.000061      0.000044
      4.71078     -2.86343     -3.30640        -0.001655      0.000004     -0.000050
      7.01272    -14.31714     -9.91921         0.000428     -0.000051      0.000112
      7.01272     -8.59029      0.00000         0.000435     -0.000146     -0.000061
      7.01272    -11.45372     -4.95960         0.000237      0.000037     -0.000057
      7.01272    -20.04400     -9.91921         0.000249     -0.000134      0.000122
      7.01272    -14.31714      0.00000         0.000470      0.000005     -0.000039
      7.01272    -17.18057     -4.95960         0.000310      0.000044     -0.000082
      7.01272     -8.59029     -9.91921         0.000319     -0.000034      0.000070
      7.01272     -2.86343      0.00000         0.000489      0.000102      0.000062
      7.01272     -5.72686     -4.95960         0.000457      0.000051     -0.000117
      9.35192    -17.18057    -11.57241         0.000611     -0.000004     -0.000007
      9.35192    -11.45372     -1.65320         0.000730      0.000041      0.000038
      9.35192    -14.31714     -6.61281         0.000224     -0.000054      0.000005
      9.35192    -22.90743    -11.57241         0.000610     -0.000027      0.000037
      9.35192    -17.18057     -1.65320         0.000506     -0.000012      0.000087
      9.35192    -20.04400     -6.61281         0.000477     -0.000050     -0.000052
      9.35192    -11.45372    -11.57241         0.000768      0.000051     -0.000009
      9.35192     -5.72686     -1.65320         0.000694     -0.000015      0.000067
      9.35192     -8.59029     -6.61281         0.000283     -0.000003     -0.000010
     11.69112    -20.04400    -13.22561         0.000789      0.000049     -0.000153
     11.69112    -14.31714     -3.30640         0.000845     -0.000022     -0.000001
     11.69112    -17.18057     -8.26601         0.000702      0.000137      0.000129
     11.69112     -8.59029    -13.22561         0.000783     -0.000043     -0.000011
     11.69112     -2.86343     -3.30640         0.000838     -0.000025     -0.000038
     11.69112     -5.72686     -8.26601         0.000606      0.000128      0.000044
     11.69112    -14.31714    -13.22561         0.000825      0.000028     -0.000033
     11.69112     -8.59029     -3.30640         0.000695     -0.000041      0.000109
     11.69112    -11.45372     -8.26601         0.000818     -0.000059      0.000048
     13.99306    -14.31714      0.00000        -0.001430     -0.000035     -0.000004
     13.99306    -17.18057     -4.95960        -0.001475      0.000040      0.000055
     13.99306    -20.04400     -9.91921        -0.001460      0.000074     -0.000094
     13.99306     -2.86343      0.00000        -0.001274     -0.000028      0.000000
     13.99306     -5.72686     -4.95960        -0.001293      0.000029      0.000101
     13.99306     -8.59029     -9.91921        -0.001754     -0.000025     -0.000020
     13.99306     -8.59029      0.00000        -0.001369      0.000070     -0.000003
     13.99306    -11.45372     -4.95960        -0.000797      0.000065      0.000138
     13.99306    -14.31714     -9.91921        -0.001517     -0.000032     -0.000135
     16.34180    -17.18057     -1.65320        -0.001092     -0.000037      0.000155
     16.34180    -20.04400     -6.61281        -0.001271     -0.000076      0.000030
     16.34180    -22.90743    -11.57241        -0.001237     -0.000070     -0.000034
     16.34180     -5.72686     -1.65320        -0.000985     -0.000040      0.000107
     16.34180     -8.59029     -6.61281        -0.002196      0.000775     -0.000054
     16.34180    -11.45372    -11.57241        -0.001014      0.000057      0.000068
     16.34180    -11.45372     -1.65320        -0.000973      0.000059      0.000073
     16.34180    -14.31714     -6.61281        -0.001121     -0.000187     -0.000141
     16.34180    -17.18057    -11.57241        -0.001094      0.000051     -0.000107
      2.36204    -10.02200     -4.13300        -0.000607     -0.000000      0.000286
      2.36204    -12.88543     -9.09261        -0.000677      0.000067     -0.000055
      2.36204    -15.74886    -14.05221        -0.000620     -0.000037     -0.000116
      2.36204    -15.74886     -4.13300        -0.000637      0.000008      0.000041
      2.36204    -18.61229     -9.09261        -0.000822     -0.000000      0.000067
      2.36204    -21.47572    -14.05221        -0.000620      0.000037     -0.000116
      2.36204     -4.29514     -4.13300        -0.000637     -0.000008      0.000041
      2.36204     -7.15857     -9.09261        -0.000677     -0.000067     -0.000055
      2.36204    -10.02200    -14.05221        -0.000643     -0.000000      0.000037
      4.71078    -12.88543     -5.78621        -0.001458      0.000033      0.000011
      4.71078    -15.74886    -10.74581        -0.001660      0.000020      0.000017
      4.71078    -10.02200     -0.82660        -0.001539     -0.000000      0.000008
      4.71078    -18.61229     -5.78621        -0.001738     -0.000000     -0.000008
      4.71078    -21.47572    -10.74581        -0.001660     -0.000020      0.000017
      4.71078    -15.74886     -0.82660        -0.001484      0.000038      0.000051
      4.71078     -7.15857     -5.78621        -0.001458     -0.000033      0.000011
      4.71078    -10.02200    -10.74581        -0.001745     -0.000000     -0.000051
      4.71078     -4.29514     -0.82660        -0.001484     -0.000038      0.000051
      7.01272    -15.74886     -7.43941         0.000520      0.000029     -0.000010
      7.01272    -18.61229    -12.39901         0.000408     -0.000000     -0.000198
      7.01272    -12.88543     -2.47980         0.000304      0.000069      0.000116
      7.01272    -21.47571     -7.43941         0.000520     -0.000029     -0.000010
      7.01272    -24.33914    -12.39901         0.000263     -0.000093     -0.000039
      7.01272    -18.61228     -2.47980         0.000422     -0.000000      0.000107
      7.01272    -10.02200     -7.43941         0.000364     -0.000000     -0.000068
      7.01272    -12.88543    -12.39901         0.000263      0.000093     -0.000039
      7.01272     -7.15857     -2.47980         0.000304     -0.000069      0.000116
      9.35192    -18.61229     -9.09261         0.000751     -0.000000      0.000150
      9.35192    -21.47572    -14.05221         0.000523      0.000033     -0.000109
      9.35192    -15.74886     -4.13300         0.000594     -0.000010     -0.000053
      9.35192     -7.15857     -9.09261         0.000477     -0.000075      0.000039
      9.35192    -10.02200    -14.05221         0.000400     -0.000000      0.000010
      9.35192     -4.29514     -4.13300         0.000594      0.000010     -0.000053
      9.35192    -12.88543     -9.09261         0.000477      0.000075      0.000039
      9.35192    -15.74886    -14.05221         0.000523     -0.000033     -0.000109
      9.35192    -10.02200     -4.13300         0.000433     -0.000000      0.000029
     11.69112    -21.47572    -10.74581         0.000869     -0.000064      0.000078
     11.69112    -15.74886     -0.82660         0.000729     -0.000010      0.000104
     11.69112    -18.61229     -5.78621         0.000840     -0.000000     -0.000047
     11.69112    -10.02200    -10.74581         0.000674     -0.000000     -0.000079
     11.69112     -4.29514     -0.82660         0.000729      0.000010      0.000104
     11.69112     -7.15857     -5.78621         0.000898     -0.000046     -0.000057
     11.69112    -15.74886    -10.74581         0.000869      0.000064      0.000078
     11.69112    -10.02200     -0.82660         0.000649     -0.000000      0.000038
     11.69112    -12.88543     -5.78621         0.000898      0.000046     -0.000057
     13.99306    -24.33914    -12.39901        -0.001528     -0.000067      0.000096
     13.99306    -18.61228     -2.47980        -0.001400     -0.000000     -0.000071
     13.99306    -21.47571     -7.43941        -0.001167      0.000038      0.000102
     13.99306    -12.88543    -12.39901        -0.001528      0.000067      0.000096
     13.99306     -7.15857     -2.47980        -0.001733      0.000014      0.000012
     13.99306    -10.02200     -7.43941        -0.000734     -0.000000     -0.000189
     13.99306    -18.61229    -12.39901        -0.001374     -0.000000      0.000072
     13.99306    -12.88543     -2.47980        -0.001733     -0.000014      0.000012
     13.99306    -15.74886     -7.43941        -0.001167     -0.000038      0.000102
     16.34180    -10.02200    -14.05221        -0.001144     -0.000000     -0.000072
     16.34180     -4.29514     -4.13300        -0.001162     -0.000025     -0.000066
     16.34180     -7.15857     -9.09261        -0.000600      0.000089      0.000004
     16.34180    -15.74886    -14.05221        -0.001154     -0.000048     -0.000009
     16.34180    -10.02200     -4.13300         0.001629     -0.000000      0.000161
     16.34180    -12.88543     -9.09261        -0.000600     -0.000089      0.000004
     16.34180    -21.47572    -14.05221        -0.001154      0.000048     -0.000009
     16.34180    -15.74886     -4.13300        -0.001162      0.000025     -0.000066
     16.34180    -18.61229     -9.09261        -0.001064     -0.000000      0.000027
     21.04000    -10.02200     -7.16000         0.050883      0.000000     -3.966672
     21.04000    -10.02200     -6.06300         0.051840      0.000000      3.963942
 -----------------------------------------------------------------------------------
    total drift:                                0.214853      0.000273     -0.002749


--------------------------------------------------------------------------------------------------------



  FREE ENERGIE OF THE ION-ELECTRON SYSTEM (eV)
  ---------------------------------------------------
  free  energy   TOTEN  =      -935.77193220 eV

  energy  without entropy=     -935.71626603  energy(sigma->0) =     -935.74409912
 


--------------------------------------------------------------------------------------------------------


    POTLOK:  cpu time    0.7727: real time    0.7749


--------------------------------------------------------------------------------------------------------


     LOOP+:  cpu time  648.5227: real time  745.7939
    4ORBIT:  cpu time    0.0000: real time    0.0000

 total amount of memory used by VASP MPI-rank0   652120. kBytes
=======================================================================

   base      :      30000. kBytes
   nonlr-proj:      89899. kBytes
   fftplans  :      40601. kBytes
   grid      :      95147. kBytes
   one-center:       3950. kBytes
   wavefun   :     392523. kBytes
 
  
  
 General timing and accounting informations for this job:
 ========================================================
  
                  Total CPU time used (sec):      662.872
                            User time (sec):       90.130
                          System time (sec):      572.742
                         Elapsed time (sec):      763.768
  
                   Maximum memory used (kb):     1001596.
                   Average memory used (kb):           0.
  
                          Minor page faults:     25381822
                          Major page faults:           34
                 Voluntary context switches:        17619
