   2   2   0   0
  0.1524312E+04  0.1450000E-08  0.1450000E-08  0.1450000E-08  0.5000000E-15
  1.000000000000000E-004
  CAR 
 NiAl                                    
      1.99107573    -29.98681067  301     -9.82741812      1.00000000
    -29.987  0.0000E+00  0.0000E+00
    -29.880  0.0000E+00  0.0000E+00
    -29.774  0.0000E+00  0.0000E+00
    -29.667  0.0000E+00  0.0000E+00
    -29.560  0.0000E+00  0.0000E+00
    -29.454  0.0000E+00  0.0000E+00
    -29.347  0.0000E+00  0.0000E+00
    -29.241  0.0000E+00  0.0000E+00
    -29.134  0.0000E+00  0.0000E+00
    -29.027  0.0000E+00  0.0000E+00
    -28.921  0.0000E+00  0.0000E+00
    -28.814  0.1771E-13  0.1887E-14
    -28.708  0.7578E-05  0.8078E-06
    -28.601  0.5163E+00  0.5504E-01
    -28.495  0.1569E+02  0.1727E+01
    -28.388  0.2560E+01  0.2000E+01
    -28.281  0.3692E-03  0.2000E+01
    -28.175  0.9684E-11  0.2000E+01
    -28.068  0.0000E+00  0.2000E+01
    -27.962  0.0000E+00  0.2000E+01
    -27.855  0.0000E+00  0.2000E+01
    -27.748  0.0000E+00  0.2000E+01
    -27.642  0.0000E+00  0.2000E+01
    -27.535  0.0000E+00  0.2000E+01
    -27.429  0.0000E+00  0.2000E+01
    -27.322  0.0000E+00  0.2000E+01
    -27.215  0.0000E+00  0.2000E+01
    -27.109  0.0000E+00  0.2000E+01
    -27.002  0.0000E+00  0.2000E+01
    -26.896  0.0000E+00  0.2000E+01
    -26.789  0.0000E+00  0.2000E+01
    -26.682  0.0000E+00  0.2000E+01
    -26.576  0.0000E+00  0.2000E+01
    -26.469  0.0000E+00  0.2000E+01
    -26.363  0.0000E+00  0.2000E+01
    -26.256  0.0000E+00  0.2000E+01
    -26.149  0.0000E+00  0.2000E+01
    -26.043  0.0000E+00  0.2000E+01
    -25.936  0.0000E+00  0.2000E+01
    -25.830  0.0000E+00  0.2000E+01
    -25.723  0.0000E+00  0.2000E+01
    -25.616  0.0000E+00  0.2000E+01
    -25.510  0.0000E+00  0.2000E+01
    -25.403  0.0000E+00  0.2000E+01
    -25.297  0.0000E+00  0.2000E+01
    -25.190  0.0000E+00  0.2000E+01
    -25.084  0.0000E+00  0.2000E+01
    -24.977  0.0000E+00  0.2000E+01
    -24.870  0.0000E+00  0.2000E+01
    -24.764  0.0000E+00  0.2000E+01
    -24.657  0.0000E+00  0.2000E+01
    -24.551  0.0000E+00  0.2000E+01
    -24.444  0.0000E+00  0.2000E+01
    -24.337  0.0000E+00  0.2000E+01
    -24.231  0.0000E+00  0.2000E+01
    -24.124  0.0000E+00  0.2000E+01
    -24.018  0.0000E+00  0.2000E+01
    -23.911  0.0000E+00  0.2000E+01
    -23.804  0.0000E+00  0.2000E+01
    -23.698  0.0000E+00  0.2000E+01
    -23.591  0.0000E+00  0.2000E+01
    -23.485  0.0000E+00  0.2000E+01
    -23.378  0.0000E+00  0.2000E+01
    -23.271  0.0000E+00  0.2000E+01
    -23.165  0.0000E+00  0.2000E+01
    -23.058  0.0000E+00  0.2000E+01
    -22.952  0.0000E+00  0.2000E+01
    -22.845  0.0000E+00  0.2000E+01
    -22.738  0.0000E+00  0.2000E+01
    -22.632  0.0000E+00  0.2000E+01
    -22.525  0.0000E+00  0.2000E+01
    -22.419  0.0000E+00  0.2000E+01
    -22.312  0.0000E+00  0.2000E+01
    -22.206  0.0000E+00  0.2000E+01
    -22.099  0.0000E+00  0.2000E+01
    -21.992  0.0000E+00  0.2000E+01
    -21.886  0.0000E+00  0.2000E+01
    -21.779  0.0000E+00  0.2000E+01
    -21.673  0.0000E+00  0.2000E+01
    -21.566  0.0000E+00  0.2000E+01
    -21.459  0.0000E+00  0.2000E+01
    -21.353  0.0000E+00  0.2000E+01
    -21.246  0.0000E+00  0.2000E+01
    -21.140  0.0000E+00  0.2000E+01
    -21.033  0.0000E+00  0.2000E+01
    -20.926  0.0000E+00  0.2000E+01
    -20.820  0.0000E+00  0.2000E+01
    -20.713  0.0000E+00  0.2000E+01
    -20.607  0.0000E+00  0.2000E+01
    -20.500  0.0000E+00  0.2000E+01
    -20.393  0.0000E+00  0.2000E+01
    -20.287  0.0000E+00  0.2000E+01
    -20.180  0.0000E+00  0.2000E+01
    -20.074  0.0000E+00  0.2000E+01
    -19.967  0.0000E+00  0.2000E+01
    -19.860  0.0000E+00  0.2000E+01
    -19.754  0.0000E+00  0.2000E+01
    -19.647  0.0000E+00  0.2000E+01
    -19.541  0.0000E+00  0.2000E+01
    -19.434  0.0000E+00  0.2000E+01
    -19.328  0.0000E+00  0.2000E+01
    -19.221  0.0000E+00  0.2000E+01
    -19.114  0.0000E+00  0.2000E+01
    -19.008  0.0000E+00  0.2000E+01
    -18.901  0.0000E+00  0.2000E+01
    -18.795  0.0000E+00  0.2000E+01
    -18.688  0.0000E+00  0.2000E+01
    -18.581  0.0000E+00  0.2000E+01
    -18.475  0.0000E+00  0.2000E+01
    -18.368  0.0000E+00  0.2000E+01
    -18.262  0.0000E+00  0.2000E+01
    -18.155  0.0000E+00  0.2000E+01
    -18.048  0.0000E+00  0.2000E+01
    -17.942  0.0000E+00  0.2000E+01
    -17.835  0.0000E+00  0.2000E+01
    -17.729  0.0000E+00  0.2000E+01
    -17.622  0.0000E+00  0.2000E+01
    -17.515  0.0000E+00  0.2000E+01
    -17.409  0.0000E+00  0.2000E+01
    -17.302  0.0000E+00  0.2000E+01
    -17.196  0.0000E+00  0.2000E+01
    -17.089  0.0000E+00  0.2000E+01
    -16.982  0.0000E+00  0.2000E+01
    -16.876  0.0000E+00  0.2000E+01
    -16.769  0.0000E+00  0.2000E+01
    -16.663  0.0000E+00  0.2000E+01
    -16.556  0.0000E+00  0.2000E+01
    -16.450  0.0000E+00  0.2000E+01
    -16.343  0.0000E+00  0.2000E+01
    -16.236  0.0000E+00  0.2000E+01
    -16.130  0.0000E+00  0.2000E+01
    -16.023  0.0000E+00  0.2000E+01
    -15.917  0.0000E+00  0.2000E+01
    -15.810  0.0000E+00  0.2000E+01
    -15.703  0.0000E+00  0.2000E+01
    -15.597  0.0000E+00  0.2000E+01
    -15.490  0.0000E+00  0.2000E+01
    -15.384  0.0000E+00  0.2000E+01
    -15.277  0.0000E+00  0.2000E+01
    -15.170  0.0000E+00  0.2000E+01
    -15.064  0.0000E+00  0.2000E+01
    -14.957  0.0000E+00  0.2000E+01
    -14.851  0.0000E+00  0.2000E+01
    -14.744  0.0000E+00  0.2000E+01
    -14.637  0.0000E+00  0.2000E+01
    -14.531  0.0000E+00  0.2000E+01
    -14.424  0.0000E+00  0.2000E+01
    -14.318  0.0000E+00  0.2000E+01
    -14.211  0.0000E+00  0.2000E+01
    -14.104  0.0000E+00  0.2000E+01
    -13.998  0.0000E+00  0.2000E+01
    -13.891  0.0000E+00  0.2000E+01
    -13.785  0.9047E-09  0.2000E+01
    -13.678  0.5114E-02  0.2001E+01
    -13.571  0.6168E+01  0.2658E+01
    -13.465  0.1249E+02  0.3990E+01
    -13.358  0.9478E-01  0.4000E+01
    -13.252  0.2165E-06  0.4000E+01
    -13.145  0.0000E+00  0.4000E+01
    -13.039  0.0000E+00  0.4000E+01
    -12.932  0.0000E+00  0.4000E+01
    -12.825  0.0000E+00  0.4000E+01
    -12.719  0.0000E+00  0.4000E+01
    -12.612  0.0000E+00  0.4000E+01
    -12.506  0.0000E+00  0.4000E+01
    -12.399  0.0000E+00  0.4000E+01
    -12.292  0.0000E+00  0.4000E+01
    -12.186  0.0000E+00  0.4000E+01
    -12.079  0.0000E+00  0.4000E+01
    -11.973  0.0000E+00  0.4000E+01
    -11.866  0.1288E-09  0.4000E+01
    -11.759  0.2257E-02  0.4000E+01
    -11.653  0.7619E+01  0.4812E+01
    -11.546  0.2936E+02  0.7942E+01
    -11.440  0.5430E+00  0.8000E+01
    -11.333  0.3755E-05  0.8000E+01
    -11.226  0.4166E-14  0.8000E+01
    -11.120  0.0000E+00  0.8000E+01
    -11.013  0.0000E+00  0.8000E+01
    -10.907  0.0000E+00  0.8000E+01
    -10.800  0.0000E+00  0.8000E+01
    -10.693  0.0000E+00  0.8000E+01
    -10.587  0.0000E+00  0.8000E+01
    -10.480  0.0000E+00  0.8000E+01
    -10.374  0.1042E-14  0.8000E+01
    -10.267  0.8152E-06  0.8000E+01
    -10.161  0.1822E+00  0.8019E+01
    -10.054  0.1391E+02  0.9502E+01
     -9.947  0.4670E+01  0.1000E+02
     -9.841  0.2083E-02  0.1000E+02
     -9.734  0.1859E-09  0.1000E+02
     -9.628  0.0000E+00  0.1000E+02
     -9.521  0.0000E+00  0.1000E+02
     -9.414  0.0000E+00  0.1000E+02
     -9.308  0.0000E+00  0.1000E+02
     -9.201  0.0000E+00  0.1000E+02
     -9.095  0.0000E+00  0.1000E+02
     -8.988  0.0000E+00  0.1000E+02
     -8.881  0.0000E+00  0.1000E+02
     -8.775  0.0000E+00  0.1000E+02
     -8.668  0.0000E+00  0.1000E+02
     -8.562  0.0000E+00  0.1000E+02
     -8.455  0.0000E+00  0.1000E+02
     -8.348  0.0000E+00  0.1000E+02
     -8.242  0.0000E+00  0.1000E+02
     -8.135  0.0000E+00  0.1000E+02
     -8.029  0.0000E+00  0.1000E+02
     -7.922  0.0000E+00  0.1000E+02
     -7.815  0.0000E+00  0.1000E+02
     -7.709  0.0000E+00  0.1000E+02
     -7.602  0.0000E+00  0.1000E+02
     -7.496  0.0000E+00  0.1000E+02
     -7.389  0.0000E+00  0.1000E+02
     -7.283  0.0000E+00  0.1000E+02
     -7.176  0.0000E+00  0.1000E+02
     -7.069  0.0000E+00  0.1000E+02
     -6.963  0.0000E+00  0.1000E+02
     -6.856  0.0000E+00  0.1000E+02
     -6.750  0.0000E+00  0.1000E+02
     -6.643  0.0000E+00  0.1000E+02
     -6.536  0.0000E+00  0.1000E+02
     -6.430  0.0000E+00  0.1000E+02
     -6.323  0.0000E+00  0.1000E+02
     -6.217  0.0000E+00  0.1000E+02
     -6.110  0.0000E+00  0.1000E+02
     -6.003  0.0000E+00  0.1000E+02
     -5.897  0.0000E+00  0.1000E+02
     -5.790  0.0000E+00  0.1000E+02
     -5.684  0.0000E+00  0.1000E+02
     -5.577  0.0000E+00  0.1000E+02
     -5.470  0.0000E+00  0.1000E+02
     -5.364  0.0000E+00  0.1000E+02
     -5.257  0.0000E+00  0.1000E+02
     -5.151  0.0000E+00  0.1000E+02
     -5.044  0.0000E+00  0.1000E+02
     -4.937  0.0000E+00  0.1000E+02
     -4.831  0.0000E+00  0.1000E+02
     -4.724  0.0000E+00  0.1000E+02
     -4.618  0.0000E+00  0.1000E+02
     -4.511  0.0000E+00  0.1000E+02
     -4.405  0.0000E+00  0.1000E+02
     -4.298  0.0000E+00  0.1000E+02
     -4.191  0.0000E+00  0.1000E+02
     -4.085  0.0000E+00  0.1000E+02
     -3.978  0.0000E+00  0.1000E+02
     -3.872  0.0000E+00  0.1000E+02
     -3.765  0.0000E+00  0.1000E+02
     -3.658  0.0000E+00  0.1000E+02
     -3.552  0.0000E+00  0.1000E+02
     -3.445  0.0000E+00  0.1000E+02
     -3.339  0.0000E+00  0.1000E+02
     -3.232  0.0000E+00  0.1000E+02
     -3.125  0.0000E+00  0.1000E+02
     -3.019  0.0000E+00  0.1000E+02
     -2.912  0.0000E+00  0.1000E+02
     -2.806  0.0000E+00  0.1000E+02
     -2.699  0.0000E+00  0.1000E+02
     -2.592  0.0000E+00  0.1000E+02
     -2.486  0.0000E+00  0.1000E+02
     -2.379  0.0000E+00  0.1000E+02
     -2.273  0.0000E+00  0.1000E+02
     -2.166  0.3958E-13  0.1000E+02
     -2.059  0.1634E-04  0.1000E+02
     -1.953  0.1068E+01  0.1011E+02
     -1.846  0.3146E+02  0.1347E+02
     -1.740  0.5000E+01  0.1400E+02
     -1.633  0.6927E-03  0.1400E+02
     -1.526  0.1740E-10  0.1400E+02
     -1.420  0.0000E+00  0.1400E+02
     -1.313  0.0000E+00  0.1400E+02
     -1.207  0.0000E+00  0.1400E+02
     -1.100  0.0000E+00  0.1400E+02
     -0.994  0.0000E+00  0.1400E+02
     -0.887  0.0000E+00  0.1400E+02
     -0.780  0.0000E+00  0.1400E+02
     -0.674  0.0000E+00  0.1400E+02
     -0.567  0.0000E+00  0.1400E+02
     -0.461  0.1167E-12  0.1400E+02
     -0.354  0.2477E-04  0.1400E+02
     -0.247  0.8682E+00  0.1409E+02
     -0.141  0.1618E+02  0.1582E+02
     -0.034  0.1713E+01  0.1600E+02
      0.072  0.1291E-03  0.1600E+02
      0.179  0.9263E-10  0.1600E+02
      0.286  0.1379E-02  0.1600E+02
      0.392  0.4085E+01  0.1644E+02
      0.499  0.2832E+02  0.1945E+02
      0.605  0.4189E+02  0.2392E+02
      0.712  0.7525E+00  0.2400E+02
      0.819  0.8251E-05  0.2400E+02
      0.925  0.1666E-13  0.2400E+02
      1.032  0.0000E+00  0.2400E+02
      1.138  0.0000E+00  0.2400E+02
      1.245  0.0000E+00  0.2400E+02
      1.352  0.0000E+00  0.2400E+02
      1.458  0.0000E+00  0.2400E+02
      1.565  0.0000E+00  0.2400E+02
      1.671  0.0000E+00  0.2400E+02
      1.778  0.0000E+00  0.2400E+02
      1.884  0.0000E+00  0.2400E+02
      1.991  0.0000E+00  0.2400E+02
