    2    2    1    1
  0.1524312E+04  0.1450000E-08  0.1450000E-08  0.1450000E-08  0.5000000E-15
  1.000000000000000E-004
  CAR 
 NiAl                                    
     10      1     12
 
  0.0000000E+00  0.0000000E+00  0.0000000E+00  0.1000000E+01
    1      -28.533270   1.000000
    2      -13.555847   1.000000
    3      -11.623456   1.000000
    4      -11.623456   1.000000
    5      -10.077885   1.000000
    6       -1.885553   0.000000
    7       -1.885553   0.000000
    8       -0.187905   0.000000
    9        0.419800   0.000000
   10        0.517146   0.000000
   11        0.517146   0.000000
   12        0.537535   0.000000
