       N       E                     dE             d eps       ncg     rms          rms(c)
DAV:   1     0.515953002499E+02    0.51595E+02   -0.16338E+03    36   0.233E+02
DAV:   2    -0.755017098955E+01   -0.59145E+02   -0.59145E+02    36   0.927E+01
DAV:   3    -0.171457708323E+02   -0.95956E+01   -0.95956E+01    24   0.405E+01
DAV:   4    -0.172519268457E+02   -0.10616E+00   -0.10616E+00    48   0.599E+00
DAV:   5    -0.172519448437E+02   -0.17998E-04   -0.17998E-04    24   0.690E-02    0.858E+00
DAV:   6    -0.166280172546E+02    0.62393E+00   -0.81738E-01    24   0.536E+00    0.514E+00
DAV:   7    -0.164931573237E+02    0.13486E+00   -0.72945E-01    36   0.502E+00    0.108E+00
DAV:   8    -0.164851888620E+02    0.79685E-02   -0.71562E-02    24   0.153E+00    0.154E-01
DAV:   9    -0.164853252039E+02   -0.13634E-03   -0.12278E-03    24   0.229E-01    0.929E-02
DAV:  10    -0.164866617636E+02   -0.13366E-02   -0.19476E-04    24   0.594E-02    0.483E-02
DAV:  11    -0.164873590626E+02   -0.69730E-03   -0.18010E-04    24   0.638E-02    0.254E-02
DAV:  12    -0.164883623089E+02   -0.10032E-02   -0.16993E-04    24   0.536E-02    0.402E-02
DAV:  13    -0.164884170380E+02   -0.54729E-04   -0.14589E-05    48   0.148E-02    0.172E-02
DAV:  14    -0.164887766923E+02   -0.35965E-03   -0.33248E-05    48   0.226E-02    0.139E-02
DAV:  15    -0.164888312442E+02   -0.54552E-04   -0.13489E-06    24   0.551E-03    0.656E-03
DAV:  16    -0.164889153898E+02   -0.84146E-04   -0.42899E-06    36   0.941E-03    0.155E-03
DAV:  17    -0.164889369413E+02   -0.21552E-04   -0.32438E-07    36   0.331E-03    0.808E-04
DAV:  18    -0.164889486886E+02   -0.11747E-04   -0.15073E-07    36   0.241E-03    0.843E-04
DAV:  19    -0.164889537704E+02   -0.50818E-05   -0.26308E-08    48   0.118E-03    0.467E-04
DAV:  20    -0.164889544652E+02   -0.69484E-06   -0.19264E-09    48   0.365E-04
   1 F= -.16488954E+02 E0= -.16488954E+02  d E =-.356806E-12
