 vasp.5.4.4.18Apr17-6-g9f103f2a35 (build May 02 2017 15:33:50) complex          
  
 executed on Intel-16.0.3.210-OMP date 2018.07.08  18:57:41
 running on    6 total cores
 distrk:  each k-point on    6 cores,    1 groups
 distr:  one band on NCORES_PER_BAND=   1 cores,    6 groups


--------------------------------------------------------------------------------------------------------


 INCAR:
 POTCAR:    PAW_PBE N 08Apr2002                   

 ----------------------------------------------------------------------------- 
|                                                                             |
|           W    W    AA    RRRRR   N    N  II  N    N   GGGG   !!!           |
|           W    W   A  A   R    R  NN   N  II  NN   N  G    G  !!!           |
|           W    W  A    A  R    R  N N  N  II  N N  N  G       !!!           |
|           W WW W  AAAAAA  RRRRR   N  N N  II  N  N N  G  GGG   !            |
|           WW  WW  A    A  R   R   N   NN  II  N   NN  G    G                |
|           W    W  A    A  R    R  N    N  II  N    N   GGGG   !!!           |
|                                                                             |
|      For optimal performance we recommend to set                            |
|        NCORE= 4 - approx SQRT( number of cores)                             |
|      NCORE specifies how many cores store one orbital (NPAR=cpu/NCORE).     |
|      This setting can  greatly improve the performance of VASP for DFT.     |
|      The default,   NCORE=1            might be grossly inefficient         |
|      on modern multi-core architectures or massively parallel machines.     |
|      Do your own testing !!!!                                               |
|      Unfortunately you need to use the default for GW and RPA calculations. |
|      (for HF NCORE is supported but not extensively tested yet)             |
|                                                                             |
 ----------------------------------------------------------------------------- 

 POTCAR:    PAW_PBE N 08Apr2002                   
   VRHFIN =N: s2p3                                                              
   LEXCH  = PE                                                                  
   EATOM  =   264.5486 eV,   19.4438 Ry                                         
                                                                                
   TITEL  = PAW_PBE N 08Apr2002                                                 
   LULTRA =        F    use ultrasoft PP ?                                      
   IUNSCR =        1    unscreen: 0-lin 1-nonlin 2-no                           
   RPACOR =    1.200    partial core radius                                     
   POMASS =   14.001; ZVAL   =    5.000    mass and valenz                      
   RCORE  =    1.500    outmost cutoff radius                                   
   RWIGS  =    1.400; RWIGS  =    0.741    wigner-seitz radius (au A)           
   ENMAX  =  400.000; ENMIN  =  300.000 eV                                      
   ICORE  =        2    local potential                                         
   LCOR   =        T    correct aug charges                                     
   LPAW   =        T    paw PP                                                  
   EAUG   =  627.112                                                            
   DEXC   =    0.000                                                            
   RMAX   =    1.529    core radius for proj-oper                               
   RAUG   =    1.300    factor for augmentation sphere                          
   RDEP   =    1.514    radius for radial grids                                 
   RDEPT  =    1.338    core radius for aug-charge                              
                                                                                
   Atomic configuration                                                         
    4 entries                                                                   
     n  l   j            E        occ.                                          
     1  0  0.50      -384.7179   2.0000                                         
     2  0  0.50       -18.5828   2.0000                                         
     2  1  0.50        -7.0898   3.0000                                         
     3  2  1.50        -6.8029   0.0000                                         
   Description                                                                  
     l       E           TYP  RCUT    TYP  RCUT                                 
     0    -18.5828119     23  1.200                                             
     0    -13.5018863     23  1.200                                             
     1     -7.0897853     23  1.500                                             
     1      9.5240782     23  1.500                                             
     2     -6.8029130      7  1.500                                             
  local pseudopotential read in
  partial core-charges read in
  partial kinetic energy density read in
  atomic valenz-charges read in
  non local Contribution for L=           0  read in
    real space projection operators read in
  non local Contribution for L=           0  read in
    real space projection operators read in
  non local Contribution for L=           1  read in
    real space projection operators read in
  non local Contribution for L=           1  read in
    real space projection operators read in
    PAW grid and wavefunctions read in
 
   number of l-projection  operators is LMAX  =           4
   number of lm-projection operators is LMMAX =           8
 

 ----------------------------------------------------------------------------- 
|                                                                             |
|  ADVICE TO THIS USER RUNNING 'VASP/VAMP'   (HEAR YOUR MASTER'S VOICE ...):  |
|                                                                             |
|      You have a (more or less) 'small supercell' and for smaller cells      |
|      it is recommended  to use the reciprocal-space projection scheme!      |
|      The real space optimization is not  efficient for small cells and it   |
|      is also less accurate ...                                              |
|      Therefore set LREAL=.FALSE. in the  INCAR file                         |
|                                                                             |
 ----------------------------------------------------------------------------- 

 Optimization of the real space projectors (new method)

 maximal supplied QI-value         = 25.13
 optimisation between [QCUT,QGAM] = [  8.80, 17.59] = [ 21.67, 86.68] Ry 
 Optimized for a Real-space Cutoff    2.14 Angstroem

   l    n(q)    QCUT    max X(q) W(low)/X(q) W(high)/X(q)  e(spline) 
   0     11     8.797    79.467    0.70E-04    0.19E-04    0.19E-05
   0     11     8.797    66.151    0.68E-04    0.18E-04    0.19E-05
   1     11     8.797     6.738    0.26E-03    0.11E-02    0.73E-05
   1     11     8.797     5.013    0.25E-03    0.11E-02    0.72E-05
  PAW_PBE N 08Apr2002                   :
 energy of atom  1       EATOM= -264.5486
 kinetic energy error for atom=    0.6882 (will be added to EATOM!!)
 
 
 POSCAR: New structure                           
  positions in cartesian coordinates
  No initial velocities read in
 exchange correlation table for  LEXCH =        8
   RHO(1)=    0.500       N(1)  =     2000
   RHO(2)=  100.500       N(2)  =     4000
 


--------------------------------------------------------------------------------------------------------


 ion  position               nearest neighbor table
   1  0.000  0.000  0.000-   2 1.10
   2  0.076  0.000  0.000-   1 1.10
 
  LATTYP: Found a simple cubic cell.
 ALAT       =    14.5000000000
  
  Lattice vectors:
  
 A1 = (  14.5000000000,   0.0000000000,   0.0000000000)
 A2 = (   0.0000000000,  14.5000000000,   0.0000000000)
 A3 = (   0.0000000000,   0.0000000000,  14.5000000000)


Analysis of symmetry for initial positions (statically):
=====================================================================
 Subroutine PRICEL returns:
 Original cell was already a primitive cell.
 

 Routine SETGRP: Setting up the symmetry group for a 
 simple cubic supercell.


 Subroutine GETGRP returns: Found 16 space group operations
 (whereof  8 operations were pure point group operations)
 out of a pool of 48 trial point group operations.


The static configuration has the point symmetry C_4v.
 The point group associated with its full space group is D_4h.


Analysis of symmetry for dynamics (positions and initial velocities):
=====================================================================
 Subroutine PRICEL returns:
 Original cell was already a primitive cell.
 

 Routine SETGRP: Setting up the symmetry group for a 
 simple cubic supercell.


 Subroutine GETGRP returns: Found 16 space group operations
 (whereof  8 operations were pure point group operations)
 out of a pool of 48 trial point group operations.


The dynamic configuration has the point symmetry C_4v.
 The point group associated with its full space group is D_4h.


 Subroutine INISYM returns: Found 16 space group operations
 (whereof  8 operations are pure point group operations),
 and found     1 'primitive' translations

 
 
 KPOINTS: Automatic generation                    

Automatic generation of k-mesh.
Space group operators:
 irot       det(A)        alpha          n_x          n_y          n_z        tau_x        tau_y        tau_z
    1     1.000000     0.000000     1.000000     0.000000     0.000000     0.000000     0.000000     0.000000
    2    -1.000000   180.000000     0.000000     0.707107     0.707107     0.000000     0.000000     0.000000
    3    -1.000000   180.000000     0.000000     0.000000     1.000000     0.000000     0.000000     0.000000
    4     1.000000    90.000000    -1.000000     0.000000     0.000000     0.000000     0.000000     0.000000
    5     1.000000   180.000000     1.000000     0.000000     0.000000     0.000000     0.000000     0.000000
    6     1.000000    90.000000     1.000000     0.000000     0.000000     0.000000     0.000000     0.000000
    7    -1.000000   180.000000     0.000000     1.000000     0.000000     0.000000     0.000000     0.000000
    8    -1.000000   180.000000     0.000000    -0.707107     0.707107     0.000000     0.000000     0.000000
    9    -1.000000     0.000000     1.000000     0.000000     0.000000     0.075862     0.000000     0.000000
   10     1.000000   180.000000     0.000000     0.707107     0.707107     0.075862     0.000000     0.000000
   11     1.000000   180.000000     0.000000     0.000000     1.000000     0.075862     0.000000     0.000000
   12    -1.000000    90.000000    -1.000000     0.000000     0.000000     0.075862     0.000000     0.000000
   13    -1.000000   180.000000     1.000000     0.000000     0.000000     0.075862     0.000000     0.000000
   14    -1.000000    90.000000     1.000000     0.000000     0.000000     0.075862     0.000000     0.000000
   15     1.000000   180.000000     0.000000     1.000000     0.000000     0.075862     0.000000     0.000000
   16     1.000000   180.000000     0.000000    -0.707107     0.707107     0.075862     0.000000     0.000000
 
 Subroutine IBZKPT returns following result:
 ===========================================
 
 Found      1 irreducible k-points:
 
 Following reciprocal coordinates:
            Coordinates               Weight
  0.000000  0.000000  0.000000      1.000000
 
 Following cartesian coordinates:
            Coordinates               Weight
  0.000000  0.000000  0.000000      1.000000
 


--------------------------------------------------------------------------------------------------------




 Dimension of arrays:
   k-points           NKPTS =      1   k-points in BZ     NKDIM =      1   number of bands    NBANDS=     12
   number of dos      NEDOS =    301   number of ions     NIONS =      2
   non local maximal  LDIM  =      4   non local SUM 2l+1 LMDIM =      8
   total plane-waves  NPLWV = 262144
   max r-space proj   IRMAX =   3591   max aug-charges    IRDMAX=   1258
   dimension x,y,z NGX =    64 NGY =   64 NGZ =   64
   dimension x,y,z NGXF=   128 NGYF=  128 NGZF=  128
   support grid    NGXF=   128 NGYF=  128 NGZF=  128
   ions per type =               2
   NGX,Y,Z   is equivalent  to a cutoff of   7.34,  7.34,  7.34 a.u.
   NGXF,Y,Z  is equivalent  to a cutoff of  14.68, 14.68, 14.68 a.u.

 SYSTEM =  NiAl                                    
 POSCAR =  New structure                           

 Startparameter for this run:
   NWRITE =      2    write-flag & timer
   PREC   = normal    normal or accurate (medium, high low for compatibility)
   ISTART =      0    job   : 0-new  1-cont  2-samecut
   ICHARG =      2    charge: 1-file 2-atom 10-const
   ISPIN  =      1    spin polarized calculation?
   LNONCOLLINEAR =      F non collinear calculations
   LSORBIT =      F    spin-orbit coupling
   INIWAV =      1    electr: 0-lowe 1-rand  2-diag
   LASPH  =      F    aspherical Exc in radial PAW
   METAGGA=      F    non-selfconsistent MetaGGA calc.

 Electronic Relaxation 1
   ENCUT  =  300.0 eV  22.05 Ry    4.70 a.u.  20.48 20.48 20.48*2*pi/ulx,y,z
   ENINI  =  300.0     initial cutoff
   ENAUG  =  627.1 eV  augmentation charge cutoff
   NELM   =     60;   NELMIN=  6; NELMDL= -5     # of ELM steps 
   EDIFF  = 0.5E-05   stopping-criterion for ELM
   LREAL  =      T    real-space projection
   NLSPLINE    = F    spline interpolate recip. space projectors
   LCOMPAT=      F    compatible to vasp.4.4
   GGA_COMPAT  = T    GGA compatible to vasp.4.4-vasp.4.6
   LMAXPAW     = -100 max onsite density
   LMAXMIX     =    2 max onsite mixed and CHGCAR
   VOSKOWN=      0    Vosko Wilk Nusair interpolation
   ROPT   =   -0.00050
 Ionic relaxation
   EDIFFG = 0.5E-04   stopping-criterion for IOM
   NSW    =      0    number of steps for IOM
   NBLOCK =      1;   KBLOCK =      1    inner block; outer block 
   IBRION =     -1    ionic relax: 0-MD 1-quasi-New 2-CG
   NFREE  =      0    steps in history (QN), initial steepest desc. (CG)
   ISIF   =      2    stress and relaxation
   IWAVPR =     10    prediction:  0-non 1-charg 2-wave 3-comb
   ISYM   =      2    0-nonsym 1-usesym 2-fastsym
   LCORR  =      T    Harris-Foulkes like correction to forces

   POTIM  = 0.5000    time-step for ionic-motion
   TEIN   =    0.0    initial temperature
   TEBEG  =    0.0;   TEEND  =   0.0 temperature during run
   SMASS  =  -3.00    Nose mass-parameter (am)
   estimated Nose-frequenzy (Omega)   =  0.10E-29 period in steps =****** mass=  -0.480E-26a.u.
   SCALEE = 1.0000    scale energy and forces
   NPACO  =    256;   APACO  = 16.0  distance and # of slots for P.C.
   PSTRESS=    0.0 pullay stress

  Mass of Ions in am
   POMASS =  14.00
  Ionic Valenz
   ZVAL   =   5.00
  Atomic Wigner-Seitz radii
   RWIGS  =  -1.00
  virtual crystal weights 
   VCA    =   1.00
   NELECT =      10.0000    total number of electrons
   NUPDOWN=      -1.0000    fix difference up-down

 DOS related values:
   EMIN   =  10.00;   EMAX   =-10.00  energy-range for DOS
   EFERMI =   0.00
   ISMEAR =     0;   SIGMA  =   0.05  broadening in eV -4-tet -1-fermi 0-gaus

 Electronic relaxation 2 (details)
   IALGO  =     38    algorithm
   LDIAG  =      T    sub-space diagonalisation (order eigenvalues)
   LSUBROT=      F    optimize rotation matrix (better conditioning)
   TURBO    =      0    0=normal 1=particle mesh
   IRESTART =      0    0=no restart 2=restart with 2 vectors
   NREBOOT  =      0    no. of reboots
   NMIN     =      0    reboot dimension
   EREF     =   0.00    reference energy to select bands
   IMIX   =      4    mixing-type and parameters
     AMIX     =   0.40;   BMIX     =  1.00
     AMIX_MAG =   1.60;   BMIX_MAG =  1.00
     AMIN     =   0.10
     WC   =   100.;   INIMIX=   1;  MIXPRE=   1;  MAXMIX= -45

 Intra band minimization:
   WEIMIN = 0.0000     energy-eigenvalue tresh-hold
   EBREAK =  0.10E-06  absolut break condition
   DEPER  =   0.30     relativ break condition  

   TIME   =   0.40     timestep for ELM

  volume/ion in A,a.u.               =    1524.31     10286.57
  Fermi-wavevector in a.u.,A,eV,Ry     =   0.243243  0.459662  0.805017  0.059167
  Thomas-Fermi vector in A             =   1.051657
 
 Write flags
   LWAVE        =      F    write WAVECAR
   LDOWNSAMPLE  =      F    k-point downsampling of WAVECAR
   LCHARG       =      F    write CHGCAR
   LVTOT        =      F    write LOCPOT, total local potential
   LVHAR        =      F    write LOCPOT, Hartree potential only
   LELF         =      F    write electronic localiz. function (ELF)
   LORBIT       =      0    0 simple, 1 ext, 2 COOP (PROOUT), +10 PAW based schemes


 Dipole corrections
   LMONO  =      F    monopole corrections only (constant potential shift)
   LDIPOL =      F    correct potential (dipole corrections)
   IDIPOL =      0    1-x, 2-y, 3-z, 4-all directions 
   EPSILON=  1.0000000 bulk dielectric constant

 Exchange correlation treatment:
   GGA     =    --    GGA type
   LEXCH   =     8    internal setting for exchange type
   VOSKOWN=      0    Vosko Wilk Nusair interpolation
   LHFCALC =     F    Hartree Fock is set to
   LHFONE  =     F    Hartree Fock one center treatment
   AEXX    =    0.0000 exact exchange contribution

 Linear response parameters
   LEPSILON=     F    determine dielectric tensor
   LRPA    =     F    only Hartree local field effects (RPA)
   LNABLA  =     F    use nabla operator in PAW spheres
   LVEL    =     F    velocity operator in full k-point grid
   LINTERFAST=   F  fast interpolation
   KINTER  =     0    interpolate to denser k-point grid
   CSHIFT  =0.1000    complex shift for real part using Kramers Kronig
   OMEGAMAX=  -1.0    maximum frequency
   DEG_THRESHOLD= 0.2000000E-02 threshold for treating states as degnerate
   RTIME   =   -0.100 relaxation time in fs
  (WPLASMAI=    0.000 imaginary part of plasma frequency in eV, 0.658/RTIME)
   DFIELD  = 0.0000000 0.0000000 0.0000000 field for delta impulse in time
 
 Orbital magnetization related:
   ORBITALMAG=     F  switch on orbital magnetization
   LCHIMAG   =     F  perturbation theory with respect to B field
   DQ        =  0.001000  dq finite difference perturbation B field
   LLRAUG    =     F  two centre corrections for induced B field



--------------------------------------------------------------------------------------------------------


 Static calculation
 charge density and potential will be updated during run
 non-spin polarized calculation
 Variant of blocked Davidson
 Davidson routine will perform the subspace rotation
 perform sub-space diagonalisation
    after iterative eigenvector-optimisation
 modified Broyden-mixing scheme, WC =      100.0
 initial mixing is a Kerker type mixing with AMIX =  0.4000 and BMIX =      1.0000
 Hartree-type preconditioning will be used
 using additional bands            7
 real space projection scheme for non local part
 use partial core corrections
 calculate Harris-corrections to forces 
   (improved forces if not selfconsistent)
 use gradient corrections 
 use of overlap-Matrix (Vanderbilt PP)
 Gauss-broadening in eV      SIGMA  =   0.05


--------------------------------------------------------------------------------------------------------


  energy-cutoff  :      300.00
  volume of cell :     3048.62
      direct lattice vectors                 reciprocal lattice vectors
    14.500000000  0.000000000  0.000000000     0.068965517  0.000000000  0.000000000
     0.000000000 14.500000000  0.000000000     0.000000000  0.068965517  0.000000000
     0.000000000  0.000000000 14.500000000     0.000000000  0.000000000  0.068965517

  length of vectors
    14.500000000 14.500000000 14.500000000     0.068965517  0.068965517  0.068965517


 
 k-points in units of 2pi/SCALE and weight: Automatic generation                    
   0.00000000  0.00000000  0.00000000       1.000
 
 k-points in reciprocal lattice and weights: Automatic generation                    
   0.00000000  0.00000000  0.00000000       1.000
 
 position of ions in fractional coordinates (direct lattice) 
   0.00000000  0.00000000  0.00000000
   0.07586207  0.00000000  0.00000000
 
 position of ions in cartesian coordinates  (Angst):
   0.00000000  0.00000000  0.00000000
   1.10000000  0.00000000  0.00000000
 


--------------------------------------------------------------------------------------------------------


 k-point  1 :   0.0000 0.0000 0.0000  plane waves:   36041

 maximum and minimum number of plane-waves per node :     36041    36041

 maximum number of plane-waves:     36041
 maximum index in each direction: 
   IXMAX=   20   IYMAX=   20   IZMAX=   20
   IXMIN=  -20   IYMIN=  -20   IZMIN=  -20


 serial   3D FFT for wavefunctions
 parallel 3D FFT for charge:
    minimum data exchange during FFTs selected (reduces bandwidth)


 total amount of memory used by VASP MPI-rank0    73050. kBytes
=======================================================================

   base      :      30000. kBytes
   nonlr-proj:        601. kBytes
   fftplans  :      13257. kBytes
   grid      :      28033. kBytes
   one-center:          6. kBytes
   wavefun   :       1153. kBytes
 
     INWAV:  cpu time    0.0000: real time    0.0000
 Broyden mixing: mesh for mixing (old mesh)
   NGX = 41   NGY = 41   NGZ = 41
  (NGX  =128   NGY  =128   NGZ  =128)
  gives a total of  68921 points

 initial charge density was supplied:
 charge density of overlapping atoms calculated
 number of electron      10.0000000 magnetization 
 keeping initial charge density in first step


--------------------------------------------------------------------------------------------------------


 Maximum index for non-local projection operator         3431
 Maximum index for augmentation-charges          239 (set IRDMAX)


--------------------------------------------------------------------------------------------------------


 First call to EWALD:  gamma=   0.122
 Maximum number of real-space cells 3x 3x 3
 Maximum number of reciprocal cells 3x 3x 3

    FEWALD:  cpu time    0.0019: real time    0.0019


----------------------------------------- Iteration    1(   1)  ---------------------------------------


    POTLOK:  cpu time    0.1984: real time    0.1989
    SETDIJ:  cpu time    0.0022: real time    0.0022
     EDDAV:  cpu time    0.0673: real time    0.1441
       DOS:  cpu time    0.0002: real time    0.0002
    --------------------------------------------
      LOOP:  cpu time    0.2702: real time    0.3641

 eigenvalue-minimisations  :    36
 total energy-change (2. order) : 0.5159530E+02  (-0.1633831E+03)
 number of electron      10.0000000 magnetization 
 augmentation part       10.0000000 magnetization 

 Free energy of the ion-electron system (eV)
  ---------------------------------------------------
  alpha Z        PSCENC =         0.14136994
  Ewald energy   TEWEN  =       186.68528490
  -Hartree energ DENC   =      -596.94163561
  -exchange      EXHF   =         0.00000000
  -V(xc)+E(xc)   XCENC  =        38.06365820
  PAW double counting   =       409.86546322     -412.24743141
  entropy T*S    EENTRO =        -0.00000000
  eigenvalues    EBANDS =      -101.69213618
  atomic energy  EATOM  =       527.72072720
  Solvation  Ediel_sol  =         0.00000000
  ---------------------------------------------------
  free energy    TOTEN  =        51.59530025 eV

  energy without entropy =       51.59530025  energy(sigma->0) =       51.59530025


--------------------------------------------------------------------------------------------------------




----------------------------------------- Iteration    1(   2)  ---------------------------------------


     EDDAV:  cpu time    0.0759: real time    0.1447
       DOS:  cpu time    0.0006: real time    0.0006
    --------------------------------------------
      LOOP:  cpu time    0.0779: real time    0.1479

 eigenvalue-minimisations  :    36
 total energy-change (2. order) :-0.5914547E+02  (-0.5914547E+02)
 number of electron      10.0000000 magnetization 
 augmentation part       10.0000000 magnetization 

 Free energy of the ion-electron system (eV)
  ---------------------------------------------------
  alpha Z        PSCENC =         0.14136994
  Ewald energy   TEWEN  =       186.68528490
  -Hartree energ DENC   =      -596.94163561
  -exchange      EXHF   =         0.00000000
  -V(xc)+E(xc)   XCENC  =        38.06365820
  PAW double counting   =       409.86546322     -412.24743141
  entropy T*S    EENTRO =        -0.00000000
  eigenvalues    EBANDS =      -160.83760742
  atomic energy  EATOM  =       527.72072720
  Solvation  Ediel_sol  =         0.00000000
  ---------------------------------------------------
  free energy    TOTEN  =        -7.55017099 eV

  energy without entropy =       -7.55017099  energy(sigma->0) =       -7.55017099


--------------------------------------------------------------------------------------------------------




----------------------------------------- Iteration    1(   3)  ---------------------------------------


     EDDAV:  cpu time    0.0594: real time    0.1241
       DOS:  cpu time    0.0001: real time    0.0001
    --------------------------------------------
      LOOP:  cpu time    0.0609: real time    0.1267

 eigenvalue-minimisations  :    24
 total energy-change (2. order) :-0.9595600E+01  (-0.9595600E+01)
 number of electron      10.0000000 magnetization 
 augmentation part       10.0000000 magnetization 

 Free energy of the ion-electron system (eV)
  ---------------------------------------------------
  alpha Z        PSCENC =         0.14136994
  Ewald energy   TEWEN  =       186.68528490
  -Hartree energ DENC   =      -596.94163561
  -exchange      EXHF   =         0.00000000
  -V(xc)+E(xc)   XCENC  =        38.06365820
  PAW double counting   =       409.86546322     -412.24743141
  entropy T*S    EENTRO =        -0.00000000
  eigenvalues    EBANDS =      -170.43320726
  atomic energy  EATOM  =       527.72072720
  Solvation  Ediel_sol  =         0.00000000
  ---------------------------------------------------
  free energy    TOTEN  =       -17.14577083 eV

  energy without entropy =      -17.14577083  energy(sigma->0) =      -17.14577083


--------------------------------------------------------------------------------------------------------




----------------------------------------- Iteration    1(   4)  ---------------------------------------


     EDDAV:  cpu time    0.0752: real time    0.1437
       DOS:  cpu time    0.0002: real time    0.0002
    --------------------------------------------
      LOOP:  cpu time    0.0768: real time    0.1464

 eigenvalue-minimisations  :    48
 total energy-change (2. order) :-0.1061560E+00  (-0.1061560E+00)
 number of electron      10.0000000 magnetization 
 augmentation part       10.0000000 magnetization 

 Free energy of the ion-electron system (eV)
  ---------------------------------------------------
  alpha Z        PSCENC =         0.14136994
  Ewald energy   TEWEN  =       186.68528490
  -Hartree energ DENC   =      -596.94163561
  -exchange      EXHF   =         0.00000000
  -V(xc)+E(xc)   XCENC  =        38.06365820
  PAW double counting   =       409.86546322     -412.24743141
  entropy T*S    EENTRO =        -0.00000000
  eigenvalues    EBANDS =      -170.53936328
  atomic energy  EATOM  =       527.72072720
  Solvation  Ediel_sol  =         0.00000000
  ---------------------------------------------------
  free energy    TOTEN  =       -17.25192685 eV

  energy without entropy =      -17.25192685  energy(sigma->0) =      -17.25192685


--------------------------------------------------------------------------------------------------------




----------------------------------------- Iteration    1(   5)  ---------------------------------------


     EDDAV:  cpu time    0.0460: real time    0.1187
       DOS:  cpu time    0.0005: real time    0.0005
    CHARGE:  cpu time    0.0608: real time    0.0738
    MIXING:  cpu time    0.0099: real time    0.0099
    --------------------------------------------
      LOOP:  cpu time    0.1187: real time    0.2055

 eigenvalue-minimisations  :    24
 total energy-change (2. order) :-0.1799798E-04  (-0.1799798E-04)
 number of electron      10.0000037 magnetization 
 augmentation part        0.3964174 magnetization 

 Broyden mixing:
  rms(total) = 0.85772E+00    rms(broyden)= 0.85453E+00
  rms(prec ) = 0.89402E+00
  weight for this iteration     100.00

 Free energy of the ion-electron system (eV)
  ---------------------------------------------------
  alpha Z        PSCENC =         0.14136994
  Ewald energy   TEWEN  =       186.68528490
  -Hartree energ DENC   =      -596.94163561
  -exchange      EXHF   =         0.00000000
  -V(xc)+E(xc)   XCENC  =        38.06365820
  PAW double counting   =       409.86546322     -412.24743141
  entropy T*S    EENTRO =        -0.00000000
  eigenvalues    EBANDS =      -170.53938127
  atomic energy  EATOM  =       527.72072720
  Solvation  Ediel_sol  =         0.00000000
  ---------------------------------------------------
  free energy    TOTEN  =       -17.25194484 eV

  energy without entropy =      -17.25194484  energy(sigma->0) =      -17.25194484


--------------------------------------------------------------------------------------------------------




----------------------------------------- Iteration    1(   6)  ---------------------------------------


    POTLOK:  cpu time    0.1909: real time    0.1916
    SETDIJ:  cpu time    0.0015: real time    0.0015
     EDDAV:  cpu time    0.0513: real time    0.1223
       DOS:  cpu time    0.0005: real time    0.0005
    CHARGE:  cpu time    0.0576: real time    0.0578
    MIXING:  cpu time    0.0088: real time    0.0090
    --------------------------------------------
      LOOP:  cpu time    0.3129: real time    0.3861

 eigenvalue-minimisations  :    24
 total energy-change (2. order) : 0.6239276E+00  (-0.8173774E-01)
 number of electron      10.0000035 magnetization 
 augmentation part        0.3797497 magnetization 

 Broyden mixing:
  rms(total) = 0.51380E+00    rms(broyden)= 0.51360E+00
  rms(prec ) = 0.52888E+00
  weight for this iteration     100.00

 eigenvalues of (default mixing * dielectric matrix)
  average eigenvalue GAMMA=   2.2845
  2.2845

 Free energy of the ion-electron system (eV)
  ---------------------------------------------------
  alpha Z        PSCENC =         0.14136994
  Ewald energy   TEWEN  =       186.68528490
  -Hartree energ DENC   =      -607.60651912
  -exchange      EXHF   =         0.00000000
  -V(xc)+E(xc)   XCENC  =        38.71617491
  PAW double counting   =       597.91706114     -600.48715966
  entropy T*S    EENTRO =        -0.00000000
  eigenvalues    EBANDS =      -159.71495657
  atomic energy  EATOM  =       527.72072720
  Solvation  Ediel_sol  =         0.00000000
  ---------------------------------------------------
  free energy    TOTEN  =       -16.62801725 eV

  energy without entropy =      -16.62801725  energy(sigma->0) =      -16.62801725


--------------------------------------------------------------------------------------------------------




----------------------------------------- Iteration    1(   7)  ---------------------------------------


    POTLOK:  cpu time    0.1959: real time    0.2005
    SETDIJ:  cpu time    0.0015: real time    0.0015
     EDDAV:  cpu time    0.0617: real time    0.1279
       DOS:  cpu time    0.0002: real time    0.0002
    CHARGE:  cpu time    0.0570: real time    0.0610
    MIXING:  cpu time    0.0099: real time    0.0099
    --------------------------------------------
      LOOP:  cpu time    0.3282: real time    0.4049

 eigenvalue-minimisations  :    36
 total energy-change (2. order) : 0.1348599E+00  (-0.7294533E-01)
 number of electron      10.0000033 magnetization 
 augmentation part        0.3633929 magnetization 

 Broyden mixing:
  rms(total) = 0.10819E+00    rms(broyden)= 0.10810E+00
  rms(prec ) = 0.11399E+00
  weight for this iteration     100.00

 eigenvalues of (default mixing * dielectric matrix)
  average eigenvalue GAMMA=   2.0545
  1.7402  2.3689

 Free energy of the ion-electron system (eV)
  ---------------------------------------------------
  alpha Z        PSCENC =         0.14136994
  Ewald energy   TEWEN  =       186.68528490
  -Hartree energ DENC   =      -617.88533707
  -exchange      EXHF   =         0.00000000
  -V(xc)+E(xc)   XCENC  =        39.32875884
  PAW double counting   =       931.52415180     -934.31352217
  entropy T*S    EENTRO =        -0.00000000
  eigenvalues    EBANDS =      -149.69459076
  atomic energy  EATOM  =       527.72072720
  Solvation  Ediel_sol  =         0.00000000
  ---------------------------------------------------
  free energy    TOTEN  =       -16.49315732 eV

  energy without entropy =      -16.49315732  energy(sigma->0) =      -16.49315732


--------------------------------------------------------------------------------------------------------




----------------------------------------- Iteration    1(   8)  ---------------------------------------


    POTLOK:  cpu time    0.2014: real time    0.2017
    SETDIJ:  cpu time    0.0016: real time    0.0016
     EDDAV:  cpu time    0.0441: real time    0.1135
       DOS:  cpu time    0.0004: real time    0.0004
    CHARGE:  cpu time    0.0572: real time    0.0574
    MIXING:  cpu time    0.0099: real time    0.0099
    --------------------------------------------
      LOOP:  cpu time    0.3166: real time    0.3877

 eigenvalue-minimisations  :    24
 total energy-change (2. order) : 0.7968462E-02  (-0.7156231E-02)
 number of electron      10.0000033 magnetization 
 augmentation part        0.3668133 magnetization 

 Broyden mixing:
  rms(total) = 0.15416E-01    rms(broyden)= 0.15314E-01
  rms(prec ) = 0.17367E-01
  weight for this iteration     100.00

 eigenvalues of (default mixing * dielectric matrix)
  average eigenvalue GAMMA=   1.5575
  2.3688  1.6533  0.6503

 Free energy of the ion-electron system (eV)
  ---------------------------------------------------
  alpha Z        PSCENC =         0.14136994
  Ewald energy   TEWEN  =       186.68528490
  -Hartree energ DENC   =      -615.51587311
  -exchange      EXHF   =         0.00000000
  -V(xc)+E(xc)   XCENC  =        39.18517155
  PAW double counting   =       987.88833563     -990.66254202
  entropy T*S    EENTRO =        -0.00000000
  eigenvalues    EBANDS =      -151.92766294
  atomic energy  EATOM  =       527.72072720
  Solvation  Ediel_sol  =         0.00000000
  ---------------------------------------------------
  free energy    TOTEN  =       -16.48518886 eV

  energy without entropy =      -16.48518886  energy(sigma->0) =      -16.48518886


--------------------------------------------------------------------------------------------------------




----------------------------------------- Iteration    1(   9)  ---------------------------------------


    POTLOK:  cpu time    0.1995: real time    0.1998
    SETDIJ:  cpu time    0.0015: real time    0.0015
     EDDAV:  cpu time    0.0450: real time    0.1170
       DOS:  cpu time    0.0001: real time    0.0001
    CHARGE:  cpu time    0.0588: real time    0.0590
    MIXING:  cpu time    0.0101: real time    0.0101
    --------------------------------------------
      LOOP:  cpu time    0.3170: real time    0.3907

 eigenvalue-minimisations  :    24
 total energy-change (2. order) :-0.1363419E-03  (-0.1227815E-03)
 number of electron      10.0000033 magnetization 
 augmentation part        0.3662766 magnetization 

 Broyden mixing:
  rms(total) = 0.92945E-02    rms(broyden)= 0.92936E-02
  rms(prec ) = 0.11017E-01
  weight for this iteration     100.00

 eigenvalues of (default mixing * dielectric matrix)
  average eigenvalue GAMMA=   1.7157
  2.0742  2.0742  1.3572  1.3572

 Free energy of the ion-electron system (eV)
  ---------------------------------------------------
  alpha Z        PSCENC =         0.14136994
  Ewald energy   TEWEN  =       186.68528490
  -Hartree energ DENC   =      -615.92580827
  -exchange      EXHF   =         0.00000000
  -V(xc)+E(xc)   XCENC  =        39.20674467
  PAW double counting   =       985.73071658     -988.50693720
  entropy T*S    EENTRO =        -0.00000000
  eigenvalues    EBANDS =      -151.53742301
  atomic energy  EATOM  =       527.72072720
  Solvation  Ediel_sol  =         0.00000000
  ---------------------------------------------------
  free energy    TOTEN  =       -16.48532520 eV

  energy without entropy =      -16.48532520  energy(sigma->0) =      -16.48532520


--------------------------------------------------------------------------------------------------------




----------------------------------------- Iteration    1(  10)  ---------------------------------------


    POTLOK:  cpu time    0.1966: real time    0.1972
    SETDIJ:  cpu time    0.0019: real time    0.0019
     EDDAV:  cpu time    0.0507: real time    0.1161
       DOS:  cpu time    0.0034: real time    0.0036
    CHARGE:  cpu time    0.0579: real time    0.0580
    MIXING:  cpu time    0.0100: real time    0.0100
    --------------------------------------------
      LOOP:  cpu time    0.3229: real time    0.3906

 eigenvalue-minimisations  :    24
 total energy-change (2. order) :-0.1336560E-02  (-0.1947584E-04)
 number of electron      10.0000033 magnetization 
 augmentation part        0.3661480 magnetization 

 Broyden mixing:
  rms(total) = 0.48294E-02    rms(broyden)= 0.48293E-02
  rms(prec ) = 0.61787E-02
  weight for this iteration     100.00

 eigenvalues of (default mixing * dielectric matrix)
  average eigenvalue GAMMA=   1.7976
  2.9879  2.3972  1.5895  1.0068  1.0068

 Free energy of the ion-electron system (eV)
  ---------------------------------------------------
  alpha Z        PSCENC =         0.14136994
  Ewald energy   TEWEN  =       186.68528490
  -Hartree energ DENC   =      -616.19633972
  -exchange      EXHF   =         0.00000000
  -V(xc)+E(xc)   XCENC  =        39.21492751
  PAW double counting   =       978.32117453     -981.09373215
  entropy T*S    EENTRO =        -0.00000000
  eigenvalues    EBANDS =      -151.28007397
  atomic energy  EATOM  =       527.72072720
  Solvation  Ediel_sol  =         0.00000000
  ---------------------------------------------------
  free energy    TOTEN  =       -16.48666176 eV

  energy without entropy =      -16.48666176  energy(sigma->0) =      -16.48666176


--------------------------------------------------------------------------------------------------------




----------------------------------------- Iteration    1(  11)  ---------------------------------------


    POTLOK:  cpu time    0.1984: real time    0.1991
    SETDIJ:  cpu time    0.0015: real time    0.0015
     EDDAV:  cpu time    0.0467: real time    0.1167
       DOS:  cpu time    0.0002: real time    0.0002
    CHARGE:  cpu time    0.0579: real time    0.0613
    MIXING:  cpu time    0.0109: real time    0.0109
    --------------------------------------------
      LOOP:  cpu time    0.3175: real time    0.3928

 eigenvalue-minimisations  :    24
 total energy-change (2. order) :-0.6972990E-03  (-0.1801004E-04)
 number of electron      10.0000033 magnetization 
 augmentation part        0.3659746 magnetization 

 Broyden mixing:
  rms(total) = 0.25437E-02    rms(broyden)= 0.25435E-02
  rms(prec ) = 0.33700E-02
  weight for this iteration     100.00

 eigenvalues of (default mixing * dielectric matrix)
  average eigenvalue GAMMA=   1.8751
  2.7992  2.3355  2.3355  0.9469  1.4168  1.4168

 Free energy of the ion-electron system (eV)
  ---------------------------------------------------
  alpha Z        PSCENC =         0.14136994
  Ewald energy   TEWEN  =       186.68528490
  -Hartree energ DENC   =      -616.48031478
  -exchange      EXHF   =         0.00000000
  -V(xc)+E(xc)   XCENC  =        39.22621105
  PAW double counting   =       980.66006355     -983.43331251
  entropy T*S    EENTRO =        -0.00000000
  eigenvalues    EBANDS =      -151.00738841
  atomic energy  EATOM  =       527.72072720
  Solvation  Ediel_sol  =         0.00000000
  ---------------------------------------------------
  free energy    TOTEN  =       -16.48735906 eV

  energy without entropy =      -16.48735906  energy(sigma->0) =      -16.48735906


--------------------------------------------------------------------------------------------------------




----------------------------------------- Iteration    1(  12)  ---------------------------------------


    POTLOK:  cpu time    0.1941: real time    0.1953
    SETDIJ:  cpu time    0.0015: real time    0.0015
     EDDAV:  cpu time    0.0458: real time    0.1142
       DOS:  cpu time    0.0002: real time    0.0002
    CHARGE:  cpu time    0.0585: real time    0.0589
    MIXING:  cpu time    0.0114: real time    0.0114
    --------------------------------------------
      LOOP:  cpu time    0.3133: real time    0.3845

 eigenvalue-minimisations  :    24
 total energy-change (2. order) :-0.1003246E-02  (-0.1699347E-04)
 number of electron      10.0000033 magnetization 
 augmentation part        0.3659874 magnetization 

 Broyden mixing:
  rms(total) = 0.40222E-02    rms(broyden)= 0.40220E-02
  rms(prec ) = 0.41360E-02
  weight for this iteration     100.00

 eigenvalues of (default mixing * dielectric matrix)
  average eigenvalue GAMMA=   2.0220
  4.5579  2.5836  2.3959  1.5130  1.0367  1.0335  1.0335

 Free energy of the ion-electron system (eV)
  ---------------------------------------------------
  alpha Z        PSCENC =         0.14136994
  Ewald energy   TEWEN  =       186.68528490
  -Hartree energ DENC   =      -616.57241982
  -exchange      EXHF   =         0.00000000
  -V(xc)+E(xc)   XCENC  =        39.22500382
  PAW double counting   =       984.06696868     -986.84121688
  entropy T*S    EENTRO =        -0.00000000
  eigenvalues    EBANDS =      -150.91408014
  atomic energy  EATOM  =       527.72072720
  Solvation  Ediel_sol  =         0.00000000
  ---------------------------------------------------
  free energy    TOTEN  =       -16.48836231 eV

  energy without entropy =      -16.48836231  energy(sigma->0) =      -16.48836231


--------------------------------------------------------------------------------------------------------




----------------------------------------- Iteration    1(  13)  ---------------------------------------


    POTLOK:  cpu time    0.1941: real time    0.1945
    SETDIJ:  cpu time    0.0016: real time    0.0016
     EDDAV:  cpu time    0.0744: real time    0.1564
       DOS:  cpu time    0.0002: real time    0.0002
    CHARGE:  cpu time    0.0620: real time    0.0621
    MIXING:  cpu time    0.0117: real time    0.0118
    --------------------------------------------
      LOOP:  cpu time    0.3466: real time    0.4304

 eigenvalue-minimisations  :    48
 total energy-change (2. order) :-0.5472912E-04  (-0.1458940E-05)
 number of electron      10.0000033 magnetization 
 augmentation part        0.3659634 magnetization 

 Broyden mixing:
  rms(total) = 0.17161E-02    rms(broyden)= 0.17161E-02
  rms(prec ) = 0.18605E-02
  weight for this iteration     100.00

 eigenvalues of (default mixing * dielectric matrix)
  average eigenvalue GAMMA=   2.2942
  5.5798  2.8255  2.8255  2.3799  1.4670  1.2863  1.0452  0.9448

 Free energy of the ion-electron system (eV)
  ---------------------------------------------------
  alpha Z        PSCENC =         0.14136994
  Ewald energy   TEWEN  =       186.68528490
  -Hartree energ DENC   =      -616.62788440
  -exchange      EXHF   =         0.00000000
  -V(xc)+E(xc)   XCENC  =        39.22651485
  PAW double counting   =       982.39295927     -985.16656928
  entropy T*S    EENTRO =        -0.00000000
  eigenvalues    EBANDS =      -150.86081952
  atomic energy  EATOM  =       527.72072720
  Solvation  Ediel_sol  =         0.00000000
  ---------------------------------------------------
  free energy    TOTEN  =       -16.48841704 eV

  energy without entropy =      -16.48841704  energy(sigma->0) =      -16.48841704


--------------------------------------------------------------------------------------------------------




----------------------------------------- Iteration    1(  14)  ---------------------------------------


    POTLOK:  cpu time    0.1911: real time    0.1917
    SETDIJ:  cpu time    0.0015: real time    0.0015
     EDDAV:  cpu time    0.0747: real time    0.1526
       DOS:  cpu time    0.0006: real time    0.0006
    CHARGE:  cpu time    0.0602: real time    0.0603
    MIXING:  cpu time    0.0119: real time    0.0119
    --------------------------------------------
      LOOP:  cpu time    0.3420: real time    0.4219

 eigenvalue-minimisations  :    48
 total energy-change (2. order) :-0.3596542E-03  (-0.3324776E-05)
 number of electron      10.0000033 magnetization 
 augmentation part        0.3659385 magnetization 

 Broyden mixing:
  rms(total) = 0.13943E-02    rms(broyden)= 0.13942E-02
  rms(prec ) = 0.14231E-02
  weight for this iteration     100.00

 eigenvalues of (default mixing * dielectric matrix)
  average eigenvalue GAMMA=   2.1901
  5.9370  3.3986  2.5164  2.3040  1.4812  1.1525  1.1525  0.9845  0.7843

 Free energy of the ion-electron system (eV)
  ---------------------------------------------------
  alpha Z        PSCENC =         0.14136994
  Ewald energy   TEWEN  =       186.68528490
  -Hartree energ DENC   =      -616.66713805
  -exchange      EXHF   =         0.00000000
  -V(xc)+E(xc)   XCENC  =        39.22676792
  PAW double counting   =       980.56909358     -983.34223080
  entropy T*S    EENTRO =        -0.00000000
  eigenvalues    EBANDS =      -150.82265138
  atomic energy  EATOM  =       527.72072720
  Solvation  Ediel_sol  =         0.00000000
  ---------------------------------------------------
  free energy    TOTEN  =       -16.48877669 eV

  energy without entropy =      -16.48877669  energy(sigma->0) =      -16.48877669


--------------------------------------------------------------------------------------------------------




----------------------------------------- Iteration    1(  15)  ---------------------------------------


    POTLOK:  cpu time    0.1931: real time    0.1935
    SETDIJ:  cpu time    0.0016: real time    0.0016
     EDDAV:  cpu time    0.0462: real time    0.1174
       DOS:  cpu time    0.0006: real time    0.0006
    CHARGE:  cpu time    0.0597: real time    0.0598
    MIXING:  cpu time    0.0132: real time    0.0135
    --------------------------------------------
      LOOP:  cpu time    0.3162: real time    0.4099

 eigenvalue-minimisations  :    24
 total energy-change (2. order) :-0.5455190E-04  (-0.1348911E-06)
 number of electron      10.0000033 magnetization 
 augmentation part        0.3659364 magnetization 

 Broyden mixing:
  rms(total) = 0.65599E-03    rms(broyden)= 0.65598E-03
  rms(prec ) = 0.68410E-03
  weight for this iteration     100.00

 eigenvalues of (default mixing * dielectric matrix)
  average eigenvalue GAMMA=   2.4466
  7.3596  4.2499  2.7269  2.4471  1.8880  1.4348  1.4348  0.9901  0.9901  0.9442

 Free energy of the ion-electron system (eV)
  ---------------------------------------------------
  alpha Z        PSCENC =         0.14136994
  Ewald energy   TEWEN  =       186.68528490
  -Hartree energ DENC   =      -616.66073021
  -exchange      EXHF   =         0.00000000
  -V(xc)+E(xc)   XCENC  =        39.22630693
  PAW double counting   =       981.02449097     -983.79777328
  entropy T*S    EENTRO =        -0.00000000
  eigenvalues    EBANDS =      -150.82850768
  atomic energy  EATOM  =       527.72072720
  Solvation  Ediel_sol  =         0.00000000
  ---------------------------------------------------
  free energy    TOTEN  =       -16.48883124 eV

  energy without entropy =      -16.48883124  energy(sigma->0) =      -16.48883124


--------------------------------------------------------------------------------------------------------




----------------------------------------- Iteration    1(  16)  ---------------------------------------


    POTLOK:  cpu time    0.1943: real time    0.1951
    SETDIJ:  cpu time    0.0015: real time    0.0015
     EDDAV:  cpu time    0.0581: real time    0.1287
       DOS:  cpu time    0.0007: real time    0.0007
    CHARGE:  cpu time    0.0580: real time    0.0582
    MIXING:  cpu time    0.0133: real time    0.0134
    --------------------------------------------
      LOOP:  cpu time    0.3279: real time    0.4007

 eigenvalue-minimisations  :    36
 total energy-change (2. order) :-0.8414559E-04  (-0.4289934E-06)
 number of electron      10.0000033 magnetization 
 augmentation part        0.3659415 magnetization 

 Broyden mixing:
  rms(total) = 0.15466E-03    rms(broyden)= 0.15455E-03
  rms(prec ) = 0.17341E-03
  weight for this iteration     100.00

 eigenvalues of (default mixing * dielectric matrix)
  average eigenvalue GAMMA=   2.5024
  8.0410  4.4795  2.8600  2.2763  2.2763  1.6457  1.4883  1.4883  1.0427  0.9640
  0.9640

 Free energy of the ion-electron system (eV)
  ---------------------------------------------------
  alpha Z        PSCENC =         0.14136994
  Ewald energy   TEWEN  =       186.68528490
  -Hartree energ DENC   =      -616.65666518
  -exchange      EXHF   =         0.00000000
  -V(xc)+E(xc)   XCENC  =        39.22591125
  PAW double counting   =       981.47086371     -984.24418790
  entropy T*S    EENTRO =        -0.00000000
  eigenvalues    EBANDS =      -150.83221931
  atomic energy  EATOM  =       527.72072720
  Solvation  Ediel_sol  =         0.00000000
  ---------------------------------------------------
  free energy    TOTEN  =       -16.48891539 eV

  energy without entropy =      -16.48891539  energy(sigma->0) =      -16.48891539


--------------------------------------------------------------------------------------------------------




----------------------------------------- Iteration    1(  17)  ---------------------------------------


    POTLOK:  cpu time    0.1973: real time    0.1977
    SETDIJ:  cpu time    0.0015: real time    0.0015
     EDDAV:  cpu time    0.0607: real time    0.1364
       DOS:  cpu time    0.0001: real time    0.0001
    CHARGE:  cpu time    0.0601: real time    0.0604
    MIXING:  cpu time    0.0129: real time    0.0129
    --------------------------------------------
      LOOP:  cpu time    0.3345: real time    0.4122

 eigenvalue-minimisations  :    36
 total energy-change (2. order) :-0.2155153E-04  (-0.3243817E-07)
 number of electron      10.0000033 magnetization 
 augmentation part        0.3659381 magnetization 

 Broyden mixing:
  rms(total) = 0.80788E-04    rms(broyden)= 0.80740E-04
  rms(prec ) = 0.93684E-04
  weight for this iteration     100.00

 eigenvalues of (default mixing * dielectric matrix)
  average eigenvalue GAMMA=   2.5796
  8.7410  5.1190  3.4408  2.6280  2.4174  1.7349  1.4470  1.4470  1.0292  1.0292
  0.9608  0.9608

 Free energy of the ion-electron system (eV)
  ---------------------------------------------------
  alpha Z        PSCENC =         0.14136994
  Ewald energy   TEWEN  =       186.68528490
  -Hartree energ DENC   =      -616.66151646
  -exchange      EXHF   =         0.00000000
  -V(xc)+E(xc)   XCENC  =        39.22611815
  PAW double counting   =       981.43583523     -984.20919743
  entropy T*S    EENTRO =        -0.00000000
  eigenvalues    EBANDS =      -150.82755847
  atomic energy  EATOM  =       527.72072720
  Solvation  Ediel_sol  =         0.00000000
  ---------------------------------------------------
  free energy    TOTEN  =       -16.48893694 eV

  energy without entropy =      -16.48893694  energy(sigma->0) =      -16.48893694


--------------------------------------------------------------------------------------------------------




----------------------------------------- Iteration    1(  18)  ---------------------------------------


    POTLOK:  cpu time    0.2042: real time    0.2046
    SETDIJ:  cpu time    0.0016: real time    0.0016
     EDDAV:  cpu time    0.0637: real time    0.1386
       DOS:  cpu time    0.0003: real time    0.0003
    CHARGE:  cpu time    0.0566: real time    0.0570
    MIXING:  cpu time    0.0132: real time    0.0132
    --------------------------------------------
      LOOP:  cpu time    0.3416: real time    0.4185

 eigenvalue-minimisations  :    36
 total energy-change (2. order) :-0.1174734E-04  (-0.1507284E-07)
 number of electron      10.0000033 magnetization 
 augmentation part        0.3659418 magnetization 

 Broyden mixing:
  rms(total) = 0.84349E-04    rms(broyden)= 0.84338E-04
  rms(prec ) = 0.87219E-04
  weight for this iteration     100.00

 eigenvalues of (default mixing * dielectric matrix)
  average eigenvalue GAMMA=   2.6288
  8.8883  5.2953  3.7432  2.8320  2.3593  2.3593  1.8091  1.4252  1.4252  1.0864
  0.9561  0.9973  0.9973

 Free energy of the ion-electron system (eV)
  ---------------------------------------------------
  alpha Z        PSCENC =         0.14136994
  Ewald energy   TEWEN  =       186.68528490
  -Hartree energ DENC   =      -616.65990973
  -exchange      EXHF   =         0.00000000
  -V(xc)+E(xc)   XCENC  =        39.22598563
  PAW double counting   =       981.44192311     -984.21526507
  entropy T*S    EENTRO =        -0.00000000
  eigenvalues    EBANDS =      -150.82906467
  atomic energy  EATOM  =       527.72072720
  Solvation  Ediel_sol  =         0.00000000
  ---------------------------------------------------
  free energy    TOTEN  =       -16.48894869 eV

  energy without entropy =      -16.48894869  energy(sigma->0) =      -16.48894869


--------------------------------------------------------------------------------------------------------




----------------------------------------- Iteration    1(  19)  ---------------------------------------


    POTLOK:  cpu time    0.2093: real time    0.2098
    SETDIJ:  cpu time    0.0015: real time    0.0015
     EDDAV:  cpu time    0.0799: real time    0.1588
       DOS:  cpu time    0.0006: real time    0.0006
    CHARGE:  cpu time    0.0566: real time    0.0577
    MIXING:  cpu time    0.0142: real time    0.0143
    --------------------------------------------
      LOOP:  cpu time    0.3643: real time    0.4462

 eigenvalue-minimisations  :    48
 total energy-change (2. order) :-0.5081768E-05  (-0.2630848E-08)
 number of electron      10.0000033 magnetization 
 augmentation part        0.3659408 magnetization 

 Broyden mixing:
  rms(total) = 0.46687E-04    rms(broyden)= 0.46686E-04
  rms(prec ) = 0.47845E-04
  weight for this iteration     100.00

 eigenvalues of (default mixing * dielectric matrix)
  average eigenvalue GAMMA=   2.6016
  9.1553  5.5429  4.2439  2.9360  2.6007  2.4204  1.7457  1.4400  1.4400  1.0096
  0.9599  0.9599  0.9842  0.9842

 Free energy of the ion-electron system (eV)
  ---------------------------------------------------
  alpha Z        PSCENC =         0.14136994
  Ewald energy   TEWEN  =       186.68528490
  -Hartree energ DENC   =      -616.66111876
  -exchange      EXHF   =         0.00000000
  -V(xc)+E(xc)   XCENC  =        39.22604984
  PAW double counting   =       981.36465997     -984.13798620
  entropy T*S    EENTRO =        -0.00000000
  eigenvalues    EBANDS =      -150.82794064
  atomic energy  EATOM  =       527.72072720
  Solvation  Ediel_sol  =         0.00000000
  ---------------------------------------------------
  free energy    TOTEN  =       -16.48895377 eV

  energy without entropy =      -16.48895377  energy(sigma->0) =      -16.48895377


--------------------------------------------------------------------------------------------------------




----------------------------------------- Iteration    1(  20)  ---------------------------------------


    POTLOK:  cpu time    0.2117: real time    0.2171
    SETDIJ:  cpu time    0.0015: real time    0.0015
     EDDAV:  cpu time    0.0745: real time    0.1542
       DOS:  cpu time    0.0001: real time    0.0001
    --------------------------------------------
      LOOP:  cpu time    0.2895: real time    0.3777

 eigenvalue-minimisations  :    48
 total energy-change (2. order) :-0.6948416E-06  (-0.1926352E-09)
 number of electron      10.0000033 magnetization 
 augmentation part        0.3659408 magnetization 

 Free energy of the ion-electron system (eV)
  ---------------------------------------------------
  alpha Z        PSCENC =         0.14136994
  Ewald energy   TEWEN  =       186.68528490
  -Hartree energ DENC   =      -616.66123738
  -exchange      EXHF   =         0.00000000
  -V(xc)+E(xc)   XCENC  =        39.22605531
  PAW double counting   =       981.35933506     -984.13266037
  entropy T*S    EENTRO =        -0.00000000
  eigenvalues    EBANDS =      -150.82782912
  atomic energy  EATOM  =       527.72072720
  Solvation  Ediel_sol  =         0.00000000
  ---------------------------------------------------
  free energy    TOTEN  =       -16.48895447 eV

  energy without entropy =      -16.48895447  energy(sigma->0) =      -16.48895447


--------------------------------------------------------------------------------------------------------




 average (electrostatic) potential at core
  the test charge radii are     0.7089
  (the norm of the test charge is              1.0000)
       1 -76.5090       2 -76.5086
 
 
 
 E-fermi :  -9.8274     XC(G=0):  -0.2871     alpha+bet : -0.0570


 k-point     1 :       0.0000    0.0000    0.0000
  band No.  band energies     occupation 
      1     -28.5333      2.00000
      2     -13.5558      2.00000
      3     -11.6235      2.00000
      4     -11.6235      2.00000
      5     -10.0779      2.00000
      6      -1.8856      0.00000
      7      -1.8856      0.00000
      8      -0.1879      0.00000
      9       0.4198      0.00000
     10       0.5171      0.00000
     11       0.5171      0.00000
     12       0.5375      0.00000


--------------------------------------------------------------------------------------------------------


 soft charge-density along one line, spin component           1
         0         1         2         3         4         5         6         7         8         9
 total charge-density along one line
 
 pseudopotential strength for first ion, spin component:           1
 14.274  17.147  -0.000  -0.000  -0.017  -0.000  -0.000  -0.047
 17.147  20.600  -0.000  -0.000  -0.022  -0.000  -0.000  -0.058
 -0.000  -0.000  -7.599   0.000  -0.000 -10.591   0.000  -0.000
 -0.000  -0.000   0.000  -7.599  -0.000   0.000 -10.591  -0.000
 -0.017  -0.022  -0.000  -0.000  -7.674  -0.000  -0.000 -10.714
 -0.000  -0.000 -10.591   0.000  -0.000 -14.120   0.000  -0.000
 -0.000  -0.000   0.000 -10.591  -0.000   0.000 -14.120  -0.000
 -0.047  -0.058  -0.000  -0.000 -10.714  -0.000  -0.000 -14.316
 total augmentation occupancy for first ion, spin component:           1
 10.439  -5.581   0.000   0.000   2.724   0.000   0.000  -0.790
 -5.581   3.381  -0.000  -0.000  -2.230   0.000  -0.000   0.565
  0.000  -0.000   1.362   0.000   0.000  -0.134   0.000   0.000
  0.000  -0.000   0.000   1.362  -0.000   0.000  -0.134  -0.000
  2.724  -2.230   0.000  -0.000   2.424   0.000  -0.000  -0.388
  0.000   0.000  -0.134   0.000   0.000   0.013   0.000   0.000
  0.000  -0.000   0.000  -0.134   0.000   0.000   0.013   0.000
 -0.790   0.565   0.000  -0.000  -0.388   0.000  -0.000   0.158


------------------------ aborting loop because EDIFF is reached ----------------------------------------


    CHARGE:  cpu time    0.0564: real time    0.0581
    FORLOC:  cpu time    0.0093: real time    0.0093
    FORNL :  cpu time    0.0209: real time    0.0931
    STRESS:  cpu time    0.0836: real time    0.3073
    FORCOR:  cpu time    0.2168: real time    0.2172
    FORHAR:  cpu time    0.0510: real time    0.0510
    MIXING:  cpu time    0.0147: real time    0.0147
    OFIELD:  cpu time    0.0001: real time    0.0001

  FORCE on cell =-STRESS in cart. coord.  units (eV):
  Direction    XX          YY          ZZ          XY          YZ          ZX
  --------------------------------------------------------------------------------------
  Alpha Z     0.14137     0.14137     0.14137
  Ewald     280.91038   -47.11256   -47.11256    -0.00000     0.00000    -0.00000
  Hartree   282.88778   166.88632   166.88632    -0.00000    -0.00000    -0.00000
  E(xc)     -41.08097   -42.31769   -42.31769    -0.00000     0.00000     0.00000
  Local    -674.18164  -261.35454  -261.35454     0.00000     0.00000    -0.00000
  n-local   -27.70035   -15.62249   -15.62249     0.00000     0.00000     0.00000
  augment     1.61117     1.38307     1.38307     0.00000     0.00000    -0.00000
  Kinetic   174.86620   192.77362   192.77362    -0.00000     0.00000    -0.00000
  Fock        0.00000     0.00000     0.00000     0.00000     0.00000     0.00000
  -------------------------------------------------------------------------------------
  Total      -2.54607    -5.22291    -5.22291     0.00000    -0.00000     0.00000
  in kB      -1.33806    -2.74485    -2.74485     0.00000    -0.00000     0.00000
  external pressure =       -2.28 kB  Pullay stress =        0.00 kB


 VOLUME and BASIS-vectors are now :
 -----------------------------------------------------------------------------
  energy-cutoff  :      300.00
  volume of cell :     3048.62
      direct lattice vectors                 reciprocal lattice vectors
    14.500000000  0.000000000  0.000000000     0.068965517  0.000000000  0.000000000
     0.000000000 14.500000000  0.000000000     0.000000000  0.068965517  0.000000000
     0.000000000  0.000000000 14.500000000     0.000000000  0.000000000  0.068965517

  length of vectors
    14.500000000 14.500000000 14.500000000     0.068965517  0.068965517  0.068965517


 FORCES acting on ions
    electron-ion (+dipol)            ewald-force                    non-local-force                 convergence-correction
 -----------------------------------------------------------------------------------------------
   0.249E+03 -.242E-15 -.409E-14   -.297E+03 0.191E-16 -.114E-16   0.447E+02 0.606E-27 -.434E-26   0.146E-03 -.420E-13 -.275E-13
   -.249E+03 -.543E-15 -.246E-04   0.297E+03 0.689E-17 0.149E-16   -.447E+02 0.242E-26 0.323E-26   -.146E-03 -.323E-13 -.196E-13
 -----------------------------------------------------------------------------------------------
   -.658E-03 -.785E-15 -.246E-04   0.000E+00 0.260E-16 0.345E-17   -.142E-13 0.303E-26 -.111E-26   0.106E-07 -.743E-13 -.471E-13
 
 
 POSITION                                       TOTAL-FORCE (eV/Angst)
 -----------------------------------------------------------------------------------
      0.00000      0.00000      0.00000        -3.442879     -0.000000      0.000000
      1.10000      0.00000      0.00000         3.442879      0.000000     -0.000000
 -----------------------------------------------------------------------------------
    total drift:                               -0.000658     -0.000000     -0.000025


--------------------------------------------------------------------------------------------------------



  FREE ENERGIE OF THE ION-ELECTRON SYSTEM (eV)
  ---------------------------------------------------
  free  energy   TOTEN  =       -16.48895447 eV

  energy  without entropy=      -16.48895447  energy(sigma->0) =      -16.48895447
 


--------------------------------------------------------------------------------------------------------


    POTLOK:  cpu time    0.2130: real time    0.2132


--------------------------------------------------------------------------------------------------------


     LOOP+:  cpu time    6.1702: real time    8.0464
    4ORBIT:  cpu time    0.0001: real time    0.0149

 total amount of memory used by VASP MPI-rank0    73050. kBytes
=======================================================================

   base      :      30000. kBytes
   nonlr-proj:        601. kBytes
   fftplans  :      13257. kBytes
   grid      :      28033. kBytes
   one-center:          6. kBytes
   wavefun   :       1153. kBytes
 
  
  
 General timing and accounting informations for this job:
 ========================================================
  
                  Total CPU time used (sec):        7.742
                            User time (sec):        3.018
                          System time (sec):        4.723
                         Elapsed time (sec):       14.577
  
                   Maximum memory used (kb):      348516.
                   Average memory used (kb):           0.
  
                          Minor page faults:       376940
                          Major page faults:            1
                 Voluntary context switches:         3072
