 253 253   0   0
  0.2277282E+02  0.1514622E-08  0.1514622E-08  0.2900000E-08  0.2000000E-15
  1.000000000000000E-004
  CAR 
 NiAl                                    
      5.85634448    -16.95887837  301     -0.59183595      1.00000000
    -16.959  0.0000E+00  0.0000E+00
    -16.883  0.0000E+00  0.0000E+00
    -16.807  0.0000E+00  0.0000E+00
    -16.731  0.0000E+00  0.0000E+00
    -16.655  0.0000E+00  0.0000E+00
    -16.579  0.0000E+00  0.0000E+00
    -16.503  0.0000E+00  0.0000E+00
    -16.427  0.0000E+00  0.0000E+00
    -16.350  0.0000E+00  0.0000E+00
    -16.274  0.0000E+00  0.0000E+00
    -16.198  0.1706E-14  0.1298E-15
    -16.122  0.4658E-08  0.3543E-09
    -16.046  0.1417E-03  0.1078E-04
    -15.970  0.5605E-01  0.4273E-02
    -15.894  0.4585E+00  0.3914E-01
    -15.818  0.1417E+00  0.4992E-01
    -15.742  0.1104E-02  0.5000E-01
    -15.666  0.1216E-06  0.5000E-01
    -15.590  0.1531E-12  0.5000E-01
    -15.514  0.0000E+00  0.5000E-01
    -15.438  0.0000E+00  0.5000E-01
    -15.362  0.0000E+00  0.5000E-01
    -15.286  0.0000E+00  0.5000E-01
    -15.210  0.0000E+00  0.5000E-01
    -15.134  0.0000E+00  0.5000E-01
    -15.058  0.0000E+00  0.5000E-01
    -14.982  0.0000E+00  0.5000E-01
    -14.906  0.0000E+00  0.5000E-01
    -14.829  0.0000E+00  0.5000E-01
    -14.753  0.0000E+00  0.5000E-01
    -14.677  0.0000E+00  0.5000E-01
    -14.601  0.0000E+00  0.5000E-01
    -14.525  0.0000E+00  0.5000E-01
    -14.449  0.0000E+00  0.5000E-01
    -14.373  0.0000E+00  0.5000E-01
    -14.297  0.0000E+00  0.5000E-01
    -14.221  0.0000E+00  0.5000E-01
    -14.145  0.0000E+00  0.5000E-01
    -14.069  0.0000E+00  0.5000E-01
    -13.993  0.0000E+00  0.5000E-01
    -13.917  0.0000E+00  0.5000E-01
    -13.841  0.0000E+00  0.5000E-01
    -13.765  0.0000E+00  0.5000E-01
    -13.689  0.0000E+00  0.5000E-01
    -13.613  0.0000E+00  0.5000E-01
    -13.537  0.0000E+00  0.5000E-01
    -13.461  0.0000E+00  0.5000E-01
    -13.384  0.0000E+00  0.5000E-01
    -13.308  0.0000E+00  0.5000E-01
    -13.232  0.0000E+00  0.5000E-01
    -13.156  0.0000E+00  0.5000E-01
    -13.080  0.0000E+00  0.5000E-01
    -13.004  0.0000E+00  0.5000E-01
    -12.928  0.0000E+00  0.5000E-01
    -12.852  0.0000E+00  0.5000E-01
    -12.776  0.0000E+00  0.5000E-01
    -12.700  0.0000E+00  0.5000E-01
    -12.624  0.0000E+00  0.5000E-01
    -12.548  0.0000E+00  0.5000E-01
    -12.472  0.0000E+00  0.5000E-01
    -12.396  0.0000E+00  0.5000E-01
    -12.320  0.0000E+00  0.5000E-01
    -12.244  0.0000E+00  0.5000E-01
    -12.168  0.0000E+00  0.5000E-01
    -12.092  0.0000E+00  0.5000E-01
    -12.016  0.0000E+00  0.5000E-01
    -11.940  0.0000E+00  0.5000E-01
    -11.863  0.0000E+00  0.5000E-01
    -11.787  0.0000E+00  0.5000E-01
    -11.711  0.0000E+00  0.5000E-01
    -11.635  0.0000E+00  0.5000E-01
    -11.559  0.0000E+00  0.5000E-01
    -11.483  0.0000E+00  0.5000E-01
    -11.407  0.0000E+00  0.5000E-01
    -11.331  0.0000E+00  0.5000E-01
    -11.255  0.0000E+00  0.5000E-01
    -11.179  0.0000E+00  0.5000E-01
    -11.103  0.0000E+00  0.5000E-01
    -11.027  0.0000E+00  0.5000E-01
    -10.951  0.0000E+00  0.5000E-01
    -10.875  0.0000E+00  0.5000E-01
    -10.799  0.0000E+00  0.5000E-01
    -10.723  0.0000E+00  0.5000E-01
    -10.647  0.0000E+00  0.5000E-01
    -10.571  0.0000E+00  0.5000E-01
    -10.495  0.0000E+00  0.5000E-01
    -10.419  0.0000E+00  0.5000E-01
    -10.342  0.0000E+00  0.5000E-01
    -10.266  0.0000E+00  0.5000E-01
    -10.190  0.0000E+00  0.5000E-01
    -10.114  0.0000E+00  0.5000E-01
    -10.038  0.0000E+00  0.5000E-01
     -9.962  0.0000E+00  0.5000E-01
     -9.886  0.0000E+00  0.5000E-01
     -9.810  0.0000E+00  0.5000E-01
     -9.734  0.0000E+00  0.5000E-01
     -9.658  0.0000E+00  0.5000E-01
     -9.582  0.0000E+00  0.5000E-01
     -9.506  0.0000E+00  0.5000E-01
     -9.430  0.0000E+00  0.5000E-01
     -9.354  0.2509E-14  0.5000E-01
     -9.278  0.4260E-08  0.5000E-01
     -9.202  0.8121E-04  0.5001E-01
     -9.126  0.2072E-01  0.5158E-01
     -9.050  0.1178E+00  0.6054E-01
     -8.974  0.2599E-01  0.6252E-01
     -8.897  0.1079E+00  0.7073E-01
     -8.821  0.7001E+00  0.1240E+00
     -8.745  0.1768E+00  0.1374E+00
     -8.669  0.1165E-02  0.1375E+00
     -8.593  0.1775E-01  0.1389E+00
     -8.517  0.1175E+00  0.1478E+00
     -8.441  0.1551E+00  0.1596E+00
     -8.365  0.8299E+00  0.2227E+00
     -8.289  0.8462E+00  0.2871E+00
     -8.213  0.3410E+00  0.3130E+00
     -8.137  0.7005E+00  0.3663E+00
     -8.061  0.1145E+00  0.3750E+00
     -7.985  0.2950E-02  0.3752E+00
     -7.909  0.2380E+00  0.3933E+00
     -7.833  0.6680E+00  0.4441E+00
     -7.757  0.1149E+00  0.4528E+00
     -7.681  0.5001E+00  0.4909E+00
     -7.605  0.6241E+00  0.5383E+00
     -7.529  0.1400E+01  0.6448E+00
     -7.453  0.1436E+01  0.7540E+00
     -7.376  0.1111E+00  0.7625E+00
     -7.300  0.3968E-03  0.7625E+00
     -7.224  0.7362E-02  0.7631E+00
     -7.148  0.4418E+00  0.7967E+00
     -7.072  0.1813E+01  0.9346E+00
     -6.996  0.1559E+01  0.1053E+01
     -6.920  0.3504E+00  0.1080E+01
     -6.844  0.6164E+00  0.1127E+01
     -6.768  0.1571E+00  0.1139E+01
     -6.692  0.5112E+00  0.1178E+01
     -6.616  0.6244E+00  0.1225E+01
     -6.540  0.6982E+00  0.1278E+01
     -6.464  0.1132E+01  0.1364E+01
     -6.388  0.1522E+01  0.1480E+01
     -6.312  0.1943E+01  0.1628E+01
     -6.236  0.9093E+00  0.1697E+01
     -6.160  0.6468E+00  0.1746E+01
     -6.084  0.1330E+01  0.1847E+01
     -6.008  0.1451E+01  0.1957E+01
     -5.932  0.2061E+01  0.2114E+01
     -5.855  0.1823E+01  0.2253E+01
     -5.779  0.5937E+00  0.2298E+01
     -5.703  0.7640E-01  0.2304E+01
     -5.627  0.2332E+00  0.2322E+01
     -5.551  0.8059E+00  0.2383E+01
     -5.475  0.1557E+01  0.2501E+01
     -5.399  0.3573E+01  0.2773E+01
     -5.323  0.2698E+01  0.2978E+01
     -5.247  0.1741E+01  0.3111E+01
     -5.171  0.1627E+01  0.3234E+01
     -5.095  0.2921E+01  0.3457E+01
     -5.019  0.2907E+01  0.3678E+01
     -4.943  0.2263E+01  0.3850E+01
     -4.867  0.9728E+00  0.3924E+01
     -4.791  0.2544E+01  0.4117E+01
     -4.715  0.7625E+01  0.4697E+01
     -4.639  0.4117E+01  0.5010E+01
     -4.563  0.5024E+01  0.5392E+01
     -4.487  0.5839E+01  0.5836E+01
     -4.411  0.6465E+01  0.6328E+01
     -4.334  0.8434E+01  0.6969E+01
     -4.258  0.5274E+01  0.7371E+01
     -4.182  0.7275E+01  0.7924E+01
     -4.106  0.5903E+01  0.8373E+01
     -4.030  0.8865E+01  0.9047E+01
     -3.954  0.1096E+02  0.9880E+01
     -3.878  0.1353E+02  0.1091E+02
     -3.802  0.1116E+02  0.1176E+02
     -3.726  0.1199E+02  0.1267E+02
     -3.650  0.1130E+02  0.1353E+02
     -3.574  0.1148E+02  0.1440E+02
     -3.498  0.9392E+01  0.1512E+02
     -3.422  0.9491E+01  0.1584E+02
     -3.346  0.8215E+01  0.1646E+02
     -3.270  0.1012E+02  0.1723E+02
     -3.194  0.1322E+02  0.1824E+02
     -3.118  0.1328E+02  0.1925E+02
     -3.042  0.8655E+01  0.1991E+02
     -2.966  0.1105E+02  0.2075E+02
     -2.889  0.1576E+02  0.2195E+02
     -2.813  0.1273E+02  0.2291E+02
     -2.737  0.1208E+02  0.2383E+02
     -2.661  0.1428E+02  0.2492E+02
     -2.585  0.1365E+02  0.2596E+02
     -2.509  0.1705E+02  0.2725E+02
     -2.433  0.1797E+02  0.2862E+02
     -2.357  0.2000E+02  0.3014E+02
     -2.281  0.2284E+02  0.3188E+02
     -2.205  0.2101E+02  0.3347E+02
     -2.129  0.1956E+02  0.3496E+02
     -2.053  0.2226E+02  0.3666E+02
     -1.977  0.2078E+02  0.3824E+02
     -1.901  0.1498E+02  0.3937E+02
     -1.825  0.1468E+02  0.4049E+02
     -1.749  0.1476E+02  0.4161E+02
     -1.673  0.1344E+02  0.4264E+02
     -1.597  0.1349E+02  0.4366E+02
     -1.521  0.1520E+02  0.4482E+02
     -1.445  0.1998E+02  0.4634E+02
     -1.368  0.1929E+02  0.4780E+02
     -1.292  0.1448E+02  0.4891E+02
     -1.216  0.1186E+02  0.4981E+02
     -1.140  0.1869E+02  0.5123E+02
     -1.064  0.1860E+02  0.5264E+02
     -0.988  0.2123E+02  0.5426E+02
     -0.912  0.1970E+02  0.5576E+02
     -0.836  0.1529E+02  0.5692E+02
     -0.760  0.1910E+02  0.5837E+02
     -0.684  0.2553E+02  0.6031E+02
     -0.608  0.3086E+02  0.6266E+02
     -0.532  0.2347E+02  0.6444E+02
     -0.456  0.1479E+02  0.6557E+02
     -0.380  0.8356E+01  0.6621E+02
     -0.304  0.3964E+01  0.6651E+02
     -0.228  0.3188E+01  0.6675E+02
     -0.152  0.3905E+01  0.6705E+02
     -0.076  0.4170E+01  0.6736E+02
      0.000  0.3251E+01  0.6761E+02
      0.076  0.1498E+01  0.6772E+02
      0.153  0.1446E+01  0.6783E+02
      0.229  0.1688E+01  0.6796E+02
      0.305  0.9240E+00  0.6803E+02
      0.381  0.1472E+01  0.6815E+02
      0.457  0.3238E+01  0.6839E+02
      0.533  0.2265E+01  0.6856E+02
      0.609  0.2029E+01  0.6872E+02
      0.685  0.1910E+01  0.6886E+02
      0.761  0.2357E+01  0.6904E+02
      0.837  0.2423E+01  0.6923E+02
      0.913  0.3281E+01  0.6948E+02
      0.989  0.3093E+01  0.6971E+02
      1.065  0.1663E+01  0.6984E+02
      1.141  0.6883E+00  0.6989E+02
      1.217  0.1102E+01  0.6997E+02
      1.293  0.2588E+01  0.7017E+02
      1.369  0.2500E+01  0.7036E+02
      1.445  0.1102E+01  0.7044E+02
      1.521  0.8234E+00  0.7051E+02
      1.598  0.2207E+01  0.7068E+02
      1.674  0.2586E+01  0.7087E+02
      1.750  0.1876E+01  0.7101E+02
      1.826  0.1976E+01  0.7116E+02
      1.902  0.2454E+01  0.7135E+02
      1.978  0.2316E+01  0.7153E+02
      2.054  0.1094E+01  0.7161E+02
      2.130  0.1446E+01  0.7172E+02
      2.206  0.2159E+01  0.7188E+02
      2.282  0.2680E+01  0.7209E+02
      2.358  0.2956E+01  0.7231E+02
      2.434  0.1175E+01  0.7240E+02
      2.510  0.1034E+01  0.7248E+02
      2.586  0.1622E+01  0.7261E+02
      2.662  0.1289E+01  0.7270E+02
      2.738  0.7689E+00  0.7276E+02
      2.814  0.4632E+00  0.7280E+02
      2.890  0.1094E+01  0.7288E+02
      2.966  0.1554E+01  0.7300E+02
      3.042  0.4131E+01  0.7331E+02
      3.119  0.4793E+01  0.7368E+02
      3.195  0.2140E+01  0.7384E+02
      3.271  0.1039E+01  0.7392E+02
      3.347  0.8871E+00  0.7399E+02
      3.423  0.9212E+00  0.7406E+02
      3.499  0.2762E+01  0.7427E+02
      3.575  0.1305E+01  0.7437E+02
      3.651  0.7811E+00  0.7442E+02
      3.727  0.1772E+01  0.7456E+02
      3.803  0.1366E+01  0.7466E+02
      3.879  0.4815E+00  0.7470E+02
      3.955  0.5512E+00  0.7474E+02
      4.031  0.5042E+00  0.7478E+02
      4.107  0.5773E+00  0.7482E+02
      4.183  0.1973E+01  0.7497E+02
      4.259  0.1457E+01  0.7508E+02
      4.335  0.1262E+01  0.7518E+02
      4.411  0.1472E+01  0.7529E+02
      4.487  0.2072E+01  0.7545E+02
      4.563  0.1788E+01  0.7559E+02
      4.640  0.2409E+01  0.7577E+02
      4.716  0.1344E+01  0.7587E+02
      4.792  0.1165E+00  0.7588E+02
      4.868  0.2280E+00  0.7590E+02
      4.944  0.2672E-01  0.7590E+02
      5.020  0.6443E-04  0.7590E+02
      5.096  0.2020E-08  0.7590E+02
      5.172  0.7299E-15  0.7590E+02
      5.248  0.0000E+00  0.7590E+02
      5.324  0.0000E+00  0.7590E+02
      5.400  0.0000E+00  0.7590E+02
      5.476  0.0000E+00  0.7590E+02
      5.552  0.0000E+00  0.7590E+02
      5.628  0.0000E+00  0.7590E+02
      5.704  0.0000E+00  0.7590E+02
      5.780  0.0000E+00  0.7590E+02
      5.856  0.0000E+00  0.7590E+02
