  253  253   40    1
  0.2277282E+02  0.1514622E-08  0.1514622E-08  0.2900000E-08  0.2000000E-15
  1.000000000000000E-004
  CAR 
 NiAl                                    
   2525      2   1518
 
  0.0000000E+00  0.0000000E+00  0.0000000E+00  0.2500000E+00
    1      -15.921768   1.000000
    2       -9.085247   1.000000
    3       -8.549618   1.000000
    4       -8.182802   1.000000
    5       -8.182790   1.000000
    6       -8.181859   1.000000
    7       -8.180738   1.000000
    8       -8.180723   1.000000
    9       -8.168573   1.000000
   10       -7.722627   1.000000
   11       -7.678782   1.000000
   12       -7.678766   1.000000
   13       -7.675953   1.000000
   14       -7.675938   1.000000
   15       -7.674940   1.000000
   16       -7.635557   1.000000
   17       -6.911696   1.000000
   18       -6.911679   1.000000
   19       -6.889242   1.000000
   20       -6.889226   1.000000
   21       -6.887735   1.000000
   22       -6.844241   1.000000
   23       -6.687784   1.000000
   24       -6.555695   1.000000
   25       -6.555673   1.000000
   26       -6.547088   1.000000
   27       -6.544934   1.000000
   28       -6.544922   1.000000
   29       -6.541373   1.000000
   30       -6.268851   1.000000
   31       -6.268697   1.000000
   32       -6.125951   1.000000
   33       -6.123950   1.000000
   34       -6.123936   1.000000
   35       -6.116975   1.000000
   36       -6.055421   1.000000
   37       -6.055362   1.000000
   38       -5.925370   1.000000
   39       -5.924006   1.000000
   40       -5.923994   1.000000
   41       -5.922517   1.000000
   42       -5.921789   1.000000
   43       -5.921775   1.000000
   44       -5.921253   1.000000
   45       -5.921239   1.000000
   46       -5.919928   1.000000
   47       -5.881429   1.000000
   48       -5.831959   1.000000
   49       -5.831894   1.000000
   50       -5.685172   1.000000
   51       -5.600174   1.000000
   52       -5.590784   1.000000
   53       -5.590771   1.000000
   54       -5.590610   1.000000
   55       -5.569654   1.000000
   56       -5.569641   1.000000
   57       -5.507084   1.000000
   58       -5.497658   1.000000
   59       -5.497354   1.000000
   60       -5.497342   1.000000
   61       -5.439814   1.000000
   62       -5.439776   1.000000
   63       -5.271460   1.000000
   64       -5.145601   1.000000
   65       -5.143070   1.000000
   66       -5.143032   1.000000
   67       -5.115129   1.000000
   68       -5.115097   1.000000
   69       -5.108590   1.000000
   70       -5.047178   1.000000
   71       -4.984509   1.000000
   72       -4.984477   1.000000
   73       -4.982947   1.000000
   74       -4.964519   1.000000
   75       -4.964499   1.000000
   76       -4.909739   1.000000
   77       -4.870162   1.000000
   78       -4.813894   1.000000
   79       -4.812793   1.000000
   80       -4.812757   1.000000
   81       -4.774148   1.000000
   82       -4.774138   1.000000
   83       -4.773978   1.000000
   84       -4.755613   1.000000
   85       -4.755605   1.000000
   86       -4.741771   1.000000
   87       -4.692664   1.000000
   88       -4.689980   1.000000
   89       -4.689942   1.000000
   90       -4.675067   1.000000
   91       -4.675024   1.000000
   92       -4.674431   1.000000
   93       -4.660068   1.000000
   94       -4.660025   1.000000
   95       -4.643255   1.000000
   96       -4.582567   1.000000
   97       -4.581871   1.000000
   98       -4.581861   1.000000
   99       -4.580261   1.000000
  100       -4.579540   1.000000
  101       -4.579525   1.000000
  102       -4.579348   1.000000
  103       -4.578433   1.000000
  104       -4.578416   1.000000
  105       -4.578381   1.000000
  106       -4.577003   1.000000
  107       -4.576998   1.000000
  108       -4.536902   1.000000
  109       -4.533524   1.000000
  110       -4.533481   1.000000
  111       -4.463755   1.000000
  112       -4.463709   1.000000
  113       -4.460306   1.000000
  114       -4.432832   1.000000
  115       -4.432785   1.000000
  116       -4.430672   1.000000
  117       -4.422469   1.000000
  118       -4.422442   1.000000
  119       -4.388471   1.000000
  120       -4.377884   1.000000
  121       -4.377501   1.000000
  122       -4.377486   1.000000
  123       -4.376310   1.000000
  124       -4.376283   1.000000
  125       -4.375921   1.000000
  126       -4.375595   1.000000
  127       -4.375574   1.000000
  128       -4.375171   1.000000
  129       -4.373647   1.000000
  130       -4.373478   1.000000
  131       -4.373458   1.000000
  132       -4.367972   1.000000
  133       -4.367966   1.000000
  134       -4.367400   1.000000
  135       -4.366618   1.000000
  136       -4.366598   1.000000
  137       -4.364350   1.000000
  138       -4.364100   1.000000
  139       -4.360919   1.000000
  140       -4.360905   1.000000
  141       -4.360765   1.000000
  142       -4.358790   1.000000
  143       -4.358783   1.000000
  144       -4.319540   1.000000
  145       -4.319492   1.000000
  146       -4.318103   1.000000
  147       -4.315138   1.000000
  148       -4.315110   1.000000
  149       -4.296317   1.000000
  150       -4.283833   1.000000
  151       -4.281962   1.000000
  152       -4.281899   1.000000
  153       -4.267750   1.000000
  154       -4.267694   1.000000
  155       -4.258937   1.000000
  156       -4.258903   1.000000
  157       -4.258798   1.000000
  158       -4.248590   1.000000
  159       -4.228374   1.000000
  160       -4.228361   1.000000
  161       -4.226399   1.000000
  162       -4.225366   1.000000
  163       -4.225345   1.000000
  164       -4.224383   1.000000
  165       -4.221259   1.000000
  166       -4.221246   1.000000
  167       -4.220368   1.000000
  168       -4.207859   1.000000
  169       -4.207842   1.000000
  170       -4.199850   1.000000
  171       -4.160379   1.000000
  172       -4.160273   1.000000
  173       -4.160113   1.000000
  174       -4.131204   1.000000
  175       -4.131202   1.000000
  176       -4.130377   1.000000
  177       -4.122189   1.000000
  178       -4.122181   1.000000
  179       -4.113537   1.000000
  180       -4.050422   1.000000
  181       -4.050376   1.000000
  182       -4.044294   1.000000
  183       -4.031736   1.000000
  184       -4.031711   1.000000
  185       -4.030739   1.000000
  186       -4.030562   1.000000
  187       -4.028000   1.000000
  188       -4.027983   1.000000
  189       -4.025527   1.000000
  190       -4.025514   1.000000
  191       -4.025466   1.000000
  192       -3.998968   1.000000
  193       -3.998915   1.000000
  194       -3.990040   1.000000
  195       -3.982701   1.000000
  196       -3.982615   1.000000
  197       -3.981851   1.000000
  198       -3.927008   1.000000
  199       -3.926898   1.000000
  200       -3.926771   1.000000
  201       -3.924192   1.000000
  202       -3.924091   1.000000
  203       -3.921756   1.000000
  204       -3.906587   1.000000
  205       -3.906498   1.000000
  206       -3.893676   1.000000
  207       -3.883144   1.000000
  208       -3.883062   1.000000
  209       -3.882840   1.000000
  210       -3.881765   1.000000
  211       -3.881713   1.000000
  212       -3.881045   1.000000
  213       -3.880533   1.000000
  214       -3.880420   1.000000
  215       -3.880327   1.000000
  216       -3.878559   1.000000
  217       -3.878434   1.000000
  218       -3.876978   1.000000
  219       -3.869089   1.000000
  220       -3.868980   1.000000
  221       -3.867162   1.000000
  222       -3.858302   1.000000
  223       -3.858208   1.000000
  224       -3.840650   1.000000
  225       -3.794065   1.000000
  226       -3.794037   1.000000
  227       -3.793560   1.000000
  228       -3.787436   1.000000
  229       -3.787433   1.000000
  230       -3.786495   1.000000
  231       -3.786448   1.000000
  232       -3.785890   1.000000
  233       -3.785881   1.000000
  234       -3.766037   1.000000
  235       -3.766022   1.000000
  236       -3.756881   1.000000
  237       -3.755381   1.000000
  238       -3.755360   1.000000
  239       -3.754921   1.000000
  240       -3.744104   1.000000
  241       -3.744100   1.000000
  242       -3.738102   1.000000
  243       -3.737867   1.000000
  244       -3.736967   1.000000
  245       -3.736926   1.000000
  246       -3.734411   1.000000
  247       -3.731808   1.000000
  248       -3.731742   1.000000
  249       -3.730241   1.000000
  250       -3.730232   1.000000
  251       -3.728986   1.000000
  252       -3.724649   1.000000
  253       -3.724614   1.000000
  254       -3.722273   1.000000
  255       -3.691836   1.000000
  256       -3.691820   1.000000
  257       -3.689741   1.000000
  258       -3.689341   1.000000
  259       -3.689236   1.000000
  260       -3.687937   1.000000
  261       -3.687751   1.000000
  262       -3.686765   1.000000
  263       -3.686762   1.000000
  264       -3.683403   1.000000
  265       -3.683294   1.000000
  266       -3.681306   1.000000
  267       -3.677970   1.000000
  268       -3.677904   1.000000
  269       -3.655251   1.000000
  270       -3.635390   1.000000
  271       -3.635327   1.000000
  272       -3.628323   1.000000
  273       -3.628054   1.000000
  274       -3.627949   1.000000
  275       -3.620307   1.000000
  276       -3.619261   1.000000
  277       -3.618027   1.000000
  278       -3.617903   1.000000
  279       -3.601160   1.000000
  280       -3.601158   1.000000
  281       -3.597406   1.000000
  282       -3.589926   1.000000
  283       -3.588281   1.000000
  284       -3.588251   1.000000
  285       -3.579412   1.000000
  286       -3.579220   1.000000
  287       -3.577611   1.000000
  288       -3.577594   1.000000
  289       -3.572764   1.000000
  290       -3.572746   1.000000
  291       -3.570903   1.000000
  292       -3.569675   1.000000
  293       -3.569673   1.000000
  294       -3.532203   1.000000
  295       -3.519845   1.000000
  296       -3.503524   1.000000
  297       -3.503467   1.000000
  298       -3.502053   1.000000
  299       -3.498937   1.000000
  300       -3.498907   1.000000
  301       -3.497703   1.000000
  302       -3.496919   1.000000
  303       -3.496889   1.000000
  304       -3.494426   1.000000
  305       -3.489524   1.000000
  306       -3.489500   1.000000
  307       -3.483840   1.000000
  308       -3.483818   1.000000
  309       -3.466016   1.000000
  310       -3.454757   1.000000
  311       -3.454736   1.000000
  312       -3.451427   1.000000
  313       -3.447399   1.000000
  314       -3.447378   1.000000
  315       -3.446152   1.000000
  316       -3.440079   1.000000
  317       -3.440046   1.000000
  318       -3.417379   1.000000
  319       -3.416899   1.000000
  320       -3.416868   1.000000
  321       -3.416705   1.000000
  322       -3.416690   1.000000
  323       -3.415747   1.000000
  324       -3.413583   1.000000
  325       -3.413302   1.000000
  326       -3.413198   1.000000
  327       -3.413160   1.000000
  328       -3.412336   1.000000
  329       -3.412314   1.000000
  330       -3.411605   1.000000
  331       -3.404900   1.000000
  332       -3.404859   1.000000
  333       -3.402580   1.000000
  334       -3.402516   1.000000
  335       -3.400840   1.000000
  336       -3.393052   1.000000
  337       -3.388968   1.000000
  338       -3.388885   1.000000
  339       -3.308893   1.000000
  340       -3.301967   1.000000
  341       -3.301964   1.000000
  342       -3.290486   1.000000
  343       -3.282000   1.000000
  344       -3.281957   1.000000
  345       -3.276346   1.000000
  346       -3.273187   1.000000
  347       -3.273152   1.000000
  348       -3.271312   1.000000
  349       -3.249927   1.000000
  350       -3.249915   1.000000
  351       -3.240369   1.000000
  352       -3.240357   1.000000
  353       -3.225741   1.000000
  354       -3.223709   1.000000
  355       -3.223671   1.000000
  356       -3.222438   1.000000
  357       -3.222406   1.000000
  358       -3.222373   1.000000
  359       -3.221387   1.000000
  360       -3.216939   1.000000
  361       -3.216924   1.000000
  362       -3.191521   1.000000
  363       -3.191520   1.000000
  364       -3.178825   1.000000
  365       -3.167760   1.000000
  366       -3.167733   1.000000
  367       -3.162459   1.000000
  368       -3.159989   1.000000
  369       -3.159962   1.000000
  370       -3.157590   1.000000
  371       -3.151004   1.000000
  372       -3.150327   1.000000
  373       -3.150259   1.000000
  374       -3.149355   1.000000
  375       -3.149307   1.000000
  376       -3.148332   1.000000
  377       -3.147152   1.000000
  378       -3.147099   1.000000
  379       -3.145653   1.000000
  380       -3.145624   1.000000
  381       -3.144479   1.000000
  382       -3.096969   1.000000
  383       -3.087757   1.000000
  384       -3.087097   1.000000
  385       -3.087083   1.000000
  386       -3.083301   1.000000
  387       -3.083199   1.000000
  388       -3.083198   1.000000
  389       -3.081766   1.000000
  390       -3.080728   1.000000
  391       -3.080722   1.000000
  392       -3.080557   1.000000
  393       -3.080546   1.000000
  394       -3.076105   1.000000
  395       -3.044735   1.000000
  396       -3.044710   1.000000
  397       -3.044417   1.000000
  398       -3.043703   1.000000
  399       -3.043676   1.000000
  400       -3.025158   1.000000
  401       -2.973886   1.000000
  402       -2.973881   1.000000
  403       -2.973284   1.000000
  404       -2.971254   1.000000
  405       -2.971249   1.000000
  406       -2.963962   1.000000
  407       -2.963410   1.000000
  408       -2.963386   1.000000
  409       -2.961857   1.000000
  410       -2.961827   1.000000
  411       -2.959008   1.000000
  412       -2.949936   1.000000
  413       -2.944745   1.000000
  414       -2.944735   1.000000
  415       -2.943779   1.000000
  416       -2.940904   1.000000
  417       -2.940885   1.000000
  418       -2.934796   1.000000
  419       -2.933343   1.000000
  420       -2.933306   1.000000
  421       -2.923301   1.000000
  422       -2.923273   1.000000
  423       -2.922854   1.000000
  424       -2.921570   1.000000
  425       -2.904572   1.000000
  426       -2.904547   1.000000
  427       -2.904074   1.000000
  428       -2.904071   1.000000
  429       -2.903182   1.000000
  430       -2.903173   1.000000
  431       -2.901624   1.000000
  432       -2.901615   1.000000
  433       -2.900900   1.000000
  434       -2.900366   1.000000
  435       -2.900355   1.000000
  436       -2.899332   1.000000
  437       -2.897514   1.000000
  438       -2.897494   1.000000
  439       -2.896308   1.000000
  440       -2.893261   1.000000
  441       -2.893254   1.000000
  442       -2.886548   1.000000
  443       -2.841470   1.000000
  444       -2.841434   1.000000
  445       -2.838308   1.000000
  446       -2.836480   1.000000
  447       -2.836449   1.000000
  448       -2.835883   1.000000
  449       -2.832493   1.000000
  450       -2.830751   1.000000
  451       -2.830718   1.000000
  452       -2.829414   1.000000
  453       -2.829408   1.000000
  454       -2.828789   1.000000
  455       -2.828258   1.000000
  456       -2.827832   1.000000
  457       -2.827815   1.000000
  458       -2.826958   1.000000
  459       -2.826952   1.000000
  460       -2.825530   1.000000
  461       -2.825527   1.000000
  462       -2.825122   1.000000
  463       -2.822935   1.000000
  464       -2.783907   1.000000
  465       -2.783902   1.000000
  466       -2.773312   1.000000
  467       -2.772286   1.000000
  468       -2.761194   1.000000
  469       -2.761185   1.000000
  470       -2.745654   1.000000
  471       -2.743616   1.000000
  472       -2.743603   1.000000
  473       -2.742859   1.000000
  474       -2.742843   1.000000
  475       -2.740854   1.000000
  476       -2.739036   1.000000
  477       -2.739030   1.000000
  478       -2.738643   1.000000
  479       -2.738441   1.000000
  480       -2.736797   1.000000
  481       -2.736789   1.000000
  482       -2.735520   1.000000
  483       -2.732005   1.000000
  484       -2.731988   1.000000
  485       -2.723660   1.000000
  486       -2.723092   1.000000
  487       -2.723057   1.000000
  488       -2.721143   1.000000
  489       -2.721102   1.000000
  490       -2.721082   1.000000
  491       -2.719314   1.000000
  492       -2.718253   1.000000
  493       -2.718243   1.000000
  494       -2.717634   1.000000
  495       -2.713403   1.000000
  496       -2.713391   1.000000
  497       -2.709477   1.000000
  498       -2.709474   1.000000
  499       -2.691734   1.000000
  500       -2.684652   1.000000
  501       -2.684608   1.000000
  502       -2.683190   1.000000
  503       -2.683127   1.000000
  504       -2.681221   1.000000
  505       -2.673487   1.000000
  506       -2.652370   1.000000
  507       -2.652328   1.000000
  508       -2.649275   1.000000
  509       -2.649071   1.000000
  510       -2.649026   1.000000
  511       -2.647252   1.000000
  512       -2.638156   1.000000
  513       -2.638138   1.000000
  514       -2.637008   1.000000
  515       -2.618587   1.000000
  516       -2.618545   1.000000
  517       -2.616425   1.000000
  518       -2.609076   1.000000
  519       -2.608880   1.000000
  520       -2.608716   1.000000
  521       -2.608667   1.000000
  522       -2.597893   1.000000
  523       -2.573383   1.000000
  524       -2.566782   1.000000
  525       -2.566770   1.000000
  526       -2.563796   1.000000
  527       -2.561224   1.000000
  528       -2.561212   1.000000
  529       -2.559635   1.000000
  530       -2.558546   1.000000
  531       -2.558533   1.000000
  532       -2.557268   1.000000
  533       -2.557262   1.000000
  534       -2.556200   1.000000
  535       -2.555336   1.000000
  536       -2.555310   1.000000
  537       -2.552058   1.000000
  538       -2.546089   1.000000
  539       -2.546083   1.000000
  540       -2.545418   1.000000
  541       -2.540425   1.000000
  542       -2.536506   1.000000
  543       -2.536431   1.000000
  544       -2.522104   1.000000
  545       -2.522079   1.000000
  546       -2.521810   1.000000
  547       -2.511292   1.000000
  548       -2.507721   1.000000
  549       -2.507679   1.000000
  550       -2.506270   1.000000
  551       -2.503893   1.000000
  552       -2.503836   1.000000
  553       -2.501337   1.000000
  554       -2.501292   1.000000
  555       -2.493258   1.000000
  556       -2.493240   1.000000
  557       -2.491830   1.000000
  558       -2.488193   1.000000
  559       -2.484389   1.000000
  560       -2.484386   1.000000
  561       -2.484358   1.000000
  562       -2.480822   1.000000
  563       -2.480802   1.000000
  564       -2.479646   1.000000
  565       -2.477776   1.000000
  566       -2.477746   1.000000
  567       -2.476436   1.000000
  568       -2.476301   1.000000
  569       -2.476293   1.000000
  570       -2.475424   1.000000
  571       -2.474392   1.000000
  572       -2.474233   1.000000
  573       -2.456402   1.000000
  574       -2.456262   1.000000
  575       -2.449651   1.000000
  576       -2.449595   1.000000
  577       -2.444913   1.000000
  578       -2.434942   1.000000
  579       -2.434875   1.000000
  580       -2.434326   1.000000
  581       -2.430731   1.000000
  582       -2.430558   1.000000
  583       -2.430478   1.000000
  584       -2.428658   1.000000
  585       -2.428594   1.000000
  586       -2.420627   1.000000
  587       -2.411520   1.000000
  588       -2.411510   1.000000
  589       -2.408996   1.000000
  590       -2.408588   1.000000
  591       -2.408582   1.000000
  592       -2.407300   1.000000
  593       -2.401344   1.000000
  594       -2.394081   1.000000
  595       -2.394080   1.000000
  596       -2.393901   1.000000
  597       -2.392538   1.000000
  598       -2.392533   1.000000
  599       -2.392465   1.000000
  600       -2.388218   1.000000
  601       -2.388019   1.000000
  602       -2.387992   1.000000
  603       -2.386319   1.000000
  604       -2.385827   1.000000
  605       -2.385782   1.000000
  606       -2.383627   1.000000
  607       -2.382640   1.000000
  608       -2.382557   1.000000
  609       -2.377965   1.000000
  610       -2.377059   1.000000
  611       -2.376859   1.000000
  612       -2.331400   1.000000
  613       -2.331341   1.000000
  614       -2.326509   1.000000
  615       -2.326461   1.000000
  616       -2.324716   1.000000
  617       -2.318610   1.000000
  618       -2.313384   1.000000
  619       -2.313334   1.000000
  620       -2.310814   1.000000
  621       -2.310658   1.000000
  622       -2.308373   1.000000
  623       -2.292474   1.000000
  624       -2.291886   1.000000
  625       -2.291834   1.000000
  626       -2.289452   1.000000
  627       -2.289410   1.000000
  628       -2.287321   1.000000
  629       -2.287274   1.000000
  630       -2.283691   1.000000
  631       -2.283633   1.000000
  632       -2.281660   1.000000
  633       -2.281583   1.000000
  634       -2.281350   1.000000
  635       -2.277796   1.000000
  636       -2.275450   1.000000
  637       -2.275395   1.000000
  638       -2.271434   1.000000
  639       -2.265892   1.000000
  640       -2.265873   1.000000
  641       -2.263417   1.000000
  642       -2.251912   1.000000
  643       -2.251836   1.000000
  644       -2.247304   1.000000
  645       -2.247254   1.000000
  646       -2.246857   1.000000
  647       -2.246723   1.000000
  648       -2.232619   1.000000
  649       -2.232586   1.000000
  650       -2.230268   1.000000
  651       -2.230243   1.000000
  652       -2.229457   1.000000
  653       -2.228643   1.000000
  654       -2.226687   1.000000
  655       -2.224322   1.000000
  656       -2.224280   1.000000
  657       -2.222210   1.000000
  658       -2.222166   1.000000
  659       -2.221752   1.000000
  660       -2.217684   1.000000
  661       -2.217607   1.000000
  662       -2.215721   1.000000
  663       -2.214430   1.000000
  664       -2.212935   1.000000
  665       -2.212859   1.000000
  666       -2.209294   1.000000
  667       -2.205175   1.000000
  668       -2.205171   1.000000
  669       -2.201133   1.000000
  670       -2.201107   1.000000
  671       -2.186727   1.000000
  672       -2.186699   1.000000
  673       -2.178346   1.000000
  674       -2.176928   1.000000
  675       -2.176877   1.000000
  676       -2.172946   1.000000
  677       -2.172556   1.000000
  678       -2.170577   1.000000
  679       -2.170510   1.000000
  680       -2.168143   1.000000
  681       -2.168120   1.000000
  682       -2.162714   1.000000
  683       -2.162642   1.000000
  684       -2.162378   1.000000
  685       -2.149117   1.000000
  686       -2.129588   1.000000
  687       -2.129567   1.000000
  688       -2.128574   1.000000
  689       -2.125117   1.000000
  690       -2.125086   1.000000
  691       -2.124514   1.000000
  692       -2.121797   1.000000
  693       -2.121785   1.000000
  694       -2.120513   1.000000
  695       -2.120431   1.000000
  696       -2.119701   1.000000
  697       -2.119691   1.000000
  698       -2.118160   1.000000
  699       -2.118105   1.000000
  700       -2.115884   1.000000
  701       -2.113664   1.000000
  702       -2.111271   1.000000
  703       -2.111217   1.000000
  704       -2.110197   1.000000
  705       -2.109698   1.000000
  706       -2.109600   1.000000
  707       -2.109262   1.000000
  708       -2.109171   1.000000
  709       -2.106669   1.000000
  710       -2.106565   1.000000
  711       -2.105720   1.000000
  712       -2.101904   1.000000
  713       -2.101580   1.000000
  714       -2.094968   1.000000
  715       -2.093880   1.000000
  716       -2.093790   1.000000
  717       -2.091931   1.000000
  718       -2.091849   1.000000
  719       -2.090984   1.000000
  720       -2.065306   1.000000
  721       -2.065249   1.000000
  722       -2.065130   1.000000
  723       -2.044711   1.000000
  724       -2.044704   1.000000
  725       -2.042881   1.000000
  726       -2.042857   1.000000
  727       -2.040802   1.000000
  728       -2.034461   1.000000
  729       -2.033665   1.000000
  730       -2.033623   1.000000
  731       -2.033618   1.000000
  732       -2.030391   1.000000
  733       -2.030384   1.000000
  734       -2.028995   1.000000
  735       -2.028985   1.000000
  736       -2.028316   1.000000
  737       -2.027061   1.000000
  738       -2.021341   1.000000
  739       -2.021308   1.000000
  740       -2.010695   1.000000
  741       -2.003120   1.000000
  742       -2.003077   1.000000
  743       -1.995724   1.000000
  744       -1.994971   1.000000
  745       -1.993992   1.000000
  746       -1.993932   1.000000
  747       -1.990195   1.000000
  748       -1.990153   1.000000
  749       -1.985869   1.000000
  750       -1.985854   1.000000
  751       -1.984156   1.000000
  752       -1.979739   1.000000
  753       -1.968094   1.000000
  754       -1.958102   1.000000
  755       -1.958088   1.000000
  756       -1.950763   1.000000
  757       -1.950759   1.000000
  758       -1.942077   1.000000
  759       -1.934445   1.000000
  760       -1.934424   1.000000
  761       -1.933947   1.000000
  762       -1.933931   1.000000
  763       -1.932345   1.000000
  764       -1.931882   1.000000
  765       -1.931870   1.000000
  766       -1.931778   1.000000
  767       -1.931525   1.000000
  768       -1.928844   1.000000
  769       -1.928818   1.000000
  770       -1.928286   1.000000
  771       -1.927779   1.000000
  772       -1.927751   1.000000
  773       -1.926076   1.000000
  774       -1.926057   1.000000
  775       -1.921996   1.000000
  776       -1.911874   1.000000
  777       -1.906690   1.000000
  778       -1.902234   1.000000
  779       -1.902209   1.000000
  780       -1.897041   1.000000
  781       -1.894683   1.000000
  782       -1.894280   1.000000
  783       -1.894208   1.000000
  784       -1.891361   1.000000
  785       -1.886916   1.000000
  786       -1.886826   1.000000
  787       -1.878644   1.000000
  788       -1.878593   1.000000
  789       -1.872535   1.000000
  790       -1.872515   1.000000
  791       -1.872319   1.000000
  792       -1.861764   1.000000
  793       -1.861721   1.000000
  794       -1.860976   1.000000
  795       -1.855081   1.000000
  796       -1.855080   1.000000
  797       -1.852275   1.000000
  798       -1.852257   1.000000
  799       -1.851445   1.000000
  800       -1.843299   1.000000
  801       -1.843272   1.000000
  802       -1.843256   1.000000
  803       -1.839928   1.000000
  804       -1.831555   1.000000
  805       -1.831551   1.000000
  806       -1.831410   1.000000
  807       -1.813883   1.000000
  808       -1.813731   1.000000
  809       -1.813725   1.000000
  810       -1.811874   1.000000
  811       -1.811863   1.000000
  812       -1.808332   1.000000
  813       -1.799160   1.000000
  814       -1.799138   1.000000
  815       -1.791736   1.000000
  816       -1.789537   1.000000
  817       -1.789332   1.000000
  818       -1.789326   1.000000
  819       -1.782422   1.000000
  820       -1.782392   1.000000
  821       -1.775328   1.000000
  822       -1.775284   1.000000
  823       -1.774427   1.000000
  824       -1.772673   1.000000
  825       -1.772651   1.000000
  826       -1.772048   1.000000
  827       -1.766540   1.000000
  828       -1.766500   1.000000
  829       -1.766118   1.000000
  830       -1.763614   1.000000
  831       -1.763590   1.000000
  832       -1.763037   1.000000
  833       -1.761761   1.000000
  834       -1.759136   1.000000
  835       -1.757806   1.000000
  836       -1.757763   1.000000
  837       -1.757335   1.000000
  838       -1.757298   1.000000
  839       -1.755328   1.000000
  840       -1.751970   1.000000
  841       -1.751942   1.000000
  842       -1.751237   1.000000
  843       -1.749608   1.000000
  844       -1.749568   1.000000
  845       -1.741906   1.000000
  846       -1.741872   1.000000
  847       -1.740374   1.000000
  848       -1.740372   1.000000
  849       -1.738090   1.000000
  850       -1.734051   1.000000
  851       -1.725682   1.000000
  852       -1.721550   1.000000
  853       -1.720111   1.000000
  854       -1.720091   1.000000
  855       -1.712980   1.000000
  856       -1.712955   1.000000
  857       -1.702855   1.000000
  858       -1.694727   1.000000
  859       -1.694714   1.000000
  860       -1.688115   1.000000
  861       -1.685500   1.000000
  862       -1.685495   1.000000
  863       -1.683744   1.000000
  864       -1.683718   1.000000
  865       -1.680141   1.000000
  866       -1.678443   1.000000
  867       -1.672825   1.000000
  868       -1.672819   1.000000
  869       -1.645614   1.000000
  870       -1.642412   1.000000
  871       -1.642407   1.000000
  872       -1.640736   1.000000
  873       -1.640720   1.000000
  874       -1.640002   1.000000
  875       -1.638011   1.000000
  876       -1.634801   1.000000
  877       -1.633983   1.000000
  878       -1.633967   1.000000
  879       -1.630493   1.000000
  880       -1.630486   1.000000
  881       -1.618107   1.000000
  882       -1.618091   1.000000
  883       -1.615409   1.000000
  884       -1.600316   1.000000
  885       -1.598958   1.000000
  886       -1.598918   1.000000
  887       -1.597847   1.000000
  888       -1.583671   1.000000
  889       -1.582324   1.000000
  890       -1.582264   1.000000
  891       -1.560783   1.000000
  892       -1.560756   1.000000
  893       -1.555349   1.000000
  894       -1.550293   1.000000
  895       -1.522983   1.000000
  896       -1.522970   1.000000
  897       -1.518822   1.000000
  898       -1.516221   1.000000
  899       -1.516212   1.000000
  900       -1.507695   1.000000
  901       -1.504410   1.000000