         261
 Energy:  -1295.5976728000001     
 X   0.00000000       0.00000000       0.00000000    
 X   0.00000000      -15.1462221       0.00000000    
 X   0.00000000      -7.57311106      -13.1170130    
 X   29.0000000       0.00000000       0.00000000    
 X   0.00000000      -22.7193336      -13.1170130    
 X   29.0000000      -15.1462221       0.00000000    
 X   29.0000000      -7.57311106      -13.1170130    
 X   29.0000000      -22.7193336      -13.1170130    
 Ni   3.02601004      -10.0974798      -5.82978010    
 Ni   3.02601004      -12.6218500      -10.2021198    
 Ni   3.02601004      -7.57311010      -1.45745003    
 Ni   3.02601004      -15.1462202      -5.82978010    
 Ni   3.02601004      -17.6705894      -10.2021198    
 Ni   3.02601004      -12.6218500      -1.45745003    
 Ni   3.02601004      -5.04873991      -5.82978010    
 Ni   3.02601004      -7.57311010      -10.2021198    
 Ni   3.02601004      -2.52436996      -1.45745003    
 Ni   5.02237988      -12.6218500      -7.28723001    
 Ni   5.02237988      -15.1462202      -11.6595697    
 Ni   5.02237988      -10.0974798      -2.91489005    
 Ni   5.02237988      -17.6705894      -7.28723001    
 Ni   5.02237988      -20.1949596      -11.6595697    
 Ni   5.02237988      -15.1462202      -2.91489005    
 Ni   5.02237988      -7.57311010      -7.28723001    
 Ni   5.02237988      -10.0974798      -11.6595697    
 Ni   5.02237988      -5.04873991      -2.91489005    
 Ni   7.03247023      -15.1462202      -8.74468040    
 Ni   7.03247023      -10.0974798       0.00000000    
 Ni   7.03247023      -12.6218500      -4.37234020    
 Ni   7.03247023      -5.04873991      -8.74468040    
 Ni   7.03247023       0.00000000       0.00000000    
 Ni   7.03247023      -2.52436996      -4.37234020    
 Ni   7.03247023      -10.0974798      -8.74468040    
 Ni   7.03247023      -5.04873991       0.00000000    
 Ni   7.03247023      -7.57311010      -4.37234020    
 Ni   9.04018974      -17.6705894      -10.2021198    
 Ni   9.04018974      -12.6218500      -1.45745003    
 Ni   9.04018974      -15.1462202      -5.82978010    
 Ni   9.04018974      -7.57311010      -10.2021198    
 Ni   9.04018974      -2.52436996      -1.45745003    
 Ni   9.04018974      -5.04873991      -5.82978010    
 Ni   9.04018974      -12.6218500      -10.2021198    
 Ni   9.04018974      -7.57311010      -1.45745003    
 Ni   9.04018974      -10.0974798      -5.82978010    
 Ni   11.0479097      -20.1949596      -11.6595697    
 Ni   11.0479097      -15.1462202      -2.91489005    
 Ni   11.0479097      -17.6705894      -7.28723001    
 Ni   11.0479097      -10.0974798      -11.6595697    
 Ni   11.0479097      -5.04873991      -2.91489005    
 Ni   11.0479097      -7.57311010      -7.28723001    
 Ni   11.0479097      -15.1462202      -11.6595697    
 Ni   11.0479097      -10.0974798      -2.91489005    
 Ni   11.0479097      -12.6218500      -7.28723001    
 Ni   13.0579996       0.00000000       0.00000000    
 Ni   13.0579996      -2.52436996      -4.37234020    
 Ni   13.0579996      -5.04873991      -8.74468040    
 Ni   13.0579996      -5.04873991       0.00000000    
 Ni   13.0579996      -7.57311010      -4.37234020    
 Ni   13.0579996      -10.0974798      -8.74468040    
 Ni   13.0579996      -10.0974798       0.00000000    
 Ni   13.0579996      -12.6218500      -4.37234020    
 Ni   13.0579996      -15.1462202      -8.74468040    
 Ni   15.0543699      -2.52436996      -1.45745003    
 Ni   15.0543699      -5.04873991      -5.82978010    
 Ni   15.0543699      -7.57311010      -10.2021198    
 Ni   15.0543699      -7.57311010      -1.45745003    
 Ni   15.0543699      -10.0974798      -5.82978010    
 Ni   15.0543699      -12.6218500      -10.2021198    
 Ni   15.0543699      -12.6218500      -1.45745003    
 Ni   15.0543699      -15.1462202      -5.82978010    
 Ni   15.0543699      -17.6705894      -10.2021198    
 Ni   3.02601004      -6.31092978      -3.64361000    
 Ni   3.02601004      -8.83530045      -8.01595020    
 Ni   3.02601004      -11.3596697      -12.3882904    
 Ni   3.02601004      -11.3596697      -3.64361000    
 Ni   3.02601004      -13.8840399      -8.01595020    
 Ni   3.02601004      -16.4084091      -12.3882904    
 Ni   3.02601004      -16.4084091      -3.64361000    
 Ni   3.02601004      -18.9327793      -8.01595020    
 Ni   3.02601004      -21.4571495      -12.3882904    
 Ni   5.02237988      -8.83530045      -5.10105991    
 Ni   5.02237988      -11.3596697      -9.47340012    
 Ni   5.02237988      -6.31092978     -0.728720009    
 Ni   5.02237988      -13.8840399      -5.10105991    
 Ni   5.02237988      -16.4084091      -9.47340012    
 Ni   5.02237988      -11.3596697     -0.728720009    
 Ni   5.02237988      -3.78656006      -5.10105991    
 Ni   5.02237988      -6.31092978      -9.47340012    
 Ni   5.02237988      -1.26218998     -0.728720009    
 Ni   7.03247023      -11.3596697      -6.55850983    
 Ni   7.03247023      -13.8840399      -10.9308395    
 Ni   7.03247023      -8.83530045      -2.18617010    
 Ni   7.03247023      -16.4084091      -6.55850983    
 Ni   7.03247023      -18.9327793      -10.9308395    
 Ni   7.03247023      -13.8840399      -2.18617010    
 Ni   7.03247023      -6.31092978      -6.55850983    
 Ni   7.03247023      -8.83530045      -10.9308395    
 Ni   7.03247023      -3.78656006      -2.18617010    
 Ni   9.04018974      -13.8840399      -8.01595020    
 Ni   9.04018974      -16.4084091      -12.3882904    
 Ni   9.04018974      -11.3596697      -3.64361000    
 Ni   9.04018974      -18.9327793      -8.01595020    
 Ni   9.04018974      -21.4571495      -12.3882904    
 Ni   9.04018974      -16.4084091      -3.64361000    
 Ni   9.04018974      -8.83530045      -8.01595020    
 Ni   9.04018974      -11.3596697      -12.3882904    
 Ni   9.04018974      -6.31092978      -3.64361000    
 Ni   11.0479097      -16.4084091      -9.47340012    
 Ni   11.0479097      -11.3596697     -0.728720009    
 Ni   11.0479097      -13.8840399      -5.10105991    
 Ni   11.0479097      -6.31092978      -9.47340012    
 Ni   11.0479097      -1.26218998     -0.728720009    
 Ni   11.0479097      -3.78656006      -5.10105991    
 Ni   11.0479097      -11.3596697      -9.47340012    
 Ni   11.0479097      -6.31092978     -0.728720009    
 Ni   11.0479097      -8.83530045      -5.10105991    
 Ni   13.0579996      -18.9327793      -10.9308395    
 Ni   13.0579996      -13.8840399      -2.18617010    
 Ni   13.0579996      -16.4084091      -6.55850983    
 Ni   13.0579996      -8.83530045      -10.9308395    
 Ni   13.0579996      -3.78656006      -2.18617010    
 Ni   13.0579996      -6.31092978      -6.55850983    
 Ni   13.0579996      -13.8840399      -10.9308395    
 Ni   13.0579996      -8.83530045      -2.18617010    
 Ni   13.0579996      -11.3596697      -6.55850983    
 Ni   15.0543699      -21.4571495      -12.3882904    
 Ni   15.0543699      -16.4084091      -3.64361000    
 Ni   15.0543699      -18.9327793      -8.01595020    
 Ni   15.0543699      -11.3596697      -12.3882904    
 Ni   15.0543699      -6.31092978      -3.64361000    
 Ni   15.0543699      -8.83530045      -8.01595020    
 Ni   15.0543699      -16.4084091      -12.3882904    
 Ni   15.0543699      -11.3596697      -3.64361000    
 Ni   15.0543699      -13.8840399      -8.01595020    
 Ni   3.02601004      -7.57311010      -5.82978010    
 Ni   3.02601004      -10.0974798      -10.2021198    
 Ni   3.02601004      -5.04873991      -1.45745003    
 Ni   3.02601004      -12.6218500      -5.82978010    
 Ni   3.02601004      -15.1462202      -10.2021198    
 Ni   3.02601004      -10.0974798      -1.45745003    
 Ni   3.02601004      -17.6705894      -5.82978010    
 Ni   3.02601004      -20.1949596      -10.2021198    
 Ni   3.02601004      -15.1462202      -1.45745003    
 Ni   5.02237988      -10.0974798      -7.28723001    
 Ni   5.02237988      -12.6218500      -11.6595697    
 Ni   5.02237988      -7.57311010      -2.91489005    
 Ni   5.02237988      -15.1462202      -7.28723001    
 Ni   5.02237988      -17.6705894      -11.6595697    
 Ni   5.02237988      -12.6218500      -2.91489005    
 Ni   5.02237988      -5.04873991      -7.28723001    
 Ni   5.02237988      -7.57311010      -11.6595697    
 Ni   5.02237988      -2.52436996      -2.91489005    
 Ni   7.03247023      -12.6218500      -8.74468040    
 Ni   7.03247023      -7.57311010       0.00000000    
 Ni   7.03247023      -10.0974798      -4.37234020    
 Ni   7.03247023      -17.6705894      -8.74468040    
 Ni   7.03247023      -12.6218500       0.00000000    
 Ni   7.03247023      -15.1462202      -4.37234020    
 Ni   7.03247023      -7.57311010      -8.74468040    
 Ni   7.03247023      -2.52436996       0.00000000    
 Ni   7.03247023      -5.04873991      -4.37234020    
 Ni   9.04018974      -15.1462202      -10.2021198    
 Ni   9.04018974      -10.0974798      -1.45745003    
 Ni   9.04018974      -12.6218500      -5.82978010    
 Ni   9.04018974      -20.1949596      -10.2021198    
 Ni   9.04018974      -15.1462202      -1.45745003    
 Ni   9.04018974      -17.6705894      -5.82978010    
 Ni   9.04018974      -10.0974798      -10.2021198    
 Ni   9.04018974      -5.04873991      -1.45745003    
 Ni   9.04018974      -7.57311010      -5.82978010    
 Ni   11.0479097      -17.6705894      -11.6595697    
 Ni   11.0479097      -12.6218500      -2.91489005    
 Ni   11.0479097      -15.1462202      -7.28723001    
 Ni   11.0479097      -7.57311010      -11.6595697    
 Ni   11.0479097      -2.52436996      -2.91489005    
 Ni   11.0479097      -5.04873991      -7.28723001    
 Ni   11.0479097      -12.6218500      -11.6595697    
 Ni   11.0479097      -7.57311010      -2.91489005    
 Ni   11.0479097      -10.0974798      -7.28723001    
 Ni   13.0579996      -12.6218500       0.00000000    
 Ni   13.0579996      -15.1462202      -4.37234020    
 Ni   13.0579996      -17.6705894      -8.74468040    
 Ni   13.0579996      -2.52436996       0.00000000    
 Ni   13.0579996      -5.04873991      -4.37234020    
 Ni   13.0579996      -7.57311010      -8.74468040    
 Ni   13.0579996      -7.57311010       0.00000000    
 Ni   13.0579996      -10.0974798      -4.37234020    
 Ni   13.0579996      -12.6218500      -8.74468040    
 Ni   15.0543699      -15.1462202      -1.45745003    
 Ni   15.0543699      -17.6705894      -5.82978010    
 Ni   15.0543699      -20.1949596      -10.2021198    
 Ni   15.0543699      -5.04873991      -1.45745003    
 Ni   15.0543699      -7.57311010      -5.82978010    
 Ni   15.0543699      -10.0974798      -10.2021198    
 Ni   15.0543699      -10.0974798      -1.45745003    
 Ni   15.0543699      -12.6218500      -5.82978010    
 Ni   15.0543699      -15.1462202      -10.2021198    
 Ni   3.02601004      -8.83530045      -3.64361000    
 Ni   3.02601004      -11.3596697      -8.01595020    
 Ni   3.02601004      -13.8840399      -12.3882904    
 Ni   3.02601004      -13.8840399      -3.64361000    
 Ni   3.02601004      -16.4084091      -8.01595020    
 Ni   3.02601004      -18.9327793      -12.3882904    
 Ni   3.02601004      -3.78656006      -3.64361000    
 Ni   3.02601004      -6.31092978      -8.01595020    
 Ni   3.02601004      -8.83530045      -12.3882904    
 Ni   5.02237988      -11.3596697      -5.10105991    
 Ni   5.02237988      -13.8840399      -9.47340012    
 Ni   5.02237988      -8.83530045     -0.728720009    
 Ni   5.02237988      -16.4084091      -5.10105991    
 Ni   5.02237988      -18.9327793      -9.47340012    
 Ni   5.02237988      -13.8840399     -0.728720009    
 Ni   5.02237988      -6.31092978      -5.10105991    
 Ni   5.02237988      -8.83530045      -9.47340012    
 Ni   5.02237988      -3.78656006     -0.728720009    
 Ni   7.03247023      -13.8840399      -6.55850983    
 Ni   7.03247023      -16.4084091      -10.9308395    
 Ni   7.03247023      -11.3596697      -2.18617010    
 Ni   7.03247023      -3.78656006      -6.55850983    
 Ni   7.03247023      -6.31092978      -10.9308395    
 Ni   7.03247023      -1.26218998      -2.18617010    
 Ni   7.03247023      -8.83530045      -6.55850983    
 Ni   7.03247023      -11.3596697      -10.9308395    
 Ni   7.03247023      -6.31092978      -2.18617010    
 Ni   9.04018974      -16.4084091      -8.01595020    
 Ni   9.04018974      -18.9327793      -12.3882904    
 Ni   9.04018974      -13.8840399      -3.64361000    
 Ni   9.04018974      -6.31092978      -8.01595020    
 Ni   9.04018974      -8.83530045      -12.3882904    
 Ni   9.04018974      -3.78656006      -3.64361000    
 Ni   9.04018974      -11.3596697      -8.01595020    
 Ni   9.04018974      -13.8840399      -12.3882904    
 Ni   9.04018974      -8.83530045      -3.64361000    
 Ni   11.0479097      -18.9327793      -9.47340012    
 Ni   11.0479097      -13.8840399     -0.728720009    
 Ni   11.0479097      -16.4084091      -5.10105991    
 Ni   11.0479097      -8.83530045      -9.47340012    
 Ni   11.0479097      -3.78656006     -0.728720009    
 Ni   11.0479097      -6.31092978      -5.10105991    
 Ni   11.0479097      -13.8840399      -9.47340012    
 Ni   11.0479097      -8.83530045     -0.728720009    
 Ni   11.0479097      -11.3596697      -5.10105991    
 Ni   13.0579996      -6.31092978      -10.9308395    
 Ni   13.0579996      -1.26218998      -2.18617010    
 Ni   13.0579996      -3.78656006      -6.55850983    
 Ni   13.0579996      -11.3596697      -10.9308395    
 Ni   13.0579996      -6.31092978      -2.18617010    
 Ni   13.0579996      -8.83530045      -6.55850983    
 Ni   13.0579996      -16.4084091      -10.9308395    
 Ni   13.0579996      -11.3596697      -2.18617010    
 Ni   13.0579996      -13.8840399      -6.55850983    
 Ni   15.0543699      -8.83530045      -12.3882904    
 Ni   15.0543699      -3.78656006      -3.64361000    
 Ni   15.0543699      -6.31092978      -8.01595020    
 Ni   15.0543699      -13.8840399      -12.3882904    
 Ni   15.0543699      -8.83530045      -3.64361000    
 Ni   15.0543699      -11.3596697      -8.01595020    
 Ni   15.0543699      -18.9327793      -12.3882904    
 Ni   15.0543699      -13.8840399      -3.64361000    
 Ni   15.0543699      -16.4084091      -8.01595020    
 N    16.5300007      -10.0974798      -7.28723001    
         261
 Energy:  -1296.2607983000000     
 X   0.00000000       0.00000000       0.00000000    
 X   0.00000000      -15.1462221       0.00000000    
 X   0.00000000      -7.57311106      -13.1170130    
 X   29.0000000       0.00000000       0.00000000    
 X   0.00000000      -22.7193336      -13.1170130    
 X   29.0000000      -15.1462221       0.00000000    
 X   29.0000000      -7.57311106      -13.1170130    
 X   29.0000000      -22.7193336      -13.1170130    
 Ni   3.02582002      -10.0974798      -5.82974005    
 Ni   3.02577996      -12.6218996      -10.2020998    
 Ni   3.02581000      -7.57316017      -1.45748997    
 Ni   3.02570009      -15.1462097      -5.82978010    
 Ni   3.02579999      -17.6705894      -10.2020302    
 Ni   3.02581000      -12.6218004      -1.45748997    
 Ni   3.02570009      -5.04874992      -5.82978010    
 Ni   3.02577996      -7.57307005      -10.2020998    
 Ni   3.02577996      -2.52436996      -1.45747006    
 Ni   5.02318001      -12.6218300      -7.28723001    
 Ni   5.02322006      -15.1461296      -11.6595201    
 Ni   5.02332020      -10.0974798      -2.91485000    
 Ni   5.02318001      -17.6705894      -7.28718996    
 Ni   5.02322006      -20.1950607      -11.6595201    
 Ni   5.02321005      -15.1462402      -2.91494012    
 Ni   5.02318001      -7.57313013      -7.28723001    
 Ni   5.02314997      -10.0974798      -11.6595898    
 Ni   5.02321005      -5.04871988      -2.91494012    
 Ni   7.03285980      -15.1463404      -8.74473953    
 Ni   7.03289986      -10.0974798      -7.99999980E-05
 Ni   7.03288984      -12.6218204      -4.37237978    
 Ni   7.03285980      -5.04862022      -8.74473953    
 Ni   7.03291988       9.99999975E-05   3.99999990E-05
 Ni   7.03287983      -2.52436996      -4.37235022    
 Ni   7.03276014      -10.0974798      -8.74468040    
 Ni   7.03291988      -5.04884005       3.99999990E-05
 Ni   7.03288984      -7.57314014      -4.37237978    
 Ni   9.03938961      -17.6705894      -10.2020798    
 Ni   9.03956032      -12.6218596      -1.45736003    
 Ni   9.03954983      -15.1462202      -5.82980013    
 Ni   9.03940964      -7.57312012      -10.2021999    
 Ni   9.03954029      -2.52436996      -1.45743001    
 Ni   9.03954983      -5.04874992      -5.82980013    
 Ni   9.03940964      -12.6218395      -10.2021999    
 Ni   9.03956032      -7.57310009      -1.45736003    
 Ni   9.03977966      -10.0974798      -5.82987022    
 Ni   11.0481396      -20.1950703      -11.6594601    
 Ni   11.0480604      -15.1462202      -2.91492009    
 Ni   11.0480804      -17.6705894      -7.28722000    
 Ni   11.0481100      -10.0974798      -11.6595497    
 Ni   11.0480604      -5.04873991      -2.91492009    
 Ni   11.0479603      -7.57273006      -7.28743982    
 Ni   11.0481396      -15.1461096      -11.6594601    
 Ni   11.0468397      -10.0974798      -2.91387010    
 Ni   11.0479603      -12.6222296      -7.28743982    
 Ni   13.0585899       9.99999975E-05  -9.99999975E-06
 Ni   13.0584602      -2.52436996      -4.37229013    
 Ni   13.0583801      -5.04904985      -8.74452972    
 Ni   13.0585899      -5.04884005      -9.99999975E-06
 Ni   13.0587797      -7.57317019      -4.37259007    
 Ni   13.0555601      -10.0974798      -8.74563026    
 Ni   13.0585804      -10.0974798      -2.99999992E-05
 Ni   13.0587797      -12.6217899      -4.37259007    
 Ni   13.0583801      -15.1459103      -8.74452972    
 Ni   15.0534496      -2.52436996      -1.45749998    
 Ni   15.0530901      -5.04871988      -5.82978010    
 Ni   15.0524502      -7.57249022      -10.2020502    
 Ni   15.0532799      -7.57302999      -1.45738995    
 Ni   15.0892200      -10.0974798      -5.84997988    
 Ni   15.0524502      -12.6224699      -10.2020502    
 Ni   15.0532799      -12.6219301      -1.45738995    
 Ni   15.0530901      -15.1462498      -5.82978010    
 Ni   15.0533304      -17.6705894      -10.2020798    
 Ni   3.02570009      -6.31092978      -3.64363003    
 Ni   3.02582002      -8.83526039      -8.01597977    
 Ni   3.02570009      -11.3596601      -12.3882799    
 Ni   3.02577996      -11.3596296      -3.64358997    
 Ni   3.02577996      -13.8840399      -8.01599979    
 Ni   3.02579999      -16.4083309      -12.3883400    
 Ni   3.02577996      -16.4084301      -3.64359999    
 Ni   3.02581000      -18.9328403      -8.01597977    
 Ni   3.02581000      -21.4571609      -12.3882303    
 Ni   5.02318001      -8.83530998      -5.10107994    
 Ni   5.02318001      -11.3596601      -9.47338009    
 Ni   5.02318001      -6.31089020     -0.728739977    
 Ni   5.02314997      -13.8840599      -5.10104990    
 Ni   5.02322006      -16.4083195      -9.47334003    
 Ni   5.02322006      -11.3596697     -0.728829980    
 Ni   5.02321005      -3.78659010      -5.10101986    
 Ni   5.02332020      -6.31089020      -9.47342014    
 Ni   5.02321005      -1.26223004     -0.728720009    
 Ni   7.03276014      -11.3596697      -6.55850983    
 Ni   7.03285980      -13.8841496      -10.9309101    
 Ni   7.03285980      -8.83528996      -2.18602991    
 Ni   7.03291988      -16.4084206      -6.55861998    
 Ni   7.03289986      -18.9328499      -10.9308004    
 Ni   7.03291988      -13.8839502      -2.18610001    
 Ni   7.03288984      -6.31097984      -6.55850983    
 Ni   7.03288984      -8.83532047      -10.9308004    
 Ni   7.03287983      -3.78657007      -2.18616009    
 Ni   9.03940964      -13.8841000      -8.01589966    
 Ni   9.03938961      -16.4083691      -12.3883104    
 Ni   9.03940964      -11.3597403      -3.64358997    
 Ni   9.03956032      -18.9326992      -8.01599026    
 Ni   9.03956032      -21.4570808      -12.3883400    
 Ni   9.03954029      -16.4083996      -3.64362001    
 Ni   9.03977966      -8.83537006      -8.01591015    
 Ni   9.03954983      -11.3596802      -12.3882799    
 Ni   9.03954983      -6.31093979      -3.64361000    
 Ni   11.0481396      -16.4082603      -9.47336006    
 Ni   11.0481396      -11.3596296     -0.728869975    
 Ni   11.0481100      -13.8840303      -5.10106993    
 Ni   11.0468397      -6.31004000      -9.47391033    
 Ni   11.0480604      -1.26221001     -0.728709996    
 Ni   11.0480604      -3.78658009      -5.10104990    
 Ni   11.0479603      -11.3600397      -9.47362041    
 Ni   11.0480804      -6.31091976     -0.728730023    
 Ni   11.0479603      -8.83528996      -5.10061979    
 Ni   13.0585804      -18.9328003      -10.9308300    
 Ni   13.0585899      -13.8839903      -2.18607998    
 Ni   13.0585899      -16.4084702      -6.55858994    
 Ni   13.0587797      -8.83547974      -10.9306698    
 Ni   13.0584602      -3.78650999      -2.18618989    
 Ni   13.0587797      -6.31117010      -6.55844021    
 Ni   13.0583801      -13.8837605      -10.9306402    
 Ni   13.0583801      -8.83533001      -2.18651009    
 Ni   13.0555601      -11.3604898      -6.55803013    
 Ni   15.0532799      -21.4571400      -12.3883896    
 Ni   15.0534496      -16.4084606      -3.64358997    
 Ni   15.0532799      -18.9326897      -8.01591015    
 Ni   15.0530901      -11.3596802      -12.3883104    
 Ni   15.0530901      -6.31091022      -3.64358997    
 Ni   15.0892200      -8.85278988      -8.00584984    
 Ni   15.0533304      -16.4083691      -12.3883104    
 Ni   15.0524502      -11.3592997      -3.64311004    
 Ni   15.0524502      -13.8842897      -8.01651955    
 Ni   3.02576995      -7.57310009      -5.82978010    
 Ni   3.02576995      -10.0974798      -10.2021303    
 Ni   3.02585006      -5.04870987      -1.45746005    
 Ni   3.02576995      -12.6218596      -5.82978010    
 Ni   3.02574992      -15.1462402      -10.2021303    
 Ni   3.02574992      -10.0974798      -1.45743001    
 Ni   3.02585006      -17.6705894      -5.82975006    
 Ni   3.02574992      -20.1949501      -10.2021303    
 Ni   3.02585006      -15.1462498      -1.45746005    
 Ni   5.02309990      -10.0974798      -7.28723001    
 Ni   5.02313995      -12.6218004      -11.6595697    
 Ni   5.02313995      -7.57309008      -2.91493011    
 Ni   5.02313995      -15.1462002      -7.28718996    
 Ni   5.02334023      -17.6705894      -11.6595697    
 Ni   5.02313995      -12.6218796      -2.91493011    
 Ni   5.02313995      -5.04875994      -7.28718996    
 Ni   5.02313995      -7.57316017      -11.6595697    
 Ni   5.02328014      -2.52436996      -2.91489005    
 Ni   7.03292990      -12.6217604      -8.74462032    
 Ni   7.03283024      -7.57309008      -9.99999975E-06
 Ni   7.03292990      -10.0974798      -4.37243986    
 Ni   7.03283024      -17.6705894      -8.74466038    
 Ni   7.03283024      -12.6218700      -9.99999975E-06
 Ni   7.03291988      -15.1461802      -4.37236023    
 Ni   7.03292990      -7.57320023      -8.74462032    
 Ni   7.03291988      -2.52436996       3.99999990E-05
 Ni   7.03291988      -5.04877996      -4.37236023    
 Ni   9.03923988      -15.1463003      -10.2021704    
 Ni   9.03923988      -10.0974798      -1.45735002    
 Ni   9.03966999      -12.6218100      -5.82981014    
 Ni   9.03923988      -20.1948795      -10.2021704    
 Ni   9.03956032      -15.1461601      -1.45740998    
 Ni   9.03956032      -17.6705894      -5.82985020    
 Ni   9.03966999      -10.0974798      -10.2020702    
 Ni   9.03956032      -5.04879999      -1.45740998    
 Ni   9.03966999      -7.57316017      -5.82981014    
 Ni   11.0479603      -17.6705894      -11.6595697    
 Ni   11.0480900      -12.6217403      -2.91493011    
 Ni   11.0480900      -15.1461296      -7.28731012    
 Ni   11.0480900      -7.57308006      -11.6594496    
 Ni   11.0480299      -2.52436996      -2.91489005    
 Ni   11.0480900      -5.04883003      -7.28731012    
 Ni   11.0480900      -12.6218796      -11.6594496    
 Ni   11.0480900      -7.57322979      -2.91493011    
 Ni   11.0486298      -10.0974798      -7.28723001    
 Ni   13.0585299      -12.6217804       3.99999990E-05
 Ni   13.0584698      -15.1463099      -4.37229013    
 Ni   13.0585299      -17.6705894      -8.74475002    
 Ni   13.0584698      -2.52436996      -9.99999975E-05
 Ni   13.0584698      -5.04864979      -4.37229013    
 Ni   13.0592804      -7.57344007      -8.74448967    
 Ni   13.0585299      -7.57318020       3.99999990E-05
 Ni   13.0592804      -10.0974798      -4.37271023    
 Ni   13.0592804      -12.6215296      -8.74448967    
 Ni   15.0532303      -15.1462402      -1.45746005    
 Ni   15.0532303      -17.6705894      -5.82976007    
 Ni   15.0533504      -20.1948395      -10.2021904    
 Ni   15.0532303      -5.04871988      -1.45746005    
 Ni   15.0530300      -7.56902981      -5.82742977    
 Ni   15.0530300      -10.0974798      -10.2068396    
 Ni   15.0533504      -10.0974798      -1.45730996    
 Ni   15.0530300      -12.6259403      -5.82742977    
 Ni   15.0533504      -15.1463404      -10.2021904    
 Ni   3.02577996      -8.83533001      -3.64358997    
 Ni   3.02582002      -11.3597097      -8.01597977    
 Ni   3.02581000      -13.8840303      -12.3882303    
 Ni   3.02570009      -13.8840303      -3.64363003    
 Ni   3.02581000      -16.4083500      -8.01597977    
 Ni   3.02579999      -18.9328594      -12.3883400    
 Ni   3.02577996      -3.78653002      -3.64359999    
 Ni   3.02577996      -6.31091976      -8.01599979    
 Ni   3.02570009      -8.83530045      -12.3882799    
 Ni   5.02318001      -11.3596497      -5.10107994    
 Ni   5.02332020      -13.8840704      -9.47342014    
 Ni   5.02322006      -8.83528996     -0.728829980    
 Ni   5.02321005      -16.4083805      -5.10101986    
 Ni   5.02322006      -18.9328594      -9.47334003    
 Ni   5.02318001      -13.8840704     -0.728739977    
 Ni   5.02314997      -6.31090021      -5.10104990    
 Ni   5.02318001      -8.83530045      -9.47338009    
 Ni   5.02321005      -3.78650999     -0.728720009    
 Ni   7.03288984      -13.8839798      -6.55850983    
 Ni   7.03289986      -16.4083405      -10.9308004    
 Ni   7.03285980      -11.3596697      -2.18602991    
 Ni   7.03291988      -3.78654003      -6.55861998    
 Ni   7.03285980      -6.31081009      -10.9309101    
 Ni   7.03287983      -1.26216996      -2.18616009    
 Ni   7.03276014      -8.83528996      -6.55850983    
 Ni   7.03288984      -11.3596401      -10.9308004    
 Ni   7.03291988      -6.31100988      -2.18610001    
 Ni   9.03956032      -16.4084892      -8.01599026    
 Ni   9.03938961      -18.9328098      -12.3883104    
 Ni   9.03954983      -13.8840199      -3.64361000    
 Ni   9.03940964      -6.31087017      -8.01589966    
 Ni   9.03954983      -8.83528996      -12.3882799    
 Ni   9.03954029      -3.78657007      -3.64362001    
 Ni   9.03977966      -11.3596001      -8.01591015    
 Ni   9.03956032      -13.8841105      -12.3883400    
 Ni   9.03940964      -8.83522034      -3.64358997    
 Ni   11.0481396      -18.9329300      -9.47336006    
 Ni   11.0480804      -13.8840504     -0.728730023    
 Ni   11.0480604      -16.4083805      -5.10104990    
 Ni   11.0479603      -8.83491993      -9.47362041    
 Ni   11.0480604      -3.78653002     -0.728709996    
 Ni   11.0481100      -6.31093979      -5.10106993    
 Ni   11.0468397      -13.8849201      -9.47391033    
 Ni   11.0481396      -8.83533955     -0.728869975    
 Ni   11.0479603      -11.3596697      -5.10061979    
 Ni   13.0583801      -6.31120014      -10.9306402    
 Ni   13.0584602      -1.26223004      -2.18618989    
 Ni   13.0585899      -3.78649998      -6.55858994    
 Ni   13.0587797      -11.3594799      -10.9306698    
 Ni   13.0585899      -6.31096983      -2.18607998    
 Ni   13.0555601      -8.83446980      -6.55803013    
 Ni   13.0585804      -16.4083805      -10.9308300    
 Ni   13.0583801      -11.3596296      -2.18651009    
 Ni   13.0587797      -13.8837900      -6.55844021    
 Ni   15.0530901      -8.83528042      -12.3883104    
 Ni   15.0534496      -3.78650999      -3.64358997    
 Ni   15.0524502      -6.31067991      -8.01651955    
 Ni   15.0532799      -13.8840399      -12.3883896    
 Ni   15.0524502      -8.83565998      -3.64311004    
 Ni   15.0892200      -11.3421803      -8.00584984    
 Ni   15.0533304      -18.9328194      -12.3883104    
 Ni   15.0530901      -13.8840504      -3.64358997    
 Ni   15.0532799      -16.4085007      -8.01591015    
 N    16.4400997      -10.0974798      -7.28723001    
         261
 Energy:  -1297.0534479000000     
 X   0.00000000       0.00000000       0.00000000    
 X   0.00000000      -15.1462221       0.00000000    
 X   0.00000000      -7.57311106      -13.1170130    
 X   29.0000000       0.00000000       0.00000000    
 X   0.00000000      -22.7193336      -13.1170130    
 X   29.0000000      -15.1462221       0.00000000    
 X   29.0000000      -7.57311106      -13.1170130    
 X   29.0000000      -22.7193336      -13.1170130    
 Ni   3.02526999      -10.0974798      -5.82959986    
 Ni   3.02508998      -12.6220303      -10.2020502    
 Ni   3.02520990      -7.57330990      -1.45761001    
 Ni   3.02478004      -15.1461697      -5.82978010    
 Ni   3.02519989      -17.6705894      -10.2017498    
 Ni   3.02520990      -12.6216497      -1.45761001    
 Ni   3.02478004      -5.04878998      -5.82978010    
 Ni   3.02508998      -7.57292986      -10.2020502    
 Ni   3.02509999      -2.52436996      -1.45755005    
 Ni   5.02560997      -12.6217604      -7.28725004    
 Ni   5.02573013      -15.1458502      -11.6593800    
 Ni   5.02615023      -10.0974798      -2.91474009    
 Ni   5.02558994      -17.6705894      -7.28704977    