       N       E                     dE             d eps       ncg     rms          rms(c)
DAV:   1     0.181693946549E+05    0.18169E+05   -0.91510E+05  6096   0.112E+03
DAV:   2    -0.183396618830E+03   -0.18353E+05   -0.17353E+05  6456   0.399E+02
DAV:   3    -0.140502639447E+04   -0.12216E+04   -0.10083E+04  6972   0.103E+02
DAV:   4    -0.156822078179E+04   -0.16319E+03   -0.14520E+03 11016   0.376E+01
DAV:   5    -0.157377416491E+04   -0.55534E+01   -0.53273E+01  9924   0.679E+00    0.147E+02
DAV:   6    -0.184290920033E+04   -0.26914E+03   -0.32148E+03  6756   0.143E+02    0.249E+02
DAV:   7    -0.191729459080E+04   -0.74385E+02   -0.12990E+03  6600   0.153E+02    0.207E+02
DAV:   8    -0.257311678379E+04   -0.65582E+03   -0.48725E+02  7152   0.145E+02    0.317E+02
DAV:   9    -0.161925679353E+04    0.95386E+03   -0.28402E+02  6840   0.853E+01    0.217E+02
DAV:  10    -0.143710032602E+04    0.18216E+03   -0.38526E+02  7224   0.602E+01    0.142E+02
DAV:  11    -0.150941452381E+04   -0.72314E+02   -0.34368E+02  7056   0.905E+01    0.182E+02
DAV:  12    -0.150564262278E+04    0.37719E+01   -0.24325E+02  6576   0.699E+01    0.154E+02
DAV:  13    -0.139257465641E+04    0.11307E+03   -0.15275E+02  6456   0.541E+01    0.134E+02
DAV:  14    -0.134968774508E+04    0.42887E+02   -0.75138E+01  6456   0.385E+01    0.116E+02
DAV:  15    -0.134819017017E+04    0.14976E+01   -0.50067E+01  6552   0.333E+01    0.120E+02
DAV:  16    -0.134301622966E+04    0.51739E+01   -0.46016E+01  6576   0.319E+01    0.102E+02
DAV:  17    -0.133756589201E+04    0.54503E+01   -0.35235E+01  6480   0.299E+01    0.108E+02
DAV:  18    -0.132133202852E+04    0.16234E+02   -0.21899E+01  6504   0.205E+01    0.827E+01
DAV:  19    -0.132034723900E+04    0.98479E+00   -0.14388E+01  6600   0.171E+01    0.779E+01
DAV:  20    -0.131387900628E+04    0.64682E+01   -0.10249E+01  6552   0.143E+01    0.615E+01
DAV:  21    -0.130701485397E+04    0.68642E+01   -0.69005E+00  6576   0.120E+01    0.507E+01
DAV:  22    -0.130628832682E+04    0.72653E+00   -0.46310E+00  6576   0.954E+00    0.532E+01
DAV:  23    -0.130301117498E+04    0.32772E+01   -0.30432E+00  6528   0.724E+00    0.417E+01
DAV:  24    -0.130078808444E+04    0.22231E+01   -0.22496E+00  6528   0.681E+00    0.341E+01
DAV:  25    -0.129866299973E+04    0.21251E+01   -0.16498E+00  6528   0.591E+00    0.263E+01
DAV:  26    -0.129852960970E+04    0.13339E+00   -0.15953E+00  6600   0.567E+00    0.278E+01
DAV:  27    -0.129792453846E+04    0.60507E+00   -0.10912E+00  6600   0.422E+00    0.236E+01
DAV:  28    -0.129773708351E+04    0.18745E+00   -0.12327E+00  6600   0.485E+00    0.244E+01
DAV:  29    -0.129829526276E+04   -0.55818E+00   -0.14705E+00  6600   0.575E+00    0.262E+01
DAV:  30    -0.129792352575E+04    0.37174E+00   -0.14299E+00  6804   0.488E+00    0.252E+01
DAV:  31    -0.129827004591E+04   -0.34652E+00   -0.18495E+00  6672   0.634E+00    0.281E+01
DAV:  32    -0.129720597374E+04    0.10641E+01   -0.11144E+00  6432   0.487E+00    0.254E+01
DAV:  33    -0.129629200607E+04    0.91397E+00   -0.66652E-01  6456   0.327E+00    0.153E+01
DAV:  34    -0.129603883274E+04    0.25317E+00   -0.39474E-01  6636   0.249E+00    0.116E+01
DAV:  35    -0.129619831434E+04   -0.15948E+00   -0.36611E-01  6552   0.256E+00    0.143E+01
DAV:  36    -0.129617102618E+04    0.27288E-01   -0.41270E-01  6504   0.249E+00    0.137E+01
DAV:  37    -0.129597300836E+04    0.19802E+00   -0.18358E-01  6480   0.181E+00    0.112E+01
DAV:  38    -0.129589306902E+04    0.79939E-01   -0.99865E-02  6486   0.125E+00    0.971E+00
DAV:  39    -0.129578931942E+04    0.10375E+00   -0.91752E-02  6552   0.133E+00    0.784E+00
DAV:  40    -0.129574661883E+04    0.42701E-01   -0.55459E-02  6492   0.101E+00    0.693E+00
DAV:  41    -0.129572344585E+04    0.23173E-01   -0.63903E-02  6648   0.106E+00    0.654E+00
DAV:  42    -0.129564365543E+04    0.79790E-01   -0.52674E-02  6672   0.950E-01    0.452E+00
DAV:  43    -0.129567243682E+04   -0.28781E-01   -0.56698E-02  6756   0.971E-01    0.543E+00
DAV:  44    -0.129562428110E+04    0.48156E-01   -0.40416E-02  6864   0.766E-01    0.379E+00
DAV:  45    -0.129561782208E+04    0.64590E-02   -0.28928E-02  7080   0.654E-01    0.337E+00
DAV:  46    -0.129560636153E+04    0.11461E-01   -0.24069E-02  6888   0.549E-01    0.252E+00
DAV:  47    -0.129559682004E+04    0.95415E-02   -0.18482E-02  6672   0.539E-01    0.183E+00
DAV:  48    -0.129560422810E+04   -0.74081E-02   -0.12259E-02  6612   0.428E-01    0.237E+00
DAV:  49    -0.129559632365E+04    0.79044E-02   -0.79620E-03  6492   0.341E-01    0.153E+00
DAV:  50    -0.129559578955E+04    0.53411E-03   -0.37950E-03  6504   0.219E-01    0.153E+00
DAV:  51    -0.129559787460E+04   -0.20851E-02   -0.61194E-03  7608   0.327E-01    0.116E+00
DAV:  52    -0.129559564861E+04    0.22260E-02   -0.48138E-03  6852   0.289E-01    0.828E-01
DAV:  53    -0.129559510517E+04    0.54344E-03   -0.18652E-03  6456   0.157E-01    0.438E-01
DAV:  54    -0.129559639535E+04   -0.12902E-02   -0.16797E-03  6816   0.165E-01    0.616E-01
DAV:  55    -0.129559576090E+04    0.63445E-03   -0.11675E-03  6456   0.149E-01    0.308E-01
DAV:  56    -0.129559646241E+04   -0.70150E-03   -0.79746E-04  6852   0.119E-01    0.447E-01
DAV:  57    -0.129559674971E+04   -0.28730E-03   -0.66700E-04  6552   0.105E-01    0.260E-01
DAV:  58    -0.129559687896E+04   -0.12925E-03   -0.30451E-04  6912   0.711E-02    0.211E-01
DAV:  59    -0.129559744576E+04   -0.56680E-03   -0.22749E-04  6612   0.582E-02    0.169E-01
DAV:  60    -0.129559767288E+04   -0.22712E-03   -0.15382E-04  6576   0.518E-02
   1 F= -.12955977E+04 E0= -.12949151E+04  d E =-.129560E+04
       N       E                     dE             d eps       ncg     rms          rms(c)
DAV:   1    -0.129611511957E+04   -0.51767E+00   -0.88149E+01  6102   0.841E+00    0.172E+00
DAV:   2    -0.129709547734E+04   -0.98036E+00   -0.16665E+00  7632   0.320E+00    0.176E+01
DAV:   3    -0.129699656647E+04    0.98911E-01   -0.79406E-01  6528   0.360E+00    0.191E+01
DAV:   4    -0.129638745905E+04    0.60911E+00   -0.50213E-01  6720   0.268E+00    0.699E+00
DAV:   5    -0.129644854349E+04   -0.61084E-01   -0.25184E-01  7008   0.213E+00    0.823E+00
DAV:   6    -0.129655558980E+04   -0.10705E+00   -0.31007E-01  6756   0.227E+00    0.103E+01
DAV:   7    -0.129645296956E+04    0.10262E+00   -0.35480E-01  6672   0.222E+00    0.807E+00
DAV:   8    -0.129635526502E+04    0.97705E-01   -0.17225E-01  6624   0.167E+00    0.606E+00
DAV:   9    -0.129631242875E+04    0.42836E-01   -0.94655E-02  6720   0.117E+00    0.430E+00
DAV:  10    -0.129629121126E+04    0.21217E-01   -0.53881E-02  6732   0.958E-01    0.301E+00
DAV:  11    -0.129628610332E+04    0.51079E-02   -0.33907E-02  6744   0.846E-01    0.306E+00
DAV:  12    -0.129627820457E+04    0.78987E-02   -0.29003E-02  7356   0.699E-01    0.275E+00
DAV:  13    -0.129627423460E+04    0.39700E-02   -0.19874E-02  6816   0.613E-01    0.231E+00
DAV:  14    -0.129629744268E+04   -0.23208E-01   -0.29882E-02  6708   0.683E-01    0.367E+00
DAV:  15    -0.129627390350E+04    0.23539E-01   -0.30434E-02  6696   0.650E-01    0.215E+00
DAV:  16    -0.129626272690E+04    0.11177E-01   -0.81177E-03  6960   0.410E-01    0.937E-01
DAV:  17    -0.129626277231E+04   -0.45412E-04   -0.29655E-03  6756   0.246E-01    0.840E-01
DAV:  18    -0.129626273562E+04    0.36695E-04   -0.27174E-03  6576   0.240E-01    0.857E-01
DAV:  19    -0.129626128816E+04    0.14475E-02   -0.12854E-03  6552   0.162E-01    0.576E-01
DAV:  20    -0.129626130484E+04   -0.16676E-04   -0.48262E-04  6660   0.960E-02    0.552E-01
DAV:  21    -0.129626103866E+04    0.26618E-03   -0.40541E-04  6612   0.936E-02    0.354E-01
DAV:  22    -0.129626074942E+04    0.28924E-03   -0.24280E-04  6624   0.735E-02    0.149E-01
DAV:  23    -0.129626075576E+04   -0.63420E-05   -0.99074E-05  6552   0.459E-02    0.129E-01
DAV:  24    -0.129626089670E+04   -0.14094E-03   -0.10000E-04  6624   0.506E-02    0.224E-01
DAV:  25    -0.129626079534E+04    0.10136E-03   -0.82147E-05  6672   0.471E-02    0.122E-01
DAV:  26    -0.129626079837E+04   -0.30348E-05   -0.24084E-05  5568   0.209E-02
   2 F= -.12962608E+04 E0= -.12955785E+04  d E =-.663125E+00
       N       E                     dE             d eps       ncg     rms          rms(c)
DAV:   1    -0.129510290692E+04    0.11579E+01   -0.82371E+02  6120   0.261E+01    0.741E+00
DAV:   2    -0.130330968966E+04   -0.82068E+01   -0.21418E+01  7668   0.957E+00    0.433E+01
DAV:   3    -0.130259398398E+04    0.71571E+00   -0.57803E+00  6462   0.107E+01    0.473E+01
DAV:   4    -0.129903286000E+04    0.35611E+01   -0.32232E+00  6696   0.894E+00    0.275E+01
DAV:   5    -0.129939050397E+04   -0.35764E+00   -0.24169E+00  6768   0.774E+00    0.272E+01
DAV:   6    -0.130024769787E+04   -0.85719E+00   -0.25088E+00  6780   0.792E+00    0.328E+01
DAV:   7    -0.129974451750E+04    0.50318E+00   -0.24962E+00  6816   0.789E+00    0.291E+01
DAV:   8    -0.129930529614E+04    0.43922E+00   -0.21461E+00  6780   0.700E+00    0.273E+01
DAV:   9    -0.129874831457E+04    0.55698E+00   -0.20497E+00  6816   0.602E+00    0.234E+01
DAV:  10    -0.129857001040E+04    0.17830E+00   -0.17774E+00  6684   0.604E+00    0.203E+01
DAV:  11    -0.129825717112E+04    0.31284E+00   -0.11361E+00  6660   0.525E+00    0.202E+01
DAV:  12    -0.129751067330E+04    0.74650E+00   -0.91972E-01  6684   0.382E+00    0.122E+01
DAV:  13    -0.129726159604E+04    0.24908E+00   -0.30555E-01  6864   0.264E+00    0.942E+00
DAV:  14    -0.129730049264E+04   -0.38897E-01   -0.25389E-01  6768   0.195E+00    0.988E+00
DAV:  15    -0.129742331349E+04   -0.12282E+00   -0.39597E-01  6804   0.237E+00    0.113E+01
DAV:  16    -0.129715458422E+04    0.26873E+00   -0.25598E-01  6852   0.224E+00    0.587E+00
DAV:  17    -0.129709243659E+04    0.62148E-01   -0.83576E-02  6708   0.136E+00    0.368E+00
DAV:  18    -0.129713251936E+04   -0.40083E-01   -0.87975E-02  6804   0.131E+00    0.459E+00
DAV:  19    -0.129706983896E+04    0.62680E-01   -0.63392E-02  6672   0.119E+00    0.249E+00
DAV:  20    -0.129705766969E+04    0.12169E-01   -0.15835E-02  6432   0.553E-01    0.157E+00
DAV:  21    -0.129706236200E+04   -0.46923E-02   -0.10449E-02  6600   0.447E-01    0.189E+00
DAV:  22    -0.129706065798E+04    0.17040E-02   -0.10826E-02  6540   0.497E-01    0.168E+00
DAV:  23    -0.129705532040E+04    0.53376E-02   -0.48805E-03  6432   0.331E-01    0.122E+00
DAV:  24    -0.129705573008E+04   -0.40968E-03   -0.24088E-03  6708   0.208E-01    0.119E+00
DAV:  25    -0.129705347439E+04    0.22557E-02   -0.19666E-03  6600   0.204E-01    0.531E-01
DAV:  26    -0.129705278260E+04    0.69179E-03   -0.92708E-04  6600   0.143E-01    0.263E-01
DAV:  27    -0.129705350823E+04   -0.72563E-03   -0.89022E-04  6768   0.132E-01    0.476E-01
DAV:  28    -0.129705313007E+04    0.37816E-03   -0.80060E-04  6708   0.129E-01    0.338E-01
DAV:  29    -0.129705298168E+04    0.14840E-03   -0.26979E-04  6504   0.750E-02    0.242E-01
DAV:  30    -0.129705307033E+04   -0.88653E-04   -0.18132E-04  6588   0.600E-02    0.201E-01
DAV:  31    -0.129705302436E+04    0.45973E-04   -0.14368E-04  6492   0.528E-02    0.137E-01
DAV:  32    -0.129705304256E+04   -0.18205E-04   -0.50845E-05  6648   0.265E-02    0.127E-01
DAV:  33    -0.129705312218E+04   -0.79624E-04   -0.48599E-05  6660   0.284E-02    0.914E-02
DAV:  34    -0.129705312997E+04   -0.77874E-05   -0.29555E-05  6024   0.234E-02    0.331E-02
DAV:  35    -0.129705317130E+04   -0.41328E-04   -0.14548E-05  4428   0.156E-02    0.571E-02
DAV:  36    -0.129705323795E+04   -0.66646E-04   -0.14863E-05  4752   0.153E-02    0.550E-02
DAV:  37    -0.129705325384E+04   -0.15898E-04   -0.74722E-06  3912   0.112E-02    0.445E-02
DAV:  38    -0.129705328932E+04   -0.35479E-04   -0.57019E-06  3816   0.970E-03    0.449E-02
DAV:  39    -0.129705334354E+04   -0.54217E-04   -0.80188E-06  4320   0.100E-02    0.218E-02
DAV:  40    -0.129705335244E+04   -0.88971E-05   -0.34946E-06  3672   0.623E-03    0.134E-02
DAV:  41    -0.129705338924E+04   -0.36805E-04   -0.40276E-06  3660   0.684E-03    0.262E-02
DAV:  42    -0.129705341192E+04   -0.22683E-04   -0.44205E-06  4068   0.695E-03    0.122E-02
DAV:  43    -0.129705341841E+04   -0.64822E-05   -0.19906E-06  3444   0.413E-03    0.134E-02
DAV:  44    -0.129705343706E+04   -0.18657E-04   -0.26613E-06  3660   0.497E-03    0.156E-02
DAV:  45    -0.129705344483E+04   -0.77661E-05   -0.22787E-06  3756   0.460E-03    0.938E-03
DAV:  46    -0.129705344799E+04   -0.31589E-05   -0.11736E-06  3336   0.278E-03
   3 F= -.12970534E+04 E0= -.12963706E+04  d E =-.145578E+01
       N       E                     dE             d eps       ncg     rms          rms(c)
DAV:   1    -0.129694975871E+04    0.10369E+00   -0.11317E+02  6072   0.897E+00    0.347E+00
DAV:   2    -0.129749881182E+04   -0.54905E+00   -0.22822E+00  8460   0.232E+00    0.130E+01
DAV:   3    -0.129886018912E+04   -0.13614E+01   -0.82796E-01  6588   0.421E+00    0.286E+01
DAV:   4    -0.129824478598E+04    0.61540E+00   -0.13449E+00  7224   0.473E+00    0.208E+01
DAV:   5    -0.129859341379E+04   -0.34863E+00   -0.13302E+00  7224   0.501E+00    0.217E+01
DAV:   6    -0.129773832872E+04    0.85509E+00   -0.98781E-01  6756   0.446E+00    0.144E+01
DAV:   7    -0.129730489499E+04    0.43343E+00   -0.59037E-01  6612   0.280E+00    0.767E+00
DAV:   8    -0.129725062230E+04    0.54273E-01   -0.22967E-01  6636   0.206E+00    0.698E+00
DAV:   9    -0.129736215402E+04   -0.11153E+00   -0.25653E-01  6864   0.203E+00    0.927E+00
DAV:  10    -0.129738474743E+04   -0.22593E-01   -0.25715E-01  6792   0.229E+00    0.861E+00
DAV:  11    -0.129722853777E+04    0.15621E+00   -0.20726E-01  6648   0.214E+00    0.532E+00
DAV:  12    -0.129720034387E+04    0.28194E-01   -0.10532E-01  6648   0.146E+00    0.510E+00
DAV:  13    -0.129718176731E+04    0.18577E-01   -0.85751E-02  6816   0.117E+00    0.404E+00
DAV:  14    -0.129721866642E+04   -0.36899E-01   -0.82648E-02  6744   0.124E+00    0.535E+00
DAV:  15    -0.129721388360E+04    0.47828E-02   -0.97440E-02  6672   0.119E+00    0.532E+00
DAV:  16    -0.129715128524E+04    0.62598E-01   -0.51274E-02  6648   0.950E-01    0.234E+00
DAV:  17    -0.129713989796E+04    0.11387E-01   -0.11048E-02  6648   0.475E-01    0.148E+00
DAV:  18    -0.129714027832E+04   -0.38036E-03   -0.47878E-03  6684   0.309E-01    0.136E+00
DAV:  19    -0.129713808353E+04    0.21948E-02   -0.34723E-03  6744   0.309E-01    0.902E-01
DAV:  20    -0.129713589973E+04    0.21838E-02   -0.23694E-03  6648   0.233E-01    0.503E-01
DAV:  21    -0.129713633621E+04   -0.43648E-03   -0.12560E-03  6960   0.157E-01    0.563E-01
DAV:  22    -0.129713576818E+04    0.56803E-03   -0.85546E-04  6576   0.137E-01    0.365E-01
DAV:  23    -0.129713543334E+04    0.33484E-03   -0.41158E-04  6720   0.871E-02    0.184E-01
DAV:  24    -0.129713550691E+04   -0.73568E-04   -0.20074E-04  6768   0.597E-02    0.207E-01
DAV:  25    -0.129713552297E+04   -0.16058E-04   -0.17064E-04  6576   0.584E-02    0.211E-01
DAV:  26    -0.129713546511E+04    0.57855E-04   -0.91346E-05  6432   0.423E-02    0.176E-01
DAV:  27    -0.129713547251E+04   -0.73971E-05   -0.45373E-05  6624   0.283E-02    0.144E-01
DAV:  28    -0.129713545558E+04    0.16932E-04   -0.37994E-05  6252   0.286E-02    0.674E-02
DAV:  29    -0.129713545301E+04    0.25686E-05   -0.15344E-05  4236   0.162E-02
   4 F= -.12971355E+04 E0= -.12964531E+04  d E =-.153778E+01
       N       E                     dE             d eps       ncg     rms          rms(c)
DAV:   1    -0.129715867339E+04   -0.23218E-01   -0.13006E+01  6072   0.311E+00    0.906E-01
DAV:   2    -0.129720727766E+04   -0.48604E-01   -0.24437E-01  8160   0.735E-01    0.310E+00
DAV:   3    -0.129719621048E+04    0.11067E-01   -0.40611E-02  6624   0.864E-01    0.274E+00
DAV:   4    -0.129734827494E+04   -0.15206E+00   -0.46957E-02  7056   0.115E+00    0.930E+00
DAV:   5    -0.129726301665E+04    0.85258E-01   -0.10957E-01  6840   0.131E+00    0.575E+00
DAV:   6    -0.129728683176E+04   -0.23815E-01   -0.10941E-01  6984   0.130E+00    0.621E+00
DAV:   7    -0.129721180369E+04    0.75028E-01   -0.89913E-02  6720   0.116E+00    0.337E+00
DAV:   8    -0.129719425465E+04    0.17549E-01   -0.30068E-02  6672   0.809E-01    0.237E+00
DAV:   9    -0.129720172891E+04   -0.74743E-02   -0.28207E-02  6696   0.686E-01    0.294E+00
DAV:  10    -0.129719937593E+04    0.23530E-02   -0.27549E-02  6720   0.698E-01    0.239E+00
DAV:  11    -0.129718605359E+04    0.13322E-01   -0.14049E-02  6624   0.601E-01    0.136E+00
DAV:  12    -0.129718139618E+04    0.46574E-02   -0.59735E-03  6600   0.378E-01    0.940E-01
DAV:  13    -0.129718044505E+04    0.95113E-03   -0.28467E-03  6888   0.217E-01    0.788E-01
DAV:  14    -0.129717967453E+04    0.77052E-03   -0.16877E-03  6762   0.181E-01    0.475E-01
DAV:  15    -0.129718020425E+04   -0.52973E-03   -0.12397E-03  6744   0.167E-01    0.595E-01
DAV:  16    -0.129717939850E+04    0.80576E-03   -0.95263E-04  6720   0.151E-01    0.396E-01
DAV:  17    -0.129717917057E+04    0.22792E-03   -0.47623E-04  6744   0.913E-02    0.306E-01
DAV:  18    -0.129717909419E+04    0.76386E-04   -0.32269E-04  6708   0.698E-02    0.230E-01
DAV:  19    -0.129717908283E+04    0.11353E-04   -0.20385E-04  6768   0.647E-02    0.209E-01
DAV:  20    -0.129717895105E+04    0.13179E-03   -0.12564E-04  6768   0.524E-02    0.101E-01
DAV:  21    -0.129717896773E+04   -0.16680E-04   -0.51723E-05  6816   0.319E-02    0.115E-01
DAV:  22    -0.129717897946E+04   -0.11737E-04   -0.53512E-05  6612   0.341E-02    0.122E-01
DAV:  23    -0.129717893628E+04    0.43180E-04   -0.32295E-05  5736   0.268E-02    0.476E-02
DAV:  24    -0.129717893456E+04    0.17241E-05   -0.77287E-06  3300   0.122E-02
   5 F= -.12971789E+04 E0= -.12964964E+04  d E =-.158126E+01
       N       E                     dE             d eps       ncg     rms          rms(c)
DAV:   1    -0.129717922350E+04   -0.28722E-03   -0.27881E-01  6078   0.451E-01    0.149E-01
DAV:   2    -0.129718598248E+04   -0.67590E-02   -0.57861E-03  6864   0.227E-01    0.174E+00
DAV:   3    -0.129718209605E+04    0.38864E-02   -0.26174E-03  6480   0.260E-01    0.108E+00
DAV:   4    -0.129718057703E+04    0.15190E-02   -0.16495E-03  6708   0.185E-01    0.610E-01
DAV:   5    -0.129718089115E+04   -0.31412E-03   -0.16328E-03  6756   0.165E-01    0.670E-01
DAV:   6    -0.129718182921E+04   -0.93806E-03   -0.18382E-03  6780   0.196E-01    0.839E-01
DAV:   7    -0.129718109943E+04    0.72978E-03   -0.20692E-03  6732   0.193E-01    0.720E-01
DAV:   8    -0.129718000605E+04    0.10934E-02   -0.10355E-03  6708   0.139E-01    0.355E-01
DAV:   9    -0.129717985544E+04    0.15061E-03   -0.38929E-04  6588   0.871E-02    0.279E-01
DAV:  10    -0.129718014737E+04   -0.29193E-03   -0.48771E-04  6684   0.914E-02    0.409E-01
DAV:  11    -0.129718007401E+04    0.73356E-04   -0.54018E-04  6696   0.100E-01    0.356E-01
DAV:  12    -0.129717983424E+04    0.23977E-03   -0.26811E-04  6672   0.784E-02    0.273E-01
DAV:  13    -0.129717971094E+04    0.12331E-03   -0.10430E-04  6552   0.425E-02    0.152E-01
DAV:  14    -0.129717970749E+04    0.34444E-05   -0.45198E-05  6384   0.304E-02
   6 F= -.12971797E+04 E0= -.12964972E+04  d E =-.158203E+01
       N       E                     dE             d eps       ncg     rms          rms(c)
DAV:   1    -0.129723062387E+04   -0.50913E-01   -0.28616E+01  6072   0.518E+00    0.696E-01
DAV:   2    -0.129731784873E+04   -0.87225E-01   -0.39392E-01  8628   0.110E+00    0.442E+00
DAV:   3    -0.129735809819E+04   -0.40249E-01   -0.73744E-02  6612   0.119E+00    0.723E+00
DAV:   4    -0.129729103619E+04    0.67062E-01   -0.53365E-02  6690   0.102E+00    0.372E+00
DAV:   5    -0.129729425631E+04   -0.32201E-02   -0.53272E-02  6732   0.836E-01    0.350E+00
DAV:   6    -0.129732636440E+04   -0.32108E-01   -0.58098E-02  6648   0.103E+00    0.469E+00
DAV:   7    -0.129728783482E+04    0.38530E-01   -0.55985E-02  6600   0.950E-01    0.322E+00
DAV:   8    -0.129726352988E+04    0.24305E-01   -0.17184E-02  6576   0.570E-01    0.107E+00
DAV:   9    -0.129726453299E+04   -0.10031E-02   -0.55727E-03  6720   0.309E-01    0.125E+00
DAV:  10    -0.129726668465E+04   -0.21517E-02   -0.72358E-03  6600   0.346E-01    0.136E+00
DAV:  11    -0.129726479995E+04    0.18847E-02   -0.56325E-03  6576   0.337E-01    0.125E+00
DAV:  12    -0.129726189170E+04    0.29083E-02   -0.33202E-03  6564   0.235E-01    0.664E-01
DAV:  13    -0.129726120284E+04    0.68886E-03   -0.12534E-03  6540   0.152E-01    0.408E-01
DAV:  14    -0.129726226032E+04   -0.10575E-02   -0.12111E-03  6696   0.145E-01    0.768E-01
DAV:  15    -0.129726147484E+04    0.78548E-03   -0.13725E-03  6720   0.148E-01    0.473E-01
DAV:  16    -0.129726089535E+04    0.57949E-03   -0.56403E-04  6624   0.110E-01    0.220E-01
DAV:  17    -0.129726088083E+04    0.14517E-04   -0.21842E-04  6672   0.657E-02    0.208E-01
DAV:  18    -0.129726092381E+04   -0.42978E-04   -0.19103E-04  6660   0.649E-02    0.221E-01
DAV:  19    -0.129726077521E+04    0.14860E-03   -0.13248E-04  6648   0.548E-02    0.939E-02
DAV:  20    -0.129726075644E+04    0.18767E-04   -0.38193E-05  6276   0.266E-02    0.521E-02
DAV:  21    -0.129726077300E+04   -0.16564E-04   -0.24993E-05  5328   0.236E-02    0.802E-02
DAV:  22    -0.129726076104E+04    0.11960E-04   -0.23423E-05  4728   0.221E-02    0.540E-02
DAV:  23    -0.129726075272E+04    0.83263E-05   -0.95102E-06  3372   0.145E-02    0.297E-02
DAV:  24    -0.129726075221E+04    0.51170E-06   -0.42620E-06  3324   0.911E-03
   7 F= -.12972608E+04 E0= -.12965780E+04  d E =-.810447E-01
       N       E                     dE             d eps       ncg     rms          rms(c)
DAV:   1    -0.129707035081E+04    0.19040E+00   -0.20061E+02  6072   0.138E+01    0.191E+00
DAV:   2    -0.129769402090E+04   -0.62367E+00   -0.36064E+00  8796   0.295E+00    0.107E+01
DAV:   3    -0.129825665615E+04   -0.56264E+00   -0.57599E-01  6552   0.329E+00    0.217E+01
DAV:   4    -0.129766355278E+04    0.59310E+00   -0.73610E-01  6726   0.309E+00    0.116E+01
DAV:   5    -0.129764134667E+04    0.22206E-01   -0.49855E-01  6852   0.250E+00    0.989E+00
DAV:   6    -0.129784452270E+04   -0.20318E+00   -0.46094E-01  6780   0.287E+00    0.125E+01
DAV:   7    -0.129754464703E+04    0.29988E+00   -0.31279E-01  6696   0.253E+00    0.783E+00
DAV:   8    -0.129740125811E+04    0.14339E+00   -0.12955E-01  6636   0.159E+00    0.391E+00
DAV:   9    -0.129738395820E+04    0.17300E-01   -0.55703E-02  6648   0.946E-01    0.327E+00
DAV:  10    -0.129738298767E+04    0.97053E-03   -0.44905E-02  6672   0.856E-01    0.292E+00
DAV:  11    -0.129738924196E+04   -0.62543E-02   -0.32933E-02  6684   0.887E-01    0.324E+00
DAV:  12    -0.129738623300E+04    0.30090E-02   -0.37872E-02  6600   0.808E-01    0.334E+00
DAV:  13    -0.129736373746E+04    0.22496E-01   -0.21984E-02  6588   0.651E-01    0.147E+00
DAV:  14    -0.129736127832E+04    0.24591E-02   -0.82428E-03  6648   0.427E-01    0.122E+00
DAV:  15    -0.129737021267E+04   -0.89344E-02   -0.12454E-02  6684   0.420E-01    0.225E+00
DAV:  16    -0.129736317848E+04    0.70342E-02   -0.12455E-02  6660   0.437E-01    0.134E+00
DAV:  17    -0.129735812078E+04    0.50577E-02   -0.41781E-03  6588   0.302E-01    0.583E-01
DAV:  18    -0.129735756253E+04    0.55825E-03   -0.13076E-03  6660   0.164E-01    0.390E-01
DAV:  19    -0.129735841315E+04   -0.85062E-03   -0.12217E-03  6648   0.162E-01    0.599E-01
DAV:  20    -0.129735732749E+04    0.10857E-02   -0.10241E-03  6672   0.147E-01    0.259E-01
DAV:  21    -0.129735718828E+04    0.13921E-03   -0.27412E-04  6468   0.734E-02    0.160E-01
DAV:  22    -0.129735730077E+04   -0.11249E-03   -0.17568E-04  6564   0.594E-02    0.232E-01
DAV:  23    -0.129735716970E+04    0.13107E-03   -0.15124E-04  6636   0.560E-02    0.124E-01
DAV:  24    -0.129735713595E+04    0.33748E-04   -0.56958E-05  6480   0.333E-02    0.670E-02
DAV:  25    -0.129735716375E+04   -0.27802E-04   -0.43842E-05  6192   0.297E-02    0.103E-01
DAV:  26    -0.129735714265E+04    0.21105E-04   -0.35127E-05  6000   0.273E-02    0.817E-02
DAV:  27    -0.129735713532E+04    0.73276E-05   -0.11967E-05  3624   0.143E-02    0.645E-02
DAV:  28    -0.129735713546E+04   -0.13539E-06   -0.80949E-06  3252   0.124E-02
   8 F= -.12973571E+04 E0= -.12966737E+04  d E =-.177428E+00
       N       E                     dE             d eps       ncg     rms          rms(c)
DAV:   1    -0.129735552930E+04    0.16060E-02   -0.36008E+00  6072   0.184E+00    0.233E-01
DAV:   2    -0.129738964845E+04   -0.34119E-01   -0.40159E-02  7140   0.516E-01    0.401E+00
DAV:   3    -0.129736468913E+04    0.24959E-01   -0.14074E-02  6456   0.551E-01    0.160E+00
DAV:   4    -0.129736071040E+04    0.39787E-02   -0.50580E-03  6708   0.329E-01    0.878E-01
DAV:   5    -0.129736402942E+04   -0.33190E-02   -0.73000E-03  7764   0.304E-01    0.141E+00
DAV:   6    -0.129736463829E+04   -0.60887E-03   -0.65643E-03  7308   0.356E-01    0.137E+00
DAV:   7    -0.129736165752E+04    0.29808E-02   -0.51270E-03  7152   0.311E-01    0.108E+00
DAV:   8    -0.129735953245E+04    0.21251E-02   -0.23506E-03  6900   0.197E-01    0.533E-01
DAV:   9    -0.129735912022E+04    0.41223E-03   -0.79209E-04  6636   0.132E-01    0.408E-01
DAV:  10    -0.129735921553E+04   -0.95308E-04   -0.68736E-04  6612   0.107E-01    0.434E-01
DAV:  11    -0.129735923525E+04   -0.19725E-04   -0.71705E-04  6708   0.113E-01    0.393E-01
DAV:  12    -0.129735924974E+04   -0.14491E-04   -0.54490E-04  6660   0.109E-01    0.468E-01
DAV:  13    -0.129735900927E+04    0.24048E-03   -0.36014E-04  6684   0.789E-02    0.363E-01
DAV:  14    -0.129735887109E+04    0.13818E-03   -0.13932E-04  6648   0.532E-02    0.282E-01
DAV:  15    -0.129735886229E+04    0.87996E-05   -0.93937E-05  6792   0.452E-02    0.240E-01
DAV:  16    -0.129735878234E+04    0.79941E-04   -0.10413E-04  6600   0.461E-02    0.161E-01
DAV:  17    -0.129735873724E+04    0.45109E-04   -0.59667E-05  6108   0.303E-02    0.100E-01
DAV:  18    -0.129735872724E+04    0.10001E-04   -0.20890E-05  3780   0.183E-02    0.816E-02
DAV:  19    -0.129735873511E+04   -0.78785E-05   -0.16347E-05  3624   0.182E-02    0.845E-02
DAV:  20    -0.129735871735E+04    0.17767E-04   -0.13200E-05  3432   0.169E-02    0.312E-02
DAV:  21    -0.129735871507E+04    0.22766E-05   -0.30275E-06  3204   0.778E-03
   9 F= -.12973587E+04 E0= -.12966751E+04  d E =-.179008E+00
       N       E                     dE             d eps       ncg     rms          rms(c)
DAV:   1    -0.129736076074E+04   -0.20434E-02   -0.85118E+00  6072   0.292E+00    0.456E-01
DAV:   2    -0.129749223033E+04   -0.13147E+00   -0.16268E-01  6804   0.105E+00    0.745E+00
DAV:   3    -0.129743043484E+04    0.61795E-01   -0.74852E-02  6486   0.120E+00    0.531E+00
DAV:   4    -0.129738244577E+04    0.47989E-01   -0.32805E-02  6696   0.784E-01    0.210E+00
DAV:   5    -0.129737875189E+04    0.36939E-02   -0.19136E-02  7020   0.514E-01    0.157E+00
DAV:   6    -0.129739201246E+04   -0.13261E-01   -0.16122E-02  6972   0.597E-01    0.253E+00
DAV:   7    -0.129738464933E+04    0.73631E-02   -0.19903E-02  6948   0.583E-01    0.220E+00
DAV:   8    -0.129737573656E+04    0.89128E-02   -0.94496E-03  6684   0.406E-01    0.111E+00
DAV:   9    -0.129737471881E+04    0.10178E-02   -0.42874E-03  6684   0.292E-01    0.890E-01
DAV:  10    -0.129737977272E+04   -0.50539E-02   -0.62717E-03  6756   0.315E-01    0.168E+00
DAV:  11    -0.129737576352E+04    0.40092E-02   -0.53401E-03  6756   0.318E-01    0.109E+00
DAV:  12    -0.129737465854E+04    0.11050E-02   -0.23431E-03  6636   0.213E-01    0.987E-01
DAV:  13    -0.129737379220E+04    0.86634E-03   -0.12862E-03  6684   0.150E-01    0.803E-01
DAV:  14    -0.129737349648E+04    0.29571E-03   -0.83370E-04  6756   0.127E-01    0.683E-01
DAV:  15    -0.129737316236E+04    0.33412E-03   -0.82065E-04  6756   0.126E-01    0.522E-01
DAV:  16    -0.129737292664E+04    0.23572E-03   -0.78166E-04  6684   0.110E-01    0.436E-01
DAV:  17    -0.129737247669E+04    0.44995E-03   -0.40524E-04  6708   0.810E-02    0.176E-01
DAV:  18    -0.129737249036E+04   -0.13666E-04   -0.13420E-04  6804   0.517E-02    0.182E-01
DAV:  19    -0.129737250429E+04   -0.13930E-04   -0.12238E-04  6696   0.508E-02    0.189E-01
DAV:  20    -0.129737242927E+04    0.75013E-04   -0.75588E-05  6672   0.404E-02    0.124E-01
DAV:  21    -0.129737241610E+04    0.13173E-04   -0.22550E-05  4584   0.205E-02    0.984E-02
DAV:  22    -0.129737241180E+04    0.43056E-05   -0.18492E-05  3900   0.205E-02
  10 F= -.12973724E+04 E0= -.12966889E+04  d E =-.136967E-01
       N       E                     dE             d eps       ncg     rms          rms(c)
DAV:   1    -0.129737091263E+04    0.15035E-02   -0.27450E+00  6078   0.166E+00    0.268E-01
DAV:   2    -0.129749736300E+04   -0.12645E+00   -0.61801E-02  6738   0.876E-01    0.799E+00
DAV:   3    -0.129738651816E+04    0.11084E+00   -0.43344E-02  6732   0.940E-01    0.215E+00
DAV:   4    -0.129737928733E+04    0.72308E-02   -0.11200E-02  6708   0.437E-01    0.140E+00
DAV:   5    -0.129737905444E+04    0.23289E-03   -0.10214E-02  7212   0.366E-01    0.126E+00
DAV:   6    -0.129738178078E+04   -0.27263E-02   -0.72381E-03  7176   0.394E-01    0.151E+00
DAV:   7    -0.129737847912E+04    0.33017E-02   -0.66514E-03  7056   0.349E-01    0.124E+00
DAV:   8    -0.129737580363E+04    0.26755E-02   -0.32717E-03  6588   0.229E-01    0.650E-01
DAV:   9    -0.129737548789E+04    0.31574E-03   -0.14186E-03  6696   0.172E-01    0.509E-01
DAV:  10    -0.129737731059E+04   -0.18227E-02   -0.20537E-03  6756   0.188E-01    0.101E+00
DAV:  11    -0.129737582965E+04    0.14809E-02   -0.18743E-03  6780   0.181E-01    0.634E-01
DAV:  12    -0.129737546426E+04    0.36539E-03   -0.74860E-04  6636   0.122E-01    0.582E-01
DAV:  13    -0.129737522467E+04    0.23959E-03   -0.40767E-04  6636   0.831E-02    0.499E-01
DAV:  14    -0.129737503406E+04    0.19061E-03   -0.27262E-04  6804   0.751E-02    0.381E-01
DAV:  15    -0.129737496330E+04    0.70753E-04   -0.26271E-04  6768   0.708E-02    0.311E-01
DAV:  16    -0.129737481013E+04    0.15317E-03   -0.23000E-04  6744   0.620E-02    0.204E-01
DAV:  17    -0.129737472181E+04    0.88323E-04   -0.10737E-04  6648   0.409E-02    0.927E-02
DAV:  18    -0.129737474644E+04   -0.24629E-04   -0.58976E-05  6684   0.334E-02    0.124E-01
DAV:  19    -0.129737474324E+04    0.31984E-05   -0.52004E-05  6576   0.327E-02    0.124E-01
DAV:  20    -0.129737471647E+04    0.26773E-04   -0.26043E-05  5136   0.243E-02    0.909E-02
DAV:  21    -0.129737471168E+04    0.47900E-05   -0.80501E-06  3432   0.125E-02
  11 F= -.12973747E+04 E0= -.12966913E+04  d E =-.159966E-01
       N       E                     dE             d eps       ncg     rms          rms(c)
DAV:   1    -0.129737436383E+04    0.35264E-03   -0.10466E+01  6072   0.336E+00    0.425E-01
DAV:   2    -0.129764947439E+04   -0.27511E+00   -0.16609E-01  6846   0.139E+00    0.114E+01
DAV:   3    -0.129744223517E+04    0.20724E+00   -0.11931E-01  6792   0.154E+00    0.505E+00
DAV:   4    -0.129739676906E+04    0.45466E-01   -0.44958E-02  6690   0.848E-01    0.237E+00
DAV:   5    -0.129739150535E+04    0.52637E-02   -0.24804E-02  7008   0.565E-01    0.167E+00
DAV:   6    -0.129740952772E+04   -0.18022E-01   -0.20153E-02  7020   0.659E-01    0.285E+00
DAV:   7    -0.129739382508E+04    0.15703E-01   -0.22160E-02  6900   0.611E-01    0.199E+00
DAV:   8    -0.129738676198E+04    0.70631E-02   -0.72221E-03  6684   0.333E-01    0.989E-01
DAV:   9    -0.129738587803E+04    0.88395E-03   -0.25455E-03  6660   0.207E-01    0.800E-01
DAV:  10    -0.129738640845E+04   -0.53042E-03   -0.27412E-03  6672   0.204E-01    0.853E-01
DAV:  11    -0.129738530850E+04    0.11000E-02   -0.20890E-03  6780   0.193E-01    0.606E-01
DAV:  12    -0.129738515771E+04    0.15078E-03   -0.94974E-04  6660   0.133E-01    0.636E-01
DAV:  13    -0.129738495720E+04    0.20051E-03   -0.60198E-04  6696   0.994E-02    0.547E-01
DAV:  14    -0.129738487300E+04    0.84208E-04   -0.46601E-04  6636   0.978E-02    0.476E-01
DAV:  15    -0.129738460484E+04    0.26815E-03   -0.37396E-04  6600   0.847E-02    0.316E-01
DAV:  16    -0.129738443525E+04    0.16959E-03   -0.21279E-04  6564   0.682E-02    0.216E-01
DAV:  17    -0.129738438559E+04    0.49658E-04   -0.13950E-04  6696   0.450E-02    0.166E-01
DAV:  18    -0.129738439190E+04   -0.63085E-05   -0.97074E-05  6756   0.415E-02    0.151E-01
DAV:  19    -0.129738440510E+04   -0.13199E-04   -0.71715E-05  6744   0.418E-02    0.180E-01
DAV:  20    -0.129738437917E+04    0.25935E-04   -0.40871E-05  6372   0.317E-02    0.169E-01
DAV:  21    -0.129738436719E+04    0.11977E-04   -0.20230E-05  3888   0.197E-02    0.145E-01
DAV:  22    -0.129738434014E+04    0.27049E-04   -0.20906E-05  3600   0.219E-02    0.728E-02
DAV:  23    -0.129738432580E+04    0.14337E-04   -0.10436E-05  3504   0.164E-02    0.315E-02
DAV:  24    -0.129738432645E+04   -0.65094E-06   -0.48122E-06  3312   0.951E-03
  12 F= -.12973843E+04 E0= -.12967012E+04  d E =-.961478E-02
       N       E                     dE             d eps       ncg     rms          rms(c)
DAV:   1    -0.129737755024E+04    0.67756E-02   -0.10229E+01  6072   0.333E+00    0.417E-01
DAV:   2    -0.129767791772E+04   -0.30037E+00   -0.16589E-01  6810   0.142E+00    0.120E+01
DAV:   3    -0.129743727000E+04    0.24065E+00   -0.12652E-01  6828   0.155E+00    0.462E+00
DAV:   4    -0.129739978720E+04    0.37483E-01   -0.44020E-02  6666   0.818E-01    0.237E+00
DAV:   5    -0.129739477984E+04    0.50074E-02   -0.25035E-02  7128   0.570E-01    0.168E+00
DAV:   6    -0.129741168555E+04   -0.16906E-01   -0.19450E-02  7128   0.651E-01    0.282E+00
DAV:   7    -0.129739569589E+04    0.15990E-01   -0.21449E-02  6924   0.597E-01    0.188E+00
DAV:   8    -0.129738936102E+04    0.63349E-02   -0.65376E-03  6732   0.318E-01    0.917E-01
DAV:   9    -0.129738871163E+04    0.64939E-03   -0.24103E-03  6756   0.200E-01    0.767E-01
DAV:  10    -0.129738944219E+04   -0.73056E-03   -0.27674E-03  6720   0.204E-01    0.863E-01
DAV:  11    -0.129738814126E+04    0.13009E-02   -0.19577E-03  6756   0.189E-01    0.581E-01
DAV:  12    -0.129738809978E+04    0.41483E-04   -0.85698E-04  6636   0.125E-01    0.632E-01
DAV:  13    -0.129738784636E+04    0.25342E-03   -0.56796E-04  6708   0.963E-02    0.520E-01
DAV:  14    -0.129738778059E+04    0.65766E-04   -0.41309E-04  6660   0.927E-02    0.448E-01
DAV:  15    -0.129738750118E+04    0.27941E-03   -0.33187E-04  6648   0.819E-02    0.283E-01
DAV:  16    -0.129738733954E+04    0.16164E-03   -0.15613E-04  6636   0.616E-02    0.157E-01
DAV:  17    -0.129738732560E+04    0.13944E-04   -0.92736E-05  6684   0.434E-02    0.136E-01
DAV:  18    -0.129738738955E+04   -0.63953E-04   -0.11318E-04  6756   0.422E-02    0.209E-01
DAV:  19    -0.129738736870E+04    0.20846E-04   -0.11633E-04  6672   0.429E-02    0.191E-01
DAV:  20    -0.129738733640E+04    0.32301E-04   -0.50792E-05  6300   0.326E-02    0.173E-01
DAV:  21    -0.129738732386E+04    0.12546E-04   -0.20974E-05  3996   0.201E-02    0.151E-01
DAV:  22    -0.129738729413E+04    0.29720E-04   -0.20103E-05  3660   0.220E-02    0.725E-02
DAV:  23    -0.129738727913E+04    0.15002E-04   -0.10959E-05  3480   0.167E-02    0.289E-02
DAV:  24    -0.129738728069E+04   -0.15608E-05   -0.48621E-06  3360   0.937E-03
  13 F= -.12973873E+04 E0= -.12967044E+04  d E =-.125690E-01
       N       E                     dE             d eps       ncg     rms          rms(c)
DAV:   1    -0.129738748072E+04   -0.20159E-03   -0.31998E+00  6072   0.188E+00    0.238E-01
DAV:   2    -0.129749511266E+04   -0.10763E+00   -0.71609E-02  6732   0.865E-01    0.695E+00
DAV:   3    -0.129742080858E+04    0.74304E-01   -0.48242E-02  6690   0.968E-01    0.391E+00
DAV:   4    -0.129739232927E+04    0.28479E-01   -0.15292E-02  6618   0.533E-01    0.102E+00
DAV:   5    -0.129739391105E+04   -0.15818E-02   -0.67765E-03  6864   0.327E-01    0.112E+00
DAV:   6    -0.129740225710E+04   -0.83461E-02   -0.97326E-03  6864   0.400E-01    0.212E+00
DAV:   7    -0.129739314089E+04    0.91162E-02   -0.83453E-03  6768   0.380E-01    0.994E-01
DAV:   8    -0.129739133084E+04    0.18101E-02   -0.21493E-03  6672   0.194E-01    0.619E-01
DAV:   9    -0.129739104736E+04    0.28348E-03   -0.10006E-03  6636   0.124E-01    0.520E-01
DAV:  10    -0.129739090756E+04    0.13980E-03   -0.78514E-04  6660   0.119E-01    0.410E-01
DAV:  11    -0.129739090113E+04    0.64310E-05   -0.63482E-04  6684   0.109E-01    0.446E-01
DAV:  12    -0.129739082890E+04    0.72222E-04   -0.47221E-04  6636   0.843E-02    0.435E-01
DAV:  13    -0.129739068442E+04    0.14449E-03   -0.24102E-04  6684   0.654E-02    0.380E-01
DAV:  14    -0.129739067286E+04    0.11553E-04   -0.14195E-04  6684   0.457E-02    0.369E-01
DAV:  15    -0.129739056874E+04    0.10412E-03   -0.15430E-04  6708   0.496E-02    0.262E-01
DAV:  16    -0.129739046632E+04    0.10243E-03   -0.12063E-04  6708   0.495E-02    0.142E-01
DAV:  17    -0.129739041401E+04    0.52303E-04   -0.41018E-05  6348   0.318E-02    0.758E-02
DAV:  18    -0.129739042592E+04   -0.11907E-04   -0.23219E-05  4536   0.215E-02    0.917E-02
DAV:  19    -0.129739042851E+04   -0.25933E-05   -0.21882E-05  3924   0.215E-02
  14 F= -.12973904E+04 E0= -.12967078E+04  d E =-.314782E-02
       N       E                     dE             d eps       ncg     rms          rms(c)
DAV:   1    -0.129738889389E+04    0.15320E-02   -0.36212E+00  6072   0.200E+00    0.243E-01
DAV:   2    -0.129744520102E+04   -0.56307E-01   -0.66324E-02  6744   0.712E-01    0.455E+00
DAV:   3    -0.129740482055E+04    0.40380E-01   -0.42328E-02  6570   0.760E-01    0.276E+00
DAV:   4    -0.129739572482E+04    0.90957E-02   -0.81883E-03  6498   0.395E-01    0.133E+00
DAV:   5    -0.129739368048E+04    0.20443E-02   -0.49145E-03  6672   0.283E-01    0.770E-01
DAV:   6    -0.129740072272E+04   -0.70422E-02   -0.65351E-03  6672   0.332E-01    0.178E+00
DAV:   7    -0.129739523684E+04    0.54859E-02   -0.68940E-03  6636   0.340E-01    0.103E+00
DAV:   8    -0.129739310071E+04    0.21361E-02   -0.22732E-03  6564   0.203E-01    0.590E-01
DAV:   9    -0.129739283846E+04    0.26226E-03   -0.95971E-04  6588   0.123E-01    0.502E-01
DAV:  10    -0.129739267501E+04    0.16344E-03   -0.69372E-04  6612   0.113E-01    0.395E-01
DAV:  11    -0.129739271476E+04   -0.39745E-04   -0.64394E-04  6744   0.108E-01    0.418E-01
DAV:  12    -0.129739264240E+04    0.72353E-04   -0.58876E-04  6684   0.942E-02    0.392E-01
DAV:  13    -0.129739241695E+04    0.22545E-03   -0.30305E-04  6672   0.759E-02    0.286E-01
DAV:  14    -0.129739240986E+04    0.70860E-05   -0.13768E-04  6756   0.442E-02    0.286E-01
DAV:  15    -0.129739235401E+04    0.55850E-04   -0.11889E-04  6792   0.436E-02    0.215E-01
DAV:  16    -0.129739229137E+04    0.62639E-04   -0.89095E-05  6684   0.440E-02    0.132E-01
DAV:  17    -0.129739224139E+04    0.49981E-04   -0.44880E-05  6312   0.312E-02    0.630E-02
DAV:  18    -0.129739224596E+04   -0.45693E-05   -0.14778E-05  3540   0.170E-02
  15 F= -.12973922E+04 E0= -.12967099E+04  d E =-.496527E-02
       N       E                     dE             d eps       ncg     rms          rms(c)
DAV:   1    -0.129737812151E+04    0.14120E-01   -0.14487E+01  6072   0.399E+00    0.504E-01
DAV:   2    -0.129773309669E+04   -0.35498E+00   -0.28629E-01  6744   0.167E+00    0.121E+01
DAV:   3    -0.129752193198E+04    0.21116E+00   -0.22137E-01  6666   0.188E+00    0.824E+00
DAV:   4    -0.129740216509E+04    0.11977E+00   -0.68275E-02  6600   0.109E+00    0.227E+00
DAV:   5    -0.129740192671E+04    0.23837E-03   -0.27404E-02  6744   0.634E-01    0.199E+00
DAV:   6    -0.129743684664E+04   -0.34920E-01   -0.38581E-02  6792   0.782E-01    0.411E+00
DAV:   7    -0.129740519289E+04    0.31654E-01   -0.34934E-02  6780   0.772E-01    0.221E+00
DAV:   8    -0.129739580417E+04    0.93887E-02   -0.11105E-02  6708   0.432E-01    0.132E+00
DAV:   9    -0.129739440126E+04    0.14029E-02   -0.45735E-03  6660   0.266E-01    0.109E+00
DAV:  10    -0.129739341490E+04    0.98636E-03   -0.33883E-03  6612   0.244E-01    0.813E-01
DAV:  11    -0.129739432588E+04   -0.91097E-03   -0.33455E-03  6756   0.232E-01    0.105E+00
DAV:  12    -0.129739316115E+04    0.11647E-02   -0.26250E-03  6660   0.200E-01    0.821E-01
DAV:  13    -0.129739260244E+04    0.55872E-03   -0.11374E-03  6672   0.145E-01    0.740E-01
DAV:  14    -0.129739255210E+04    0.50341E-04   -0.64512E-04  6732   0.973E-02    0.725E-01
DAV:  15    -0.129739212993E+04    0.42216E-03   -0.61751E-04  6804   0.994E-02    0.520E-01
DAV:  16    -0.129739187540E+04    0.25454E-03   -0.50717E-04  6708   0.102E-01    0.351E-01
DAV:  17    -0.129739153054E+04    0.34486E-03   -0.23399E-04  6636   0.770E-02    0.166E-01
DAV:  18    -0.129739157622E+04   -0.45677E-04   -0.10004E-04  6912   0.451E-02    0.191E-01
DAV:  19    -0.129739156755E+04    0.86697E-05   -0.89408E-05  6888   0.430E-02    0.162E-01
DAV:  20    -0.129739150852E+04    0.59028E-04   -0.51447E-05  6324   0.346E-02    0.887E-02
DAV:  21    -0.129739150469E+04    0.38244E-05   -0.16063E-05  3732   0.185E-02
  16 F= -.12973915E+04 E0= -.12967096E+04  d E =-.422400E-02
       N       E                     dE             d eps       ncg     rms          rms(c)
DAV:   1    -0.129738678820E+04    0.47203E-02   -0.65489E+00  6072   0.268E+00    0.370E-01
DAV:   2    -0.129769127292E+04   -0.30448E+00   -0.18835E-01  6696   0.144E+00    0.118E+01
DAV:   3    -0.129749471623E+04    0.19656E+00   -0.17179E-01  6726   0.157E+00    0.708E+00
DAV:   4    -0.129739937480E+04    0.95341E-01   -0.58942E-02  6540   0.897E-01    0.164E+00
DAV:   5    -0.129740115434E+04   -0.17795E-02   -0.16089E-02  6804   0.535E-01    0.168E+00
DAV:   6    -0.129741908234E+04   -0.17928E-01   -0.22677E-02  6720   0.629E-01    0.312E+00
DAV:   7    -0.129740022261E+04    0.18860E-01   -0.20138E-02  6672   0.579E-01    0.167E+00
DAV:   8    -0.129739467977E+04    0.55428E-02   -0.54028E-03  6600   0.321E-01    0.931E-01
DAV:   9    -0.129739423812E+04    0.44166E-03   -0.22266E-03  6648   0.180E-01    0.822E-01
DAV:  10    -0.129739368983E+04    0.54828E-03   -0.18053E-03  6756   0.174E-01    0.584E-01
DAV:  11    -0.129739377258E+04   -0.82747E-04   -0.14194E-03  6756   0.166E-01    0.672E-01
DAV:  12    -0.129739359465E+04    0.17793E-03   -0.10876E-03  6684   0.125E-01    0.650E-01
DAV:  13    -0.129739323797E+04    0.35668E-03   -0.52470E-04  6696   0.933E-02    0.547E-01
DAV:  14    -0.129739328818E+04   -0.50212E-04   -0.31412E-04  6696   0.716E-02    0.557E-01
DAV:  15    -0.129739293110E+04    0.35708E-03   -0.35530E-04  6696   0.744E-02    0.336E-01
DAV:  16    -0.129739274677E+04    0.18433E-03   -0.19963E-04  6648   0.661E-02    0.176E-01
DAV:  17    -0.129739267290E+04    0.73873E-04   -0.10026E-04  6708   0.461E-02    0.926E-02
DAV:  18    -0.129739271696E+04   -0.44068E-04   -0.69877E-05  6768   0.369E-02    0.148E-01
DAV:  19    -0.129739268867E+04    0.28292E-04   -0.55359E-05  6564   0.348E-02    0.127E-01
DAV:  20    -0.129739266841E+04    0.20263E-04   -0.20312E-05  4008   0.209E-02    0.976E-02
DAV:  21    -0.129739267287E+04   -0.44561E-05   -0.14292E-05  3552   0.181E-02
  17 F= -.12973927E+04 E0= -.12967105E+04  d E =-.539217E-02
       N       E                     dE             d eps       ncg     rms          rms(c)
DAV:   1    -0.129739243511E+04    0.23330E-03   -0.18388E+00  6072   0.144E+00    0.224E-01
DAV:   2    -0.129747393980E+04   -0.81505E-01   -0.65719E-02  6612   0.810E-01    0.564E+00
DAV:   3    -0.129741311377E+04    0.60826E-01   -0.48877E-02  6510   0.873E-01    0.337E+00
DAV:   4    -0.129739697552E+04    0.16138E-01   -0.87540E-03  6414   0.433E-01    0.115E+00
DAV:   5    -0.129739540029E+04    0.15752E-02   -0.43445E-03  6600   0.261E-01    0.731E-01
DAV:   6    -0.129739958563E+04   -0.41853E-02   -0.50984E-03  6672   0.290E-01    0.142E+00
DAV:   7    -0.129739704106E+04    0.25446E-02   -0.55079E-03  6660   0.302E-01    0.996E-01
DAV:   8    -0.129739488879E+04    0.21523E-02   -0.21443E-03  6612   0.206E-01    0.574E-01
DAV:   9    -0.129739437334E+04    0.51545E-03   -0.81370E-04  6564   0.114E-01    0.383E-01
DAV:  10    -0.129739435956E+04    0.13780E-04   -0.54194E-04  6576   0.939E-02    0.351E-01
DAV:  11    -0.129739445707E+04   -0.97517E-04   -0.53960E-04  6684   0.973E-02    0.405E-01
DAV:  12    -0.129739415973E+04    0.29735E-03   -0.41789E-04  6612   0.794E-02    0.248E-01
DAV:  13    -0.129739406833E+04    0.91399E-04   -0.15291E-04  6576   0.479E-02    0.167E-01
DAV:  14    -0.129739410701E+04   -0.38676E-04   -0.76417E-05  6612   0.378E-02    0.201E-01
DAV:  15    -0.129739411337E+04   -0.63662E-05   -0.10045E-04  6564   0.405E-02    0.210E-01
DAV:  16    -0.129739403927E+04    0.74099E-04   -0.69191E-05  6504   0.353E-02    0.113E-01
DAV:  17    -0.129739401845E+04    0.20817E-04   -0.27693E-05  4812   0.251E-02    0.739E-02
DAV:  18    -0.129739402236E+04   -0.39082E-05   -0.19984E-05  4296   0.235E-02
  18 F= -.12973940E+04 E0= -.12967120E+04  d E =-.134950E-02
       N       E                     dE             d eps       ncg     rms          rms(c)
DAV:   1    -0.129739351399E+04    0.50446E-03   -0.80194E-01  6072   0.951E-01    0.139E-01
DAV:   2    -0.129742264231E+04   -0.29128E-01   -0.17359E-02  6552   0.484E-01    0.350E+00
DAV:   3    -0.129740665518E+04    0.15987E-01   -0.14094E-02  6534   0.550E-01    0.259E+00
DAV:   4    -0.129739555571E+04    0.11099E-01   -0.60481E-03  6516   0.326E-01    0.721E-01
DAV:   5    -0.129739509145E+04    0.46426E-03   -0.21162E-03  6564   0.191E-01    0.576E-01
DAV:   6    -0.129739651816E+04   -0.14267E-02   -0.22634E-03  6612   0.202E-01    0.907E-01
DAV:   7    -0.129739571403E+04    0.80414E-03   -0.24902E-03  6588   0.205E-01    0.685E-01
DAV:   8    -0.129739468720E+04    0.10268E-02   -0.10554E-03  6540   0.154E-01    0.412E-01
DAV:   9    -0.129739447233E+04    0.21487E-03   -0.47176E-04  6540   0.896E-02    0.310E-01
DAV:  10    -0.129739429765E+04    0.17467E-03   -0.25212E-04  6696   0.643E-02    0.174E-01
DAV:  11    -0.129739443223E+04   -0.13457E-03   -0.21640E-04  6792   0.591E-02    0.292E-01
DAV:  12    -0.129739435147E+04    0.80755E-04   -0.22859E-04  6732   0.596E-02    0.218E-01
DAV:  13    -0.129739431358E+04    0.37893E-04   -0.12835E-04  6732   0.488E-02    0.197E-01
DAV:  14    -0.129739429261E+04    0.20969E-04   -0.67125E-05  6588   0.351E-02    0.181E-01
DAV:  15    -0.129739426880E+04    0.23815E-04   -0.43694E-05  6072   0.251E-02    0.148E-01
DAV:  16    -0.129739425986E+04    0.89361E-05   -0.31032E-05  5016   0.263E-02    0.114E-01
DAV:  17    -0.129739422543E+04    0.34430E-04   -0.20460E-05  4248   0.232E-02    0.456E-02
DAV:  18    -0.129739422740E+04   -0.19728E-05   -0.91943E-06  3528   0.143E-02
  19 F= -.12973942E+04 E0= -.12967124E+04  d E =-.155454E-02
       N       E                     dE             d eps       ncg     rms          rms(c)
DAV:   1    -0.129739370305E+04    0.52239E-03   -0.14905E+00  6072   0.130E+00    0.200E-01
DAV:   2    -0.129747311358E+04   -0.79411E-01   -0.53352E-02  6612   0.766E-01    0.580E+00
DAV:   3    -0.129742532246E+04    0.47791E-01   -0.42698E-02  6564   0.863E-01    0.400E+00
DAV:   4    -0.129739679911E+04    0.28523E-01   -0.10646E-02  6540   0.489E-01    0.885E-01
DAV:   5    -0.129739713428E+04   -0.33517E-03   -0.43718E-03  6540   0.261E-01    0.918E-01
DAV:   6    -0.129740117300E+04   -0.40387E-02   -0.60715E-03  6564   0.311E-01    0.146E+00
DAV:   7    -0.129739764954E+04    0.35235E-02   -0.54780E-03  6588   0.309E-01    0.941E-01
DAV:   8    -0.129739578464E+04    0.18649E-02   -0.20231E-03  6564   0.190E-01    0.545E-01
DAV:   9    -0.129739539404E+04    0.39060E-03   -0.75183E-04  6612   0.109E-01    0.397E-01
DAV:  10    -0.129739532700E+04    0.67043E-04   -0.54145E-04  6576   0.982E-02    0.328E-01
DAV:  11    -0.129739544140E+04   -0.11440E-03   -0.50448E-04  6648   0.938E-02    0.414E-01
DAV:  12    -0.129739526160E+04    0.17980E-03   -0.42823E-04  6588   0.770E-02    0.328E-01
DAV:  13    -0.129739514922E+04    0.11238E-03   -0.17243E-04  6564   0.550E-02    0.270E-01
DAV:  14    -0.129739514329E+04    0.59294E-05   -0.76428E-05  6708   0.363E-02    0.265E-01
DAV:  15    -0.129739509970E+04    0.43586E-04   -0.87688E-05  6744   0.375E-02    0.209E-01
DAV:  16    -0.129739505603E+04    0.43672E-04   -0.84048E-05  6708   0.404E-02    0.132E-01
DAV:  17    -0.129739501726E+04    0.38772E-04   -0.44942E-05  6504   0.325E-02    0.946E-02
DAV:  18    -0.129739501806E+04   -0.80548E-06   -0.18060E-05  4032   0.202E-02
  20 F= -.12973950E+04 E0= -.12967133E+04  d E =-.790660E-03
       N       E                     dE             d eps       ncg     rms          rms(c)
DAV:   1    -0.129739502303E+04   -0.57736E-05   -0.10556E-02  6084   0.111E-01    0.895E-02
DAV:   2    -0.129743699067E+04   -0.41968E-01   -0.73427E-03  7254   0.498E-01    0.461E+00
DAV:   3    -0.129740060009E+04    0.36391E-01   -0.13026E-02  6900   0.523E-01    0.145E+00
DAV:   4    -0.129739541262E+04    0.51875E-02   -0.21872E-03  6948   0.239E-01    0.367E-01
DAV:   5    -0.129739652127E+04   -0.11086E-02   -0.13863E-03  8412   0.162E-01    0.721E-01
DAV:   6    -0.129739691167E+04   -0.39041E-03   -0.21880E-03  7368   0.179E-01    0.803E-01
DAV:   7    -0.129739567477E+04    0.12369E-02   -0.16278E-03  7068   0.159E-01    0.476E-01
DAV:   8    -0.129739514766E+04    0.52711E-03   -0.52216E-04  6636   0.920E-02    0.230E-01
DAV:   9    -0.129739503290E+04    0.11476E-03   -0.14968E-04  6612   0.476E-02    0.875E-02
DAV:  10    -0.129739505234E+04   -0.19442E-04   -0.74217E-05  6672   0.325E-02    0.119E-01
DAV:  11    -0.129739507203E+04   -0.19692E-04   -0.79400E-05  6444   0.332E-02    0.144E-01
DAV:  12    -0.129739504214E+04    0.29896E-04   -0.50575E-05  6240   0.298E-02    0.997E-02
DAV:  13    -0.129739503231E+04    0.98294E-05   -0.22830E-05  3660   0.195E-02    0.845E-02
DAV:  14    -0.129739502359E+04    0.87134E-05   -0.10033E-05  3288   0.129E-02    0.600E-02
DAV:  15    -0.129739502048E+04    0.31177E-05   -0.45790E-06  3324   0.914E-03
  21 F= -.12973950E+04 E0= -.12967133E+04  d E =-.793072E-03
       N       E                     dE             d eps       ncg     rms          rms(c)
DAV:   1    -0.129739511520E+04   -0.91606E-04   -0.15018E-01  6084   0.412E-01    0.737E-02
DAV:   2    -0.129741389424E+04   -0.18779E-01   -0.61408E-03  6576   0.345E-01    0.301E+00
DAV:   3    -0.129739960557E+04    0.14289E-01   -0.56262E-03  6588   0.382E-01    0.142E+00
DAV:   4    -0.129739564950E+04    0.39561E-02   -0.20029E-03  6564   0.194E-01    0.391E-01
DAV:   5    -0.129739568784E+04   -0.38337E-04   -0.76940E-04  6564   0.118E-01    0.397E-01
DAV:   6    -0.129739684193E+04   -0.11541E-02   -0.13142E-03  6624   0.143E-01    0.775E-01
DAV:   7    -0.129739570284E+04    0.11391E-02   -0.13181E-03  6660   0.141E-01    0.376E-01
DAV:   8    -0.129739537475E+04    0.32809E-03   -0.32755E-04  6564   0.791E-02    0.214E-01
DAV:   9    -0.129739530173E+04    0.73019E-04   -0.12317E-04  6516   0.447E-02    0.139E-01
DAV:  10    -0.129739528640E+04    0.15329E-04   -0.60275E-05  6564   0.322E-02    0.117E-01
DAV:  11    -0.129739530548E+04   -0.19079E-04   -0.58994E-05  6504   0.318E-02    0.139E-01
DAV:  12    -0.129739528985E+04    0.15635E-04   -0.55120E-05  6360   0.301E-02    0.115E-01
DAV:  13    -0.129739527387E+04    0.15980E-04   -0.24534E-05  4272   0.225E-02    0.972E-02
DAV:  14    -0.129739526824E+04    0.56291E-05   -0.96198E-06  3384   0.132E-02    0.870E-02
DAV:  15    -0.129739526385E+04    0.43873E-05   -0.73250E-06  3264   0.105E-02
  22 F= -.12973953E+04 E0= -.12967136E+04  d E =-.243374E-03
       N       E                     dE             d eps       ncg     rms          rms(c)
DAV:   1    -0.129739517054E+04    0.97700E-04   -0.27524E-01  6084   0.557E-01    0.948E-02
DAV:   2    -0.129742043902E+04   -0.25268E-01   -0.96640E-03  6564   0.409E-01    0.345E+00
DAV:   3    -0.129740172321E+04    0.18716E-01   -0.85369E-03  6594   0.453E-01    0.172E+00
DAV:   4    -0.129739631268E+04    0.54105E-02   -0.33055E-03  6540   0.248E-01    0.603E-01
DAV:   5    -0.129739585007E+04    0.46261E-03   -0.12783E-03  6564   0.146E-01    0.406E-01
DAV:   6    -0.129739713555E+04   -0.12855E-02   -0.14795E-03  6612   0.163E-01    0.781E-01
DAV:   7    -0.129739637790E+04    0.75766E-03   -0.17642E-03  6540   0.160E-01    0.566E-01
DAV:   8    -0.129739552339E+04    0.85451E-03   -0.55780E-04  6540   0.109E-01    0.209E-01
DAV:   9    -0.129739550055E+04    0.22837E-04   -0.13518E-04  6588   0.457E-02    0.182E-01
DAV:  10    -0.129739546513E+04    0.35419E-04   -0.90158E-05  6660   0.379E-02    0.120E-01
DAV:  11    -0.129739548395E+04   -0.18815E-04   -0.73486E-05  6660   0.379E-02    0.144E-01
DAV:  12    -0.129739548255E+04    0.13990E-05   -0.72808E-05  6504   0.335E-02    0.153E-01
DAV:  13    -0.129739545735E+04    0.25204E-04   -0.39819E-05  5652   0.257E-02    0.124E-01
DAV:  14    -0.129739545187E+04    0.54736E-05   -0.15391E-05  3468   0.163E-02    0.116E-01
DAV:  15    -0.129739544236E+04    0.95110E-05   -0.11421E-05  3336   0.141E-02    0.916E-02
DAV:  16    -0.129739543447E+04    0.78913E-05   -0.10278E-05  3396   0.149E-02    0.541E-02
DAV:  17    -0.129739542837E+04    0.61029E-05   -0.74773E-06  3300   0.126E-02    0.328E-02
DAV:  18    -0.129739542724E+04    0.11256E-05   -0.28285E-06  3144   0.785E-03
  23 F= -.12973954E+04 E0= -.12967138E+04  d E =-.406765E-03
       N       E                     dE             d eps       ncg     rms          rms(c)
DAV:   1    -0.129739544764E+04   -0.19273E-04   -0.70232E-02  6084   0.280E-01    0.470E-02
DAV:   2    -0.129740626791E+04   -0.10820E-01   -0.31328E-03  6606   0.244E-01    0.235E+00
DAV:   3    -0.129739639042E+04    0.98775E-02   -0.25638E-03  6624   0.257E-01    0.594E-01
DAV:   4    -0.129739573003E+04    0.66039E-03   -0.59640E-04  6648   0.106E-01    0.304E-01
DAV:   5    -0.129739578496E+04   -0.54931E-04   -0.40560E-04  6720   0.865E-02    0.304E-01
DAV:   6    -0.129739602591E+04   -0.24095E-03   -0.51467E-04  6708   0.945E-02    0.427E-01
DAV:   7    -0.129739568591E+04    0.34000E-03   -0.44340E-04  6660   0.825E-02    0.251E-01
DAV:   8    -0.129739554889E+04    0.13703E-03   -0.13785E-04  6564   0.489E-02    0.115E-01
DAV:   9    -0.129739553560E+04    0.13290E-04   -0.49582E-05  6120   0.270E-02    0.896E-02
DAV:  10    -0.129739554063E+04   -0.50319E-05   -0.38776E-05  5832   0.255E-02    0.878E-02
DAV:  11    -0.129739555069E+04   -0.10058E-04   -0.39088E-05  5184   0.264E-02    0.109E-01
DAV:  12    -0.129739553024E+04    0.20442E-04   -0.27550E-05  3732   0.216E-02    0.760E-02
DAV:  13    -0.129739552227E+04    0.79692E-05   -0.78978E-06  3216   0.117E-02    0.522E-02
DAV:  14    -0.129739552366E+04   -0.13875E-05   -0.40818E-06  3168   0.913E-03
  24 F= -.12973955E+04 E0= -.12967140E+04  d E =-.964216E-04
       N       E                     dE             d eps       ncg     rms          rms(c)
DAV:   1    -0.129739553543E+04   -0.13156E-04   -0.19352E-03  6096   0.476E-02    0.526E-02
DAV:   2    -0.129741224971E+04   -0.16714E-01   -0.40533E-03  7464   0.312E-01    0.289E+00
DAV:   3    -0.129739850641E+04    0.13743E-01   -0.40749E-03  7020   0.335E-01    0.116E+00
DAV:   4    -0.129739574991E+04    0.27565E-02   -0.99032E-04  7008   0.151E-01    0.261E-01
DAV:   5    -0.129739615120E+04   -0.40129E-03   -0.49239E-04  8148   0.108E-01    0.449E-01
DAV:   6    -0.129739636749E+04   -0.21629E-03   -0.84003E-04  7680   0.117E-01    0.543E-01
DAV:   7    -0.129739576824E+04    0.59924E-03   -0.68512E-04  7152   0.102E-01    0.275E-01
DAV:   8    -0.129739560681E+04    0.16143E-03   -0.20523E-04  6720   0.615E-02    0.173E-01
DAV:   9    -0.129739555042E+04    0.56390E-04   -0.81595E-05  6588   0.356E-02    0.836E-02
DAV:  10    -0.129739554126E+04    0.91625E-05   -0.33542E-05  5832   0.245E-02    0.616E-02
DAV:  11    -0.129739554928E+04   -0.80192E-05   -0.26890E-05  4836   0.196E-02    0.794E-02
DAV:  12    -0.129739554696E+04    0.23189E-05   -0.23198E-05  4296   0.194E-02
  25 F= -.12973955E+04 E0= -.12967140E+04  d E =-.119719E-03
       N       E                     dE             d eps       ncg     rms          rms(c)
DAV:   1    -0.129739551187E+04    0.37409E-04   -0.50724E-02  6084   0.234E-01    0.627E-02
DAV:   2    -0.129741166150E+04   -0.16150E-01   -0.44797E-03  6726   0.306E-01    0.284E+00
DAV:   3    -0.129739904535E+04    0.12616E-01   -0.47433E-03  6648   0.345E-01    0.128E+00
DAV:   4    -0.129739573536E+04    0.33100E-02   -0.11503E-03  6684   0.160E-01    0.236E-01
DAV:   5    -0.129739636149E+04   -0.62613E-03   -0.67900E-04  7098   0.114E-01    0.528E-01
DAV:   6    -0.129739641817E+04   -0.56676E-04   -0.10977E-03  6948   0.128E-01    0.544E-01
DAV:   7    -0.129739587048E+04    0.54768E-03   -0.74501E-04  6900   0.109E-01    0.327E-01
DAV:   8    -0.129739566280E+04    0.20769E-03   -0.24652E-04  6564   0.671E-02    0.190E-01
DAV:   9    -0.129739560448E+04    0.58317E-04   -0.10852E-04  6636   0.435E-02    0.117E-01
DAV:  10    -0.129739560335E+04    0.11321E-05   -0.67267E-05  6684   0.346E-02    0.117E-01
DAV:  11    -0.129739562216E+04   -0.18817E-04   -0.59659E-05  6528   0.323E-02    0.140E-01
DAV:  12    -0.129739560194E+04    0.20219E-04   -0.48672E-05  6420   0.303E-02    0.118E-01
DAV:  13    -0.129739558331E+04    0.18632E-04   -0.20380E-05  3756   0.206E-02    0.948E-02
DAV:  14    -0.129739557818E+04    0.51359E-05   -0.93909E-06  3408   0.117E-02    0.829E-02
DAV:  15    -0.129739557456E+04    0.36185E-05   -0.70697E-06  3240   0.115E-02
  26 F= -.12973956E+04 E0= -.12967140E+04  d E =-.275987E-04
       N       E                     dE             d eps       ncg     rms          rms(c)
DAV:   1    -0.129739557219E+04    0.59828E-05   -0.16722E-03  6096   0.442E-02    0.413E-02
DAV:   2    -0.129739754465E+04   -0.19725E-02   -0.85655E-04  7440   0.146E-01    0.854E-01
DAV:   3    -0.129739817022E+04   -0.62556E-03   -0.11203E-03  7104   0.177E-01    0.116E+00
DAV:   4    -0.129739571641E+04    0.24538E-02   -0.58672E-04  6720   0.130E-01    0.222E-01
DAV:   5    -0.129739564336E+04    0.73052E-04   -0.16487E-04  6708   0.524E-02    0.173E-01
DAV:   6    -0.129739569646E+04   -0.53101E-04   -0.14492E-04  6720   0.530E-02    0.201E-01
DAV:   7    -0.129739573341E+04   -0.36956E-04   -0.16917E-04  6612   0.547E-02    0.243E-01
DAV:   8    -0.129739562421E+04    0.10920E-03   -0.13137E-04  6360   0.458E-02    0.142E-01
DAV:   9    -0.129739557706E+04    0.47151E-04   -0.38769E-05  4680   0.268E-02    0.600E-02
DAV:  10    -0.129739557555E+04    0.15075E-05   -0.11889E-05  3360   0.134E-02
  27 F= -.12973956E+04 E0= -.12967140E+04  d E =-.285938E-04
