NiAl                                    
           1
     0.000000  -15.146222    0.000000
     0.000000   -7.573111  -13.117013
    29.000000    0.000000    0.000000
   Ni   N 
 252   1
Direct configuration=     1
   0.44444444  0.44444444  0.10434507
   0.44444444  0.77777778  0.10434507
   0.44444444  0.11111111  0.10434507
   0.77777778  0.44444444  0.10434507
   0.77777778  0.77777778  0.10434507
   0.77777778  0.11111111  0.10434507
   0.11111111  0.44444444  0.10434507
   0.11111111  0.77777778  0.10434507
   0.11111111  0.11111111  0.10434507
   0.55555556  0.55555556  0.17318538
   0.55555556  0.88888889  0.17318538
   0.55555556  0.22222222  0.17318538
   0.88888889  0.55555556  0.17318538
   0.88888889  0.88888889  0.17318538
   0.88888889  0.22222222  0.17318538
   0.22222222  0.55555556  0.17318538
   0.22222222  0.88888889  0.17318538
   0.22222222  0.22222222  0.17318538
   0.66666667  0.66666667  0.24249888
   0.66666667  0.00000000  0.24249888
   0.66666667  0.33333333  0.24249888
   0.00000000  0.66666667  0.24249888
   0.00000000  0.00000000  0.24249888
   0.00000000  0.33333333  0.24249888
   0.33333333  0.66666667  0.24249888
   0.33333333  0.00000000  0.24249888
   0.33333333  0.33333333  0.24249888
   0.77777778  0.77777778  0.31173066
   0.77777778  0.11111111  0.31173066
   0.77777778  0.44444444  0.31173066
   0.11111111  0.77777778  0.31173066
   0.11111111  0.11111111  0.31173066
   0.11111111  0.44444444  0.31173066
   0.44444444  0.77777778  0.31173066
   0.44444444  0.11111111  0.31173066
   0.44444444  0.44444444  0.31173066
   0.88888889  0.88888889  0.38096243
   0.88888889  0.22222222  0.38096243
   0.88888889  0.55555556  0.38096243
   0.22222222  0.88888889  0.38096243
   0.22222222  0.22222222  0.38096243
   0.22222222  0.55555556  0.38096243
   0.55555556  0.88888889  0.38096243
   0.55555556  0.22222222  0.38096243
   0.55555556  0.55555556  0.38096243
   0.00000000  0.00000000  0.45027593
   0.00000000  0.33333333  0.45027593
   0.00000000  0.66666667  0.45027593
   0.33333333  0.00000000  0.45027593
   0.33333333  0.33333333  0.45027593
   0.33333333  0.66666667  0.45027593
   0.66666667  0.00000000  0.45027593
   0.66666667  0.33333333  0.45027593
   0.66666667  0.66666667  0.45027593
   0.11111111  0.11111111  0.51911624
   0.11111111  0.44444444  0.51911624
   0.11111111  0.77777778  0.51911624
   0.44444444  0.11111111  0.51911624
   0.44444444  0.44444444  0.51911624
   0.44444444  0.77777778  0.51911624
   0.77777778  0.11111111  0.51911624
   0.77777778  0.44444444  0.51911624
   0.77777778  0.77777778  0.51911624
   0.27777778  0.27777778  0.10434507
   0.27777778  0.61111111  0.10434507
   0.27777778  0.94444444  0.10434507
   0.61111111  0.27777778  0.10434507
   0.61111111  0.61111111  0.10434507
   0.61111111  0.94444444  0.10434507
   0.94444444  0.27777778  0.10434507
   0.94444444  0.61111111  0.10434507
   0.94444444  0.94444444  0.10434507
   0.38888889  0.38888889  0.17318538
   0.38888889  0.72222222  0.17318538
   0.38888889  0.05555556  0.17318538
   0.72222222  0.38888889  0.17318538
   0.72222222  0.72222222  0.17318538
   0.72222222  0.05555556  0.17318538
   0.05555556  0.38888889  0.17318538
   0.05555556  0.72222222  0.17318538
   0.05555556  0.05555556  0.17318538
   0.50000000  0.50000000  0.24249888
   0.50000000  0.83333333  0.24249888
   0.50000000  0.16666667  0.24249888
   0.83333333  0.50000000  0.24249888
   0.83333333  0.83333333  0.24249888
   0.83333333  0.16666667  0.24249888
   0.16666667  0.50000000  0.24249888
   0.16666667  0.83333333  0.24249888
   0.16666667  0.16666667  0.24249888
   0.61111111  0.61111111  0.31173066
   0.61111111  0.94444444  0.31173066
   0.61111111  0.27777778  0.31173066
   0.94444444  0.61111111  0.31173066
   0.94444444  0.94444444  0.31173066
   0.94444444  0.27777778  0.31173066
   0.27777778  0.61111111  0.31173066
   0.27777778  0.94444444  0.31173066
   0.27777778  0.27777778  0.31173066
   0.72222222  0.72222222  0.38096243
   0.72222222  0.05555556  0.38096243
   0.72222222  0.38888889  0.38096243
   0.05555556  0.72222222  0.38096243
   0.05555556  0.05555556  0.38096243
   0.05555556  0.38888889  0.38096243
   0.38888889  0.72222222  0.38096243
   0.38888889  0.05555556  0.38096243
   0.38888889  0.38888889  0.38096243
   0.83333333  0.83333333  0.45027593
   0.83333333  0.16666667  0.45027593
   0.83333333  0.50000000  0.45027593
   0.16666667  0.83333333  0.45027593
   0.16666667  0.16666667  0.45027593
   0.16666667  0.50000000  0.45027593
   0.50000000  0.83333333  0.45027593
   0.50000000  0.16666667  0.45027593
   0.50000000  0.50000000  0.45027593
   0.94444444  0.94444444  0.51911624
   0.94444444  0.27777778  0.51911624
   0.94444444  0.61111111  0.51911624
   0.27777778  0.94444444  0.51911624
   0.27777778  0.27777778  0.51911624
   0.27777778  0.61111111  0.51911624
   0.61111111  0.94444444  0.51911624
   0.61111111  0.27777778  0.51911624
   0.61111111  0.61111111  0.51911624
   0.27777778  0.44444444  0.10434507
   0.27777778  0.77777778  0.10434507
   0.27777778  0.11111111  0.10434507
   0.61111111  0.44444444  0.10434507
   0.61111111  0.77777778  0.10434507
   0.61111111  0.11111111  0.10434507
   0.94444444  0.44444444  0.10434507
   0.94444444  0.77777778  0.10434507
   0.94444444  0.11111111  0.10434507
   0.38888889  0.55555556  0.17318538
   0.38888889  0.88888889  0.17318538
   0.38888889  0.22222222  0.17318538
   0.72222222  0.55555556  0.17318538
   0.72222222  0.88888889  0.17318538
   0.72222222  0.22222222  0.17318538
   0.05555556  0.55555556  0.17318538
   0.05555556  0.88888889  0.17318538
   0.05555556  0.22222222  0.17318538
   0.50000000  0.66666667  0.24249888
   0.50000000  0.00000000  0.24249888
   0.50000000  0.33333333  0.24249888
   0.83333333  0.66666667  0.24249888
   0.83333333  0.00000000  0.24249888
   0.83333333  0.33333333  0.24249888
   0.16666667  0.66666667  0.24249888
   0.16666667  0.00000000  0.24249888
   0.16666667  0.33333333  0.24249888
   0.61111111  0.77777778  0.31173066
   0.61111111  0.11111111  0.31173066
   0.61111111  0.44444444  0.31173066
   0.94444444  0.77777778  0.31173066
   0.94444444  0.11111111  0.31173066
   0.94444444  0.44444444  0.31173066
   0.27777778  0.77777778  0.31173066
   0.27777778  0.11111111  0.31173066
   0.27777778  0.44444444  0.31173066
   0.72222222  0.88888889  0.38096243
   0.72222222  0.22222222  0.38096243
   0.72222222  0.55555556  0.38096243
   0.05555556  0.88888889  0.38096243
   0.05555556  0.22222222  0.38096243
   0.05555556  0.55555556  0.38096243
   0.38888889  0.88888889  0.38096243
   0.38888889  0.22222222  0.38096243
   0.38888889  0.55555556  0.38096243
   0.83333333  0.00000000  0.45027593
   0.83333333  0.33333333  0.45027593
   0.83333333  0.66666667  0.45027593
   0.16666667  0.00000000  0.45027593
   0.16666667  0.33333333  0.45027593
   0.16666667  0.66666667  0.45027593
   0.50000000  0.00000000  0.45027593
   0.50000000  0.33333333  0.45027593
   0.50000000  0.66666667  0.45027593
   0.94444444  0.11111111  0.51911624
   0.94444444  0.44444444  0.51911624
   0.94444444  0.77777778  0.51911624
   0.27777778  0.11111111  0.51911624
   0.27777778  0.44444444  0.51911624
   0.27777778  0.77777778  0.51911624
   0.61111111  0.11111111  0.51911624
   0.61111111  0.44444444  0.51911624
   0.61111111  0.77777778  0.51911624
   0.44444444  0.27777778  0.10434507
   0.44444444  0.61111111  0.10434507
   0.44444444  0.94444444  0.10434507
   0.77777778  0.27777778  0.10434507
   0.77777778  0.61111111  0.10434507
   0.77777778  0.94444444  0.10434507
   0.11111111  0.27777778  0.10434507
   0.11111111  0.61111111  0.10434507
   0.11111111  0.94444444  0.10434507
   0.55555556  0.38888889  0.17318538
   0.55555556  0.72222222  0.17318538
   0.55555556  0.05555556  0.17318538
   0.88888889  0.38888889  0.17318538
   0.88888889  0.72222222  0.17318538
   0.88888889  0.05555556  0.17318538
   0.22222222  0.38888889  0.17318538
   0.22222222  0.72222222  0.17318538
   0.22222222  0.05555556  0.17318538
   0.66666667  0.50000000  0.24249888
   0.66666667  0.83333333  0.24249888
   0.66666667  0.16666667  0.24249888
   0.00000000  0.50000000  0.24249888
   0.00000000  0.83333333  0.24249888
   0.00000000  0.16666667  0.24249888
   0.33333333  0.50000000  0.24249888
   0.33333333  0.83333333  0.24249888
   0.33333333  0.16666667  0.24249888
   0.77777778  0.61111111  0.31173066
   0.77777778  0.94444444  0.31173066
   0.77777778  0.27777778  0.31173066
   0.11111111  0.61111111  0.31173066
   0.11111111  0.94444444  0.31173066
   0.11111111  0.27777778  0.31173066
   0.44444444  0.61111111  0.31173066
   0.44444444  0.94444444  0.31173066
   0.44444444  0.27777778  0.31173066
   0.88888889  0.72222222  0.38096243
   0.88888889  0.05555556  0.38096243
   0.88888889  0.38888889  0.38096243
   0.22222222  0.72222222  0.38096243
   0.22222222  0.05555556  0.38096243
   0.22222222  0.38888889  0.38096243
   0.55555556  0.72222222  0.38096243
   0.55555556  0.05555556  0.38096243
   0.55555556  0.38888889  0.38096243
   0.00000000  0.83333333  0.45027593
   0.00000000  0.16666667  0.45027593
   0.00000000  0.50000000  0.45027593
   0.33333333  0.83333333  0.45027593
   0.33333333  0.16666667  0.45027593
   0.33333333  0.50000000  0.45027593
   0.66666667  0.83333333  0.45027593
   0.66666667  0.16666667  0.45027593
   0.66666667  0.50000000  0.45027593
   0.11111111  0.94444444  0.51911624
   0.11111111  0.27777778  0.51911624
   0.11111111  0.61111111  0.51911624
   0.44444444  0.94444444  0.51911624
   0.44444444  0.27777778  0.51911624
   0.44444444  0.61111111  0.51911624
   0.77777778  0.94444444  0.51911624
   0.77777778  0.27777778  0.51911624
   0.77777778  0.61111111  0.51911624
   0.38888889  0.55555556  0.57000000
Direct configuration=     2
   0.44444620  0.44444093  0.10433873
   0.44444810  0.77777633  0.10433719
   0.44444620  0.11111416  0.10433820
   0.77777698  0.44444438  0.10433449
   0.77778131  0.77777071  0.10433808
   0.77777296  0.11111416  0.10433820
   0.11111197  0.44444438  0.10433449
   0.11110891  0.77777633  0.10433719
   0.11111008  0.11111317  0.10433723
   0.55555381  0.55555594  0.17321322
   0.55555113  0.88888538  0.17321432
   0.55555703  0.22221928  0.17321791
   0.88889057  0.55555220  0.17321304
   0.88889683  0.88888538  0.17321432
   0.88888843  0.22222571  0.17321401
   0.22222358  0.55555594  0.17321322
   0.22222121  0.88889091  0.17321195
   0.22221919  0.22222571  0.17321401
   0.66667199  0.66667175  0.24251242
   0.66666368  0.00000597  0.24251366
   0.66666301  0.33333659  0.24251358
  -0.00001041  0.66667175  0.24251242
  -0.00000523 -0.00000323  0.24251447
  -0.00000061  0.33333454  0.24251304
   0.33333327  0.66666679  0.24250882
   0.33334180 -0.00000323  0.24251447
   0.33333373  0.33333659  0.24251358
   0.77777933  0.77777467  0.31170313
   0.77778171  0.11110438  0.31170881
   0.77777689  0.44444547  0.31170862
   0.11110894  0.77778358  0.31170370
   0.11111162  0.11111010  0.31170845
   0.11111097  0.44444547  0.31170862
   0.44444081  0.77778358  0.31170370
   0.44444724  0.11110438  0.31170881
   0.44444133  0.44445068  0.31171645
   0.88890035  0.88888046  0.38097027
   0.88888783  0.22222442  0.38096746
   0.88888933  0.55555467  0.38096813
   0.22222272  0.88888790  0.38096932
   0.22222109  0.22222442  0.38096746
   0.22218901  0.55557164  0.38096431
   0.55555252  0.88888046  0.38097027
   0.55559453  0.22214428  0.38092552
   0.55557269  0.55557164  0.38096431
  -0.00000714  0.00000077  0.45029632
   0.00000183  0.33332967  0.45029185
   0.00002597  0.66665591  0.45028896
   0.33333970  0.00000077  0.45029632
   0.33332807  0.33335223  0.45030266
   0.33329712  0.66673908  0.45019173
   0.66666568  0.00000197  0.45029572
   0.66665303  0.33335223  0.45030266
   0.66665146  0.66665591  0.45028896
   0.11110896  0.11111541  0.51908443
   0.11110946  0.44444449  0.51907215
   0.11107292  0.77777265  0.51904983
   0.44444121  0.11110681  0.51907848
   0.44367461  0.44598412  0.52031801
   0.44448776  0.77777265  0.51904983
   0.77778531  0.11110681  0.51907848
   0.77777939  0.44444449  0.51907215
   0.77777952  0.77777430  0.51908034
   0.27777772  0.27777864  0.10433449
   0.27777426  0.61111287  0.10433873
   0.27777772  0.94444365  0.10433449
   0.61110966  0.27777557  0.10433719
   0.61110966  0.61111476  0.10433719
   0.61110404  0.94444798  0.10433808
   0.94444650  0.27777675  0.10433723
   0.94444750  0.61111287  0.10433820
   0.94444750  0.94443963  0.10433820
   0.38888927  0.38889025  0.17321322
   0.38888927  0.72222048  0.17321322
   0.38888553  0.05555723  0.17321304
   0.72222424  0.38888788  0.17321195
   0.72221871  0.72221780  0.17321432
   0.72221871  0.05556349  0.17321432
   0.05555904  0.38888586  0.17321401
   0.05555261  0.72222370  0.17321791
   0.05555904  0.05555510  0.17321401
   0.50000012  0.49999994  0.24250882
   0.50000509  0.83333865  0.24251242
   0.50000509  0.16665626  0.24251242
   0.83333010  0.50000846  0.24251447
   0.83333930  0.83333035  0.24251366
   0.83333010  0.16666144  0.24251447
   0.16666993  0.50000039  0.24251358
   0.16666993  0.83332968  0.24251358
   0.16666788  0.16666606  0.24251304
   0.61111692  0.61110748  0.31170370
   0.61110800  0.94444600  0.31170313
   0.61111692  0.27777561  0.31170370
   0.94443771  0.61111391  0.31170881
   0.94443771  0.94444838  0.31170881
   0.94444343  0.27777829  0.31170845
   0.27778401  0.61110799  0.31171645
   0.27777880  0.94444356  0.31170862
   0.27777880  0.27777764  0.31170862
   0.72221379  0.72221919  0.38097027
   0.72221379  0.05556702  0.38097027
   0.72222123  0.38888939  0.38096932
   0.05547761  0.72226120  0.38092552
   0.05555775  0.05555449  0.38096746
   0.05555775  0.38888776  0.38096746
   0.38890497  0.72223935  0.38096431
   0.38888800  0.05555600  0.38096813
   0.38890497  0.38885568  0.38096431
   0.83333530  0.83333235  0.45029572
   0.83333410  0.16665953  0.45029632
   0.83333410  0.50000637  0.45029632
   0.16668556  0.83331970  0.45030266
   0.16666301  0.16666850  0.45029185
   0.16668556  0.49999474  0.45030266
   0.49998924  0.83331812  0.45028896
   0.49998924  0.16669264  0.45028896
   0.50007242  0.49996379  0.45019173
   0.94444014  0.94445198  0.51907848
   0.94444875  0.27777563  0.51908443
   0.94444014  0.61110788  0.51907848
   0.27777782  0.94444605  0.51907215
   0.27777782  0.27777613  0.51907215
   0.27931745  0.61034128  0.52031801
   0.61110763  0.94444619  0.51908034
   0.61110598  0.27773959  0.51904983
   0.61110598  0.61115443  0.51904983
   0.27777725  0.44444392  0.10433694
   0.27777725  0.77777883  0.10433694
   0.27777526  0.11111237  0.10433966
   0.61111216  0.44444392  0.10433694
   0.61111185  0.77777851  0.10433625
   0.61111185  0.11110964  0.10433625
   0.94444570  0.44444193  0.10433966
   0.94444297  0.77777851  0.10433625
   0.94444570  0.11111237  0.10433966
   0.38888889  0.55555556  0.17321035
   0.38888563  0.88888905  0.17321184
   0.38888563  0.22222532  0.17321184
   0.72222238  0.55555230  0.17321184
   0.72222222  0.88888889  0.17321851
   0.72222238  0.22222532  0.17321184
   0.05555865  0.55555230  0.17321184
   0.05555865  0.88888905  0.17321184
   0.05555556  0.22222222  0.17321654
   0.49999610  0.66666277  0.24251490
   0.49999859  0.00000070  0.24251127
   0.49999610  0.33334113  0.24251490
   0.83333404  0.66666526  0.24251127
   0.83333404  0.00000070  0.24251127
   0.83332998  0.33333501  0.24251432
   0.16667447  0.66666277  0.24251490
   0.16666834 -0.00000335  0.24251432
   0.16666834  0.33333501  0.24251432
   0.61111463  0.77778129  0.31169796
   0.61111463  0.11110408  0.31169796
   0.61110722  0.44444639  0.31171291
   0.94443741  0.77778129  0.31169796
   0.94444175  0.11110841  0.31170910
   0.94444175  0.44444984  0.31170910
   0.27777972  0.77777389  0.31171291
   0.27778317  0.11110841  0.31170910
   0.27777972  0.44444639  0.31171291
   0.72222222  0.88888889  0.38096419
   0.72221329  0.22222476  0.38096852
   0.72221329  0.55556195  0.38096852
   0.05555809  0.88887995  0.38096852
   0.05555556  0.22222222  0.38096648
   0.05555809  0.55556195  0.38096852
   0.38889529  0.88887995  0.38096852
   0.38889529  0.22222476  0.38096852
   0.38888889  0.55555556  0.38098716
   0.83333036 -0.00000297  0.45029430
   0.83334104  0.33332948  0.45029211
   0.83333036  0.66667260  0.45029430
   0.16666281  0.00000771  0.45029211
   0.16666281  0.33332948  0.45029211
   0.16669531  0.66665234  0.45031985
   0.50000594 -0.00000297  0.45029430
   0.49998568  0.33336198  0.45031985
   0.49998568  0.66665234  0.45031985
   0.94444542  0.11111209  0.51907702
   0.94444542  0.44444249  0.51907702
   0.94443386  0.77778307  0.51908093
   0.27777582  0.11111209  0.51907702
   0.27759799  0.44426466  0.51906987
   0.27759799  0.77813734  0.51906987
   0.61111641  0.11110052  0.51908093
   0.61147068  0.44426466  0.51906987
   0.61111641  0.77778307  0.51908093
   0.44444810  0.27777557  0.10433719
   0.44444620  0.61111287  0.10433873
   0.44444620  0.94443963  0.10433820
   0.77777698  0.27777864  0.10433449
   0.77777296  0.61111287  0.10433820
   0.77778131  0.94444798  0.10433808
   0.11111008  0.27777675  0.10433723
   0.11110891  0.61111476  0.10433719
   0.11111197  0.94444365  0.10433449
   0.55555381  0.38889025  0.17321322
   0.55555703  0.72222370  0.17321791
   0.55555113  0.05556349  0.17321432
   0.88888843  0.38888586  0.17321401
   0.88889683  0.72221780  0.17321432
   0.88889057  0.05555723  0.17321304
   0.22222121  0.38888788  0.17321195
   0.22222358  0.72222048  0.17321322
   0.22221919  0.05555510  0.17321401
   0.66666301  0.50000039  0.24251358
   0.66666368  0.83333035  0.24251366
   0.66667199  0.16665626  0.24251242
  -0.00000523  0.50000846  0.24251447
  -0.00001041  0.83333865  0.24251242
  -0.00000061  0.16666606  0.24251304
   0.33333327  0.49999994  0.24250882
   0.33333373  0.83332968  0.24251358
   0.33334180  0.16666144  0.24251447
   0.77778171  0.61111391  0.31170881
   0.77777933  0.94444600  0.31170313
   0.77777689  0.27777764  0.31170862
   0.11110894  0.61110748  0.31170370
   0.11111097  0.94444356  0.31170862
   0.11111162  0.27777829  0.31170845
   0.44444133  0.61110799  0.31171645
   0.44444724  0.94444838  0.31170881
   0.44444081  0.27777561  0.31170370
   0.88890035  0.72221919  0.38097027
   0.88888933  0.05555600  0.38096813
   0.88888783  0.38888776  0.38096746
   0.22218901  0.72223935  0.38096431
   0.22222109  0.05555449  0.38096746
   0.22222272  0.38888939  0.38096932
   0.55559453  0.72226120  0.38092552
   0.55555252  0.05556702  0.38097027
   0.55557269  0.38885568  0.38096431
   0.00002597  0.83331812  0.45028896
   0.00000183  0.16666850  0.45029185
  -0.00000714  0.50000637  0.45029632
   0.33332807  0.83331970  0.45030266
   0.33333970  0.16665953  0.45029632
   0.33329712  0.49996379  0.45019173
   0.66666568  0.83333235  0.45029572
   0.66665146  0.16669264  0.45028896
   0.66665303  0.49999474  0.45030266
   0.11110946  0.94444605  0.51907215
   0.11110896  0.27777563  0.51908443
   0.11107292  0.61115443  0.51904983
   0.44444121  0.94445198  0.51907848
   0.44448776  0.27773959  0.51904983
   0.44367461  0.61034128  0.52031801
   0.77777952  0.94444619  0.51908034
   0.77777939  0.27777613  0.51907215
   0.77778531  0.61110788  0.51907848
   0.38888889  0.55555556  0.56690009
Direct configuration=     3
   0.44445147  0.44443039  0.10431973
   0.44445905  0.77777199  0.10431357
   0.44445148  0.11112332  0.10431758
   0.77777459  0.44444420  0.10430278
   0.77779192  0.77774949  0.10431712
   0.77775853  0.11112332  0.10431758
   0.11111455  0.44444420  0.10430278
   0.11110230  0.77777199  0.10431357
   0.11110700  0.11111934  0.10431372
   0.55554859  0.55555708  0.17329677
   0.55553785  0.88887485  0.17330113
   0.55556145  0.22221043  0.17331550
   0.88889560  0.55554213  0.17329605
   0.88892063  0.88887485  0.17330113
   0.88888706  0.22223617  0.17329992
   0.22222766  0.55555708  0.17329677
   0.22221818  0.88889698  0.17329166
   0.22221010  0.22223617  0.17329992
   0.66668795  0.66668702  0.24255303
   0.66665472  0.00002388  0.24255799
   0.66665206  0.33334637  0.24255767
  -0.00004163  0.66668702  0.24255303
  -0.00002092 -0.00001294  0.24256123
  -0.00000242  0.33333818  0.24255551
   0.33333308  0.66666717  0.24253864
   0.33336719 -0.00001294  0.24256123
   0.33333491  0.33334637  0.24255767
   0.77778400  0.77776533  0.31162055
   0.77779351  0.11108419  0.31164327
   0.77777424  0.44444854  0.31164250
   0.11110243  0.77780100  0.31162284
   0.11111314  0.11110705  0.31164182
   0.11111055  0.44444854  0.31164250
   0.44442991  0.77780100  0.31162284
   0.44445563  0.11108419  0.31164327
   0.44443197  0.44446939  0.31167384
   0.88893475  0.88885516  0.38099379
   0.88888464  0.22223100  0.38098257
   0.88889066  0.55555202  0.38098522
   0.22222421  0.88888491  0.38099001
   0.22221769  0.22223100  0.38098257
   0.22208938  0.55561988  0.38096994
   0.55554342  0.88885516  0.38099379
   0.55571145  0.22191044  0.38081480
   0.55562408  0.55561988  0.38096994
  -0.00002856  0.00000307  0.45035746
   0.00000732  0.33331869  0.45033960
   0.00010388  0.66662364  0.45032805
   0.33335882  0.00000307  0.45035746
   0.33331229  0.33340891  0.45038284
   0.33318850  0.66695634  0.44993912
   0.66666273  0.00000788  0.45035508
   0.66661213  0.33340891  0.45038284
   0.66660582  0.66662364  0.45032805
   0.11110251  0.11112832  0.51898900
   0.11110451  0.44444461  0.51893987
   0.11095836  0.77775727  0.51885058
   0.44443151  0.11109390  0.51896518
   0.44136510  0.45060313  0.52392331
   0.44461770  0.77775727  0.51885058
   0.77780792  0.11109390  0.51896518
   0.77778421  0.44444461  0.51893987
   0.77778474  0.77776385  0.51897264
   0.27777753  0.27778121  0.10430278
   0.27776372  0.61111814  0.10431973
   0.27777753  0.94444125  0.10430278
   0.61110532  0.27776896  0.10431357
   0.61110532  0.61112571  0.10431357
   0.61108282  0.94445859  0.10431712
   0.94445267  0.27777366  0.10431372
   0.94445666  0.61111815  0.10431758
   0.94445666  0.94442519  0.10431758
   0.38889041  0.38889433  0.17329677
   0.38889041  0.72221526  0.17329677
   0.38887547  0.05556227  0.17329605
   0.72223031  0.38888485  0.17329166
   0.72220818  0.72220452  0.17330113
   0.72220818  0.05558730  0.17330113
   0.05556951  0.38887676  0.17329992
   0.05554377  0.72222812  0.17331550
   0.05556951  0.05555373  0.17329992
   0.50000050  0.49999975  0.24253864
   0.50002035  0.83335461  0.24255303
   0.50002035  0.16662504  0.24255303
   0.83332040  0.50003385  0.24256123
   0.83335722  0.83332139  0.24255799
   0.83332040  0.16664575  0.24256123
   0.16667970  0.50000158  0.24255767
   0.16667970  0.83331872  0.24255767
   0.16667151  0.16666425  0.24255551
   0.61113433  0.61109658  0.31162284
   0.61109867  0.94445067  0.31162055
   0.61113433  0.27776909  0.31162284
   0.94441753  0.61112229  0.31164327
   0.94441753  0.94446018  0.31164327
   0.94444038  0.27777981  0.31164182
   0.27780273  0.61109864  0.31167384
   0.27778187  0.94444091  0.31164250
   0.27778187  0.27777722  0.31164250
   0.72218849  0.72221009  0.38099379
   0.72218849  0.05560142  0.38099379
   0.72221825  0.38889088  0.38099001
   0.05524377  0.72237812  0.38081480
   0.05556433  0.05555131  0.38098257
   0.05556433  0.38888436  0.38098257
   0.38895321  0.72229074  0.38096994
   0.38888535  0.05555732  0.38098522
   0.38895321  0.38875605  0.38096994
   0.83334122  0.83332939  0.45035508
   0.83333641  0.16663811  0.45035746
   0.83333641  0.50002549  0.45035746
   0.16674225  0.83327879  0.45038284
   0.16665202  0.16667399  0.45033960
   0.16674225  0.49997896  0.45038284
   0.49995697  0.83327249  0.45032805
   0.49995697  0.16677054  0.45032805
   0.50028967  0.49985516  0.44993912
   0.94442723  0.94447459  0.51896518
   0.94446165  0.27776917  0.51898900
   0.94442723  0.61109818  0.51896518
   0.27777795  0.94445087  0.51893987
   0.27777795  0.27777118  0.51893987
   0.28393646  0.60803177  0.52392331
   0.61109719  0.94445141  0.51897264
   0.61109061  0.27762503  0.51885058
   0.61109061  0.61128437  0.51885058
   0.27777568  0.44444235  0.10431257
   0.27777568  0.77778197  0.10431257
   0.27776771  0.11111614  0.10432345
   0.61111530  0.44444235  0.10431257
   0.61111406  0.77778072  0.10430981
   0.61111406  0.11110522  0.10430981
   0.94444948  0.44443438  0.10432345
   0.94443855  0.77778072  0.10430981
   0.94444948  0.11111614  0.10432345
   0.38888889  0.55555556  0.17328525
   0.38887587  0.88888953  0.17329125
   0.38887587  0.22223460  0.17329125
   0.72222286  0.55554253  0.17329125
   0.72222222  0.88888889  0.17331789
   0.72222286  0.22223460  0.17329125
   0.05556794  0.55554253  0.17329125
   0.05556794  0.88888953  0.17329125
   0.05555556  0.22222222  0.17331003
   0.49998440  0.66665107  0.24256296
   0.49999438  0.00000281  0.24254841
   0.49998440  0.33336454  0.24256296
   0.83333614  0.66666104  0.24254841
   0.83333614  0.00000281  0.24254841
   0.83331992  0.33334004  0.24256062
   0.16669787  0.66665107  0.24256296
   0.16667337 -0.00001341  0.24256062
   0.16667337  0.33334004  0.24256062
   0.61112517  0.77779184  0.31159987
   0.61112517  0.11108299  0.31159987
   0.61109555  0.44445223  0.31165966
   0.94441632  0.77779184  0.31159987
   0.94443366  0.11110033  0.31164445
   0.94443366  0.44446602  0.31164445
   0.27778556  0.77776221  0.31165966
   0.27779935  0.11110033  0.31164445
   0.27778556  0.44445223  0.31165966
   0.72222222  0.88888889  0.38096949
   0.72218647  0.22223237  0.38098682
   0.72218647  0.55558115  0.38098682
   0.05556571  0.88885314  0.38098682
   0.05555556  0.22222222  0.38097864
   0.05556571  0.55558115  0.38098682
   0.38891448  0.88885314  0.38098682
   0.38891448  0.22223237  0.38098682
   0.38888889  0.55555556  0.38106135
   0.83332146 -0.00001187  0.45034941
   0.83336417  0.33331792  0.45034065
   0.83332146  0.66669041  0.45034941
   0.16665125  0.00003083  0.45034065
   0.16665125  0.33331792  0.45034065
   0.16678125  0.66660937  0.45045160
   0.50002375 -0.00001187  0.45034941
   0.49994271  0.33344792  0.45045160
   0.49994271  0.66660937  0.45045160
   0.94444836  0.11111503  0.51895934
   0.94444836  0.44443661  0.51895934
   0.94440209  0.77779896  0.51897497
   0.27776994  0.11111503  0.51895934
   0.27705864  0.44372531  0.51893074
   0.27705864  0.77921605  0.51893074
   0.61113229  0.11106876  0.51897497
   0.61254938  0.44372531  0.51893074
   0.61113229  0.77779896  0.51897497
   0.44445905  0.27776896  0.10431357
   0.44445147  0.61111814  0.10431973
   0.44445148  0.94442519  0.10431758
   0.77777459  0.27778121  0.10430278
   0.77775853  0.61111815  0.10431758
   0.77779192  0.94445859  0.10431712
   0.11110700  0.27777366  0.10431372
   0.11110230  0.61112571  0.10431357
   0.11111455  0.94444125  0.10430278
   0.55554859  0.38889433  0.17329677
   0.55556145  0.72222812  0.17331550
   0.55553785  0.05558730  0.17330113
   0.88888706  0.38887676  0.17329992
   0.88892063  0.72220452  0.17330113
   0.88889560  0.05556227  0.17329605
   0.22221818  0.38888485  0.17329166
   0.22222766  0.72221526  0.17329677
   0.22221010  0.05555373  0.17329992
   0.66665206  0.50000158  0.24255767
   0.66665472  0.83332139  0.24255799
   0.66668795  0.16662504  0.24255303
  -0.00002092  0.50003385  0.24256123
  -0.00004163  0.83335461  0.24255303
  -0.00000242  0.16666425  0.24255551
   0.33333308  0.49999975  0.24253864
   0.33333491  0.83331872  0.24255767
   0.33336719  0.16664575  0.24256123
   0.77779351  0.61112229  0.31164327
   0.77778400  0.94445067  0.31162055
   0.77777424  0.27777722  0.31164250
   0.11110243  0.61109658  0.31162284
   0.11111055  0.94444091  0.31164250
   0.11111314  0.27777981  0.31164182
   0.44443197  0.61109864  0.31167384
   0.44445563  0.94446018  0.31164327
   0.44442991  0.27776909  0.31162284
   0.88893475  0.72221009  0.38099379
   0.88889066  0.05555732  0.38098522
   0.88888464  0.38888436  0.38098257
   0.22208938  0.72229074  0.38096994
   0.22221769  0.05555131  0.38098257
   0.22222421  0.38889088  0.38099001
   0.55571145  0.72237812  0.38081480
   0.55554342  0.05560142  0.38099379
   0.55562408  0.38875605  0.38096994
   0.00010388  0.83327249  0.45032805
   0.00000732  0.16667399  0.45033960
  -0.00002856  0.50002549  0.45035746
   0.33331229  0.83327879  0.45038284
   0.33335882  0.16663811  0.45035746
   0.33318850  0.49985516  0.44993912
   0.66666273  0.83332939  0.45035508
   0.66660582  0.16677054  0.45032805
   0.66661213  0.49997896  0.45038284
   0.11110451  0.94445087  0.51893987
   0.11110251  0.27776917  0.51898900
   0.11095836  0.61128437  0.51885058
   0.44443151  0.94447459  0.51896518
   0.44461770  0.27762503  0.51885058
   0.44136510  0.60803177  0.52392331
   0.77778474  0.94445141  0.51897264
   0.77778421  0.27777118  0.51893987
   0.77780792  0.61109818  0.51896518
   0.38888889  0.55555556  0.55760037
Direct configuration=     4
   0.44444949  0.44443435  0.10432687
   0.44445493  0.77777362  0.10432244
   0.44444950  0.11111988  0.10432532
   0.77777549  0.44444427  0.10431469
   0.77778794  0.77775746  0.10432499
   0.77776395  0.11111988  0.10432532
   0.11111358  0.44444427  0.10431469
   0.11110478  0.77777362  0.10432244
   0.11110816  0.11111702  0.10432255
   0.55555055  0.55555665  0.17326539
   0.55554284  0.88887880  0.17326853
   0.55555979  0.22221375  0.17327885
   0.88889371  0.55554591  0.17326488
   0.88891169  0.88887880  0.17326853
   0.88888758  0.22223225  0.17326766
   0.22222613  0.55555665  0.17326539
   0.22221932  0.88889470  0.17326173
   0.22221351  0.22223225  0.17326766
   0.66668195  0.66668128  0.24253778
   0.66665809  0.00001716  0.24254135
   0.66665617  0.33334270  0.24254111
  -0.00002990  0.66668128  0.24253778