 254 254   0   0
  0.2268316E+02  0.1514622E-08  0.1514622E-08  0.2900000E-08  0.5000000E-15
  1.000000000000000E-004
  CAR 
 NiAl                                    
      6.01425572    -23.66368935  301     -0.59584089      1.00000000
    -23.664  0.0000E+00  0.0000E+00
    -23.565  0.0000E+00  0.0000E+00
    -23.466  0.0000E+00  0.0000E+00
    -23.367  0.0000E+00  0.0000E+00
    -23.268  0.0000E+00  0.0000E+00
    -23.169  0.0000E+00  0.0000E+00
    -23.070  0.0000E+00  0.0000E+00
    -22.971  0.0000E+00  0.0000E+00
    -22.872  0.0000E+00  0.0000E+00
    -22.773  0.0000E+00  0.0000E+00
    -22.674  0.0000E+00  0.0000E+00
    -22.575  0.1622E-11  0.1604E-12
    -22.477  0.4697E-04  0.4646E-05
    -22.378  0.7554E+00  0.7473E-01
    -22.279  0.1633E+02  0.1690E+01
    -22.180  0.3129E+01  0.2000E+01
    -22.081  0.1382E-02  0.2000E+01
    -21.982  0.3831E-09  0.2000E+01
    -21.883  0.0000E+00  0.2000E+01
    -21.784  0.0000E+00  0.2000E+01
    -21.685  0.0000E+00  0.2000E+01
    -21.586  0.0000E+00  0.2000E+01
    -21.487  0.0000E+00  0.2000E+01
    -21.388  0.0000E+00  0.2000E+01
    -21.289  0.0000E+00  0.2000E+01
    -21.191  0.0000E+00  0.2000E+01
    -21.092  0.0000E+00  0.2000E+01
    -20.993  0.0000E+00  0.2000E+01
    -20.894  0.0000E+00  0.2000E+01
    -20.795  0.0000E+00  0.2000E+01
    -20.696  0.0000E+00  0.2000E+01
    -20.597  0.0000E+00  0.2000E+01
    -20.498  0.0000E+00  0.2000E+01
    -20.399  0.0000E+00  0.2000E+01
    -20.300  0.0000E+00  0.2000E+01
    -20.201  0.0000E+00  0.2000E+01
    -20.102  0.0000E+00  0.2000E+01
    -20.003  0.0000E+00  0.2000E+01
    -19.904  0.0000E+00  0.2000E+01
    -19.806  0.0000E+00  0.2000E+01
    -19.707  0.0000E+00  0.2000E+01
    -19.608  0.0000E+00  0.2000E+01
    -19.509  0.0000E+00  0.2000E+01
    -19.410  0.0000E+00  0.2000E+01
    -19.311  0.0000E+00  0.2000E+01
    -19.212  0.0000E+00  0.2000E+01
    -19.113  0.0000E+00  0.2000E+01
    -19.014  0.0000E+00  0.2000E+01
    -18.915  0.0000E+00  0.2000E+01
    -18.816  0.0000E+00  0.2000E+01
    -18.717  0.0000E+00  0.2000E+01
    -18.618  0.0000E+00  0.2000E+01
    -18.520  0.0000E+00  0.2000E+01
    -18.421  0.0000E+00  0.2000E+01
    -18.322  0.0000E+00  0.2000E+01
    -18.223  0.0000E+00  0.2000E+01
    -18.124  0.0000E+00  0.2000E+01
    -18.025  0.0000E+00  0.2000E+01
    -17.926  0.0000E+00  0.2000E+01
    -17.827  0.0000E+00  0.2000E+01
    -17.728  0.0000E+00  0.2000E+01
    -17.629  0.0000E+00  0.2000E+01
    -17.530  0.0000E+00  0.2000E+01
    -17.431  0.0000E+00  0.2000E+01
    -17.332  0.0000E+00  0.2000E+01
    -17.233  0.0000E+00  0.2000E+01
    -17.135  0.0000E+00  0.2000E+01
    -17.036  0.0000E+00  0.2000E+01
    -16.937  0.0000E+00  0.2000E+01
    -16.838  0.0000E+00  0.2000E+01
    -16.739  0.0000E+00  0.2000E+01
    -16.640  0.0000E+00  0.2000E+01
    -16.541  0.0000E+00  0.2000E+01
    -16.442  0.0000E+00  0.2000E+01
    -16.343  0.0000E+00  0.2000E+01
    -16.244  0.0000E+00  0.2000E+01
    -16.145  0.0000E+00  0.2000E+01
    -16.046  0.0000E+00  0.2000E+01
    -15.947  0.0000E+00  0.2000E+01
    -15.848  0.0000E+00  0.2000E+01
    -15.750  0.0000E+00  0.2000E+01
    -15.651  0.0000E+00  0.2000E+01
    -15.552  0.0000E+00  0.2000E+01
    -15.453  0.0000E+00  0.2000E+01
    -15.354  0.0000E+00  0.2000E+01
    -15.255  0.0000E+00  0.2000E+01
    -15.156  0.0000E+00  0.2000E+01
    -15.057  0.0000E+00  0.2000E+01
    -14.958  0.0000E+00  0.2000E+01
    -14.859  0.0000E+00  0.2000E+01
    -14.760  0.0000E+00  0.2000E+01
    -14.661  0.0000E+00  0.2000E+01
    -14.562  0.0000E+00  0.2000E+01
    -14.464  0.0000E+00  0.2000E+01
    -14.365  0.0000E+00  0.2000E+01
    -14.266  0.0000E+00  0.2000E+01
    -14.167  0.0000E+00  0.2000E+01
    -14.068  0.0000E+00  0.2000E+01
    -13.969  0.0000E+00  0.2000E+01
    -13.870  0.0000E+00  0.2000E+01
    -13.771  0.0000E+00  0.2000E+01
    -13.672  0.0000E+00  0.2000E+01
    -13.573  0.0000E+00  0.2000E+01
    -13.474  0.0000E+00  0.2000E+01
    -13.375  0.0000E+00  0.2000E+01
    -13.276  0.0000E+00  0.2000E+01
    -13.177  0.0000E+00  0.2000E+01
    -13.079  0.0000E+00  0.2000E+01
    -12.980  0.0000E+00  0.2000E+01
    -12.881  0.0000E+00  0.2000E+01
    -12.782  0.0000E+00  0.2000E+01
    -12.683  0.0000E+00  0.2000E+01
    -12.584  0.0000E+00  0.2000E+01
    -12.485  0.0000E+00  0.2000E+01
    -12.386  0.0000E+00  0.2000E+01
    -12.287  0.0000E+00  0.2000E+01
    -12.188  0.0000E+00  0.2000E+01
    -12.089  0.0000E+00  0.2000E+01
    -11.990  0.0000E+00  0.2000E+01
    -11.891  0.1775E-11  0.2000E+01
    -11.793  0.4975E-04  0.2000E+01
    -11.694  0.7754E+00  0.2077E+01
    -11.595  0.1637E+02  0.3696E+01
    -11.496  0.3071E+01  0.4000E+01
    -11.397  0.1316E-02  0.4000E+01
    -11.298  0.3531E-09  0.4000E+01
    -11.199  0.0000E+00  0.4000E+01
    -11.100  0.0000E+00  0.4000E+01
    -11.001  0.0000E+00  0.4000E+01
    -10.902  0.0000E+00  0.4000E+01
    -10.803  0.0000E+00  0.4000E+01
    -10.704  0.0000E+00  0.4000E+01
    -10.605  0.0000E+00  0.4000E+01
    -10.506  0.0000E+00  0.4000E+01
    -10.408  0.0000E+00  0.4000E+01
    -10.309  0.0000E+00  0.4000E+01
    -10.210  0.0000E+00  0.4000E+01
    -10.111  0.0000E+00  0.4000E+01
    -10.012  0.0000E+00  0.4000E+01
     -9.913  0.0000E+00  0.4000E+01
     -9.814  0.0000E+00  0.4000E+01
     -9.715  0.0000E+00  0.4000E+01
     -9.616  0.0000E+00  0.4000E+01
     -9.517  0.0000E+00  0.4000E+01
     -9.418  0.0000E+00  0.4000E+01
     -9.319  0.1419E-09  0.4000E+01
     -9.220  0.4371E-03  0.4000E+01
     -9.121  0.8545E+00  0.4085E+01
     -9.023  0.4033E+01  0.4484E+01
     -8.924  0.1396E+01  0.4622E+01
     -8.825  0.2382E+02  0.6979E+01
     -8.726  0.5318E+01  0.7505E+01
     -8.627  0.4094E+01  0.7910E+01
     -8.528  0.1406E+02  0.9300E+01
     -8.429  0.7779E+01  0.1007E+02
     -8.330  0.3486E+02  0.1352E+02
     -8.231  0.1461E+02  0.1496E+02
     -8.132  0.3467E+02  0.1839E+02
     -8.033  0.6107E+01  0.1900E+02
     -7.934  0.1625E+01  0.1916E+02
     -7.835  0.2130E+02  0.2127E+02
     -7.737  0.1062E+02  0.2232E+02
     -7.638  0.2491E+02  0.2478E+02
     -7.539  0.4223E+02  0.2896E+02
     -7.440  0.6361E+02  0.3525E+02
     -7.341  0.1258E+02  0.3649E+02
     -7.242  0.7142E-01  0.3650E+02
     -7.143  0.1107E+02  0.3760E+02
     -7.044  0.6596E+02  0.4412E+02
     -6.945  0.4380E+02  0.4845E+02
     -6.846  0.2128E+02  0.5056E+02
     -6.747  0.9781E+01  0.5153E+02
     -6.648  0.2533E+02  0.5403E+02
     -6.549  0.2437E+02  0.5644E+02
     -6.450  0.4727E+02  0.6112E+02
     -6.352  0.6623E+02  0.6767E+02
     -6.253  0.6489E+02  0.7409E+02
     -6.154  0.1378E+02  0.7545E+02
     -6.055  0.4546E+02  0.7995E+02
     -5.956  0.7820E+02  0.8769E+02
     -5.857  0.7673E+02  0.9528E+02
     -5.758  0.7122E+01  0.9598E+02
     -5.659  0.2771E+01  0.9626E+02
     -5.560  0.2610E+02  0.9884E+02
     -5.461  0.5844E+02  0.1046E+03
     -5.362  0.1547E+03  0.1199E+03
     -5.263  0.6050E+02  0.1259E+03
     -5.164  0.6367E+02  0.1322E+03
     -5.066  0.1203E+03  0.1441E+03
     -4.967  0.1086E+03  0.1548E+03
     -4.868  0.4002E+02  0.1588E+03
     -4.769  0.1300E+03  0.1717E+03
     -4.670  0.2798E+03  0.1993E+03
     -4.571  0.1557E+03  0.2148E+03
     -4.472  0.2403E+03  0.2385E+03
     -4.373  0.2853E+03  0.2667E+03
     -4.274  0.2765E+03  0.2941E+03
     -4.175  0.2761E+03  0.3214E+03
     -4.076  0.2359E+03  0.3448E+03
     -3.977  0.4325E+03  0.3875E+03
     -3.878  0.5147E+03  0.4385E+03
     -3.779  0.4553E+03  0.4835E+03
     -3.681  0.4736E+03  0.5303E+03
     -3.582  0.4568E+03  0.5755E+03
     -3.483  0.3827E+03  0.6134E+03
     -3.384  0.3602E+03  0.6490E+03
     -3.285  0.3661E+03  0.6852E+03
     -3.186  0.5178E+03  0.7365E+03
     -3.087  0.4851E+03  0.7844E+03
     -2.988  0.3675E+03  0.8208E+03
     -2.889  0.6059E+03  0.8807E+03
     -2.790  0.5027E+03  0.9305E+03
     -2.691  0.5343E+03  0.9833E+03
     -2.592  0.5442E+03  0.1037E+04
     -2.493  0.6823E+03  0.1105E+04
     -2.394  0.7474E+03  0.1179E+04
     -2.296  0.8715E+03  0.1265E+04
     -2.197  0.8641E+03  0.1350E+04
     -2.098  0.8266E+03  0.1432E+04
     -1.999  0.8761E+03  0.1519E+04
     -1.900  0.6189E+03  0.1580E+04
     -1.801  0.5966E+03  0.1639E+04
     -1.702  0.5711E+03  0.1695E+04
     -1.603  0.5293E+03  0.1748E+04
     -1.504  0.6264E+03  0.1810E+04
     -1.405  0.8127E+03  0.1890E+04
     -1.306  0.6546E+03  0.1955E+04
     -1.207  0.4767E+03  0.2002E+04
     -1.108  0.7721E+03  0.2078E+04
     -1.010  0.7850E+03  0.2156E+04
     -0.911  0.8187E+03  0.2237E+04
     -0.812  0.6283E+03  0.2299E+04
     -0.713  0.9080E+03  0.2389E+04
     -0.614  0.1211E+04  0.2509E+04
     -0.515  0.9102E+03  0.2599E+04
     -0.416  0.4680E+03  0.2645E+04
     -0.317  0.1954E+03  0.2665E+04
     -0.218  0.1207E+03  0.2676E+04
     -0.119  0.1685E+03  0.2693E+04
     -0.020  0.1535E+03  0.2708E+04
      0.079  0.6459E+02  0.2715E+04
      0.178  0.5517E+02  0.2720E+04
      0.277  0.4373E+02  0.2725E+04
      0.375  0.6218E+02  0.2731E+04
      0.474  0.1154E+03  0.2742E+04
      0.573  0.9225E+02  0.2751E+04
      0.672  0.8131E+02  0.2759E+04
      0.771  0.8615E+02  0.2768E+04
      0.870  0.1135E+03  0.2779E+04
      0.969  0.1322E+03  0.2792E+04
      1.068  0.6433E+02  0.2798E+04
      1.167  0.4371E+02  0.2803E+04
      1.266  0.6755E+02  0.2809E+04
      1.365  0.9876E+02  0.2819E+04
      1.464  0.5650E+02  0.2825E+04
      1.563  0.4309E+02  0.2829E+04
      1.661  0.1096E+03  0.2840E+04
      1.760  0.7642E+02  0.2847E+04
      1.859  0.8342E+02  0.2856E+04
      1.958  0.1034E+03  0.2866E+04
      2.057  0.4973E+02  0.2871E+04
      2.156  0.7600E+02  0.2878E+04
      2.255  0.8960E+02  0.2887E+04
      2.354  0.1103E+03  0.2898E+04
      2.453  0.4112E+02  0.2902E+04
      2.552  0.5421E+02  0.2908E+04
      2.651  0.6795E+02  0.2914E+04
      2.750  0.2459E+02  0.2917E+04
      2.849  0.2262E+02  0.2919E+04
      2.948  0.5845E+02  0.2925E+04
      3.046  0.1526E+03  0.2940E+04
      3.145  0.1738E+03  0.2957E+04
      3.244  0.5521E+02  0.2963E+04
      3.343  0.3639E+02  0.2966E+04
      3.442  0.4829E+02  0.2971E+04
      3.541  0.8944E+02  0.2980E+04
      3.640  0.3339E+02  0.2983E+04
      3.739  0.7210E+02  0.2990E+04
      3.838  0.3079E+02  0.2993E+04
      3.937  0.2411E+02  0.2996E+04
      4.036  0.1810E+02  0.2997E+04
      4.135  0.5492E+02  0.3003E+04
      4.234  0.6741E+02  0.3010E+04
      4.333  0.3993E+02  0.3013E+04
      4.431  0.8921E+02  0.3022E+04
      4.530  0.6537E+02  0.3029E+04
      4.629  0.4251E+02  0.3033E+04
      4.728  0.3030E+02  0.3036E+04
      4.827  0.4608E+00  0.3036E+04
      4.926  0.1841E-04  0.3036E+04
      5.025  0.5151E-12  0.3036E+04
      5.124  0.0000E+00  0.3036E+04
      5.223  0.0000E+00  0.3036E+04
      5.322  0.0000E+00  0.3036E+04
      5.421  0.0000E+00  0.3036E+04
      5.520  0.0000E+00  0.3036E+04
      5.619  0.0000E+00  0.3036E+04
      5.717  0.0000E+00  0.3036E+04
      5.816  0.0000E+00  0.3036E+04
      5.915  0.0000E+00  0.3036E+04
      6.014  0.0000E+00  0.3036E+04
