  254  254    1    1
  0.2268316E+02  0.1514622E-08  0.1514622E-08  0.2900000E-08  0.5000000E-15
  1.000000000000000E-004
  CAR 
 NiAl                                    
   2530      4   1518
 
  0.0000000E+00  0.0000000E+00  0.0000000E+00  0.2500000E+00
    1      -22.314618   1.000000
    2      -11.630930   1.000000
    3       -9.087643   1.000000
    4       -8.643593   1.000000
    5       -8.412831   1.000000
    6       -8.177949   1.000000
    7       -8.174053   1.000000
    8       -8.173826   1.000000
    9       -8.173687   1.000000
   10       -8.172618   1.000000
   11       -8.126387   1.000000
   12       -7.718568   1.000000
   13       -7.710292   1.000000
   14       -7.668623   1.000000
   15       -7.668275   1.000000
   16       -7.668226   1.000000
   17       -7.664788   1.000000
   18       -7.555163   1.000000
   19       -7.481651   1.000000
   20       -6.884551   1.000000
   21       -6.882874   1.000000
   22       -6.882804   1.000000
   23       -6.877426   1.000000
   24       -6.855980   1.000000
   25       -6.807541   1.000000
   26       -6.670791   1.000000
   27       -6.544090   1.000000
   28       -6.538211   1.000000
   29       -6.538143   1.000000
   30       -6.537534   1.000000
   31       -6.533760   1.000000
   32       -6.532010   1.000000
   33       -6.431369   1.000000
   34       -6.118394   1.000000
   35       -6.118009   1.000000
   36       -6.116467   1.000000
   37       -6.111402   1.000000
   38       -6.108905   1.000000
   39       -6.107792   1.000000
   40       -5.917505   1.000000
   41       -5.917471   1.000000
   42       -5.917345   1.000000
   43       -5.917188   1.000000
   44       -5.917144   1.000000
   45       -5.916926   1.000000
   46       -5.916861   1.000000
   47       -5.916750   1.000000
   48       -5.913481   1.000000
   49       -5.909633   1.000000
   50       -5.900684   1.000000
   51       -5.821684   1.000000
   52       -5.651617   1.000000
   53       -5.586544   1.000000
   54       -5.586173   1.000000
   55       -5.585041   1.000000
   56       -5.581462   1.000000
   57       -5.580572   1.000000
   58       -5.579280   1.000000
   59       -5.491911   1.000000
   60       -5.491158   1.000000
   61       -5.488372   1.000000
   62       -5.486851   1.000000
   63       -5.476734   1.000000
   64       -5.465288   1.000000
   65       -5.139747   1.000000
   66       -5.139294   1.000000
   67       -5.137398   1.000000
   68       -5.136964   1.000000
   69       -5.132351   1.000000
   70       -5.128957   1.000000
   71       -5.048227   1.000000
   72       -4.981356   1.000000
   73       -4.980983   1.000000
   74       -4.980582   1.000000
   75       -4.975614   1.000000
   76       -4.975517   1.000000
   77       -4.908216   1.000000
   78       -4.868460   1.000000
   79       -4.808546   1.000000
   80       -4.807963   1.000000
   81       -4.807895   1.000000
   82       -4.770265   1.000000
   83       -4.769213   1.000000
   84       -4.766997   1.000000
   85       -4.765628   1.000000
   86       -4.758962   1.000000
   87       -4.739243   1.000000
   88       -4.687973   1.000000
   89       -4.686917   1.000000
   90       -4.684516   1.000000
   91       -4.681985   1.000000
   92       -4.675999   1.000000
   93       -4.675092   1.000000
   94       -4.667463   1.000000
   95       -4.667371   1.000000
   96       -4.666129   1.000000
   97       -4.576411   1.000000
   98       -4.575272   1.000000
   99       -4.574984   1.000000
  100       -4.574693   1.000000
  101       -4.574512   1.000000
  102       -4.574394   1.000000
  103       -4.574219   1.000000
  104       -4.574204   1.000000
  105       -4.573919   1.000000
  106       -4.573738   1.000000
  107       -4.573239   1.000000
  108       -4.572853   1.000000
  109       -4.533940   1.000000
  110       -4.532544   1.000000
  111       -4.531992   1.000000
  112       -4.464215   1.000000
  113       -4.462345   1.000000
  114       -4.461733   1.000000
  115       -4.428108   1.000000
  116       -4.427351   1.000000
  117       -4.427318   1.000000
  118       -4.427209   1.000000
  119       -4.424860   1.000000
  120       -4.387536   1.000000
  121       -4.375690   1.000000
  122       -4.373649   1.000000
  123       -4.371556   1.000000
  124       -4.371015   1.000000
  125       -4.370925   1.000000
  126       -4.370762   1.000000
  127       -4.370605   1.000000
  128       -4.370496   1.000000
  129       -4.370209   1.000000
  130       -4.369883   1.000000
  131       -4.369407   1.000000
  132       -4.369048   1.000000
  133       -4.363495   1.000000
  134       -4.363337   1.000000
  135       -4.362892   1.000000
  136       -4.360711   1.000000
  137       -4.360276   1.000000
  138       -4.360229   1.000000
  139       -4.360140   1.000000
  140       -4.359979   1.000000
  141       -4.359569   1.000000
  142       -4.359162   1.000000
  143       -4.358252   1.000000
  144       -4.358130   1.000000
  145       -4.314648   1.000000
  146       -4.314035   1.000000
  147       -4.313893   1.000000
  148       -4.313678   1.000000
  149       -4.312853   1.000000
  150       -4.296760   1.000000
  151       -4.284653   1.000000
  152       -4.279376   1.000000
  153       -4.277052   1.000000
  154       -4.275277   1.000000
  155       -4.273604   1.000000
  156       -4.263976   1.000000
  157       -4.259001   1.000000
  158       -4.258015   1.000000
  159       -4.245034   1.000000
  160       -4.227383   1.000000
  161       -4.226906   1.000000
  162       -4.224870   1.000000
  163       -4.221106   1.000000
  164       -4.220448   1.000000
  165       -4.219670   1.000000
  166       -4.218955   1.000000
  167       -4.218805   1.000000
  168       -4.218568   1.000000
  169       -4.217170   1.000000
  170       -4.215158   1.000000
  171       -4.213750   1.000000
  172       -4.156605   1.000000
  173       -4.156414   1.000000
  174       -4.156258   1.000000
  175       -4.128886   1.000000
  176       -4.127755   1.000000
  177       -4.126994   1.000000
  178       -4.124667   1.000000
  179       -4.122874   1.000000
  180       -4.103881   1.000000
  181       -4.075920   1.000000
  182       -4.050168   1.000000
  183       -4.044596   1.000000
  184       -4.031110   1.000000
  185       -4.030458   1.000000
  186       -4.025718   1.000000
  187       -4.024816   1.000000
  188       -4.023957   1.000000
  189       -4.023200   1.000000
  190       -4.021242   1.000000
  191       -4.021107   1.000000
  192       -4.020906   1.000000
  193       -4.019595   1.000000
  194       -4.014429   1.000000
  195       -4.011521   1.000000
  196       -3.987224   1.000000
  197       -3.986361   1.000000
  198       -3.985560   1.000000
  199       -3.949704   1.000000
  200       -3.930405   1.000000
  201       -3.924710   1.000000
  202       -3.923010   1.000000
  203       -3.922854   1.000000
  204       -3.921189   1.000000
  205       -3.920389   1.000000
  206       -3.919038   1.000000
  207       -3.910473   1.000000
  208       -3.880350   1.000000
  209       -3.878526   1.000000
  210       -3.877068   1.000000
  211       -3.876817   1.000000
  212       -3.876720   1.000000
  213       -3.876677   1.000000
  214       -3.876507   1.000000
  215       -3.876305   1.000000
  216       -3.876218   1.000000
  217       -3.876194   1.000000
  218       -3.876072   1.000000
  219       -3.875867   1.000000
  220       -3.869406   1.000000
  221       -3.867795   1.000000
  222       -3.865774   1.000000
  223       -3.865704   1.000000
  224       -3.864826   1.000000
  225       -3.860518   1.000000
  226       -3.799289   1.000000
  227       -3.789686   1.000000
  228       -3.785648   1.000000
  229       -3.783773   1.000000
  230       -3.783121   1.000000
  231       -3.782649   1.000000
  232       -3.782037   1.000000
  233       -3.781695   1.000000
  234       -3.781538   1.000000
  235       -3.781131   1.000000
  236       -3.776914   1.000000
  237       -3.773851   1.000000
  238       -3.751354   1.000000
  239       -3.751311   1.000000
  240       -3.750940   1.000000
  241       -3.750077   1.000000
  242       -3.750031   1.000000
  243       -3.745521   1.000000
  244       -3.735877   1.000000
  245       -3.735636   1.000000
  246       -3.734555   1.000000
  247       -3.734370   1.000000
  248       -3.731037   1.000000
  249       -3.730605   1.000000
  250       -3.730185   1.000000
  251       -3.728957   1.000000
  252       -3.727419   1.000000
  253       -3.725595   1.000000
  254       -3.724181   1.000000
  255       -3.724136   1.000000
  256       -3.705631   1.000000
  257       -3.694794   1.000000
  258       -3.687783   1.000000
  259       -3.686055   1.000000
  260       -3.685697   1.000000
  261       -3.685108   1.000000
  262       -3.684754   1.000000
  263       -3.684592   1.000000
  264       -3.684549   1.000000
  265       -3.684423   1.000000
  266       -3.684236   1.000000
  267       -3.684135   1.000000
  268       -3.679396   1.000000
  269       -3.677059   1.000000
  270       -3.674486   1.000000
  271       -3.636821   1.000000
  272       -3.633924   1.000000
  273       -3.628512   1.000000
  274       -3.627453   1.000000
  275       -3.626164   1.000000
  276       -3.623460   1.000000
  277       -3.621373   1.000000
  278       -3.619436   1.000000
  279       -3.618827   1.000000
  280       -3.618167   1.000000
  281       -3.598067   1.000000
  282       -3.597898   1.000000
  283       -3.585895   1.000000
  284       -3.582867   1.000000
  285       -3.582678   1.000000
  286       -3.582469   1.000000
  287       -3.582375   1.000000
  288       -3.578538   1.000000
  289       -3.572439   1.000000
  290       -3.571831   1.000000
  291       -3.571802   1.000000
  292       -3.571768   1.000000
  293       -3.566157   1.000000
  294       -3.566014   1.000000
  295       -3.528629   1.000000
  296       -3.525076   1.000000
  297       -3.503883   1.000000
  298       -3.501906   1.000000
  299       -3.501586   1.000000
  300       -3.500109   1.000000
  301       -3.497273   1.000000
  302       -3.496806   1.000000
  303       -3.495741   1.000000
  304       -3.495559   1.000000
  305       -3.495315   1.000000
  306       -3.495117   1.000000
  307       -3.494525   1.000000
  308       -3.492478   1.000000
  309       -3.491601   1.000000
  310       -3.488346   1.000000
  311       -3.460392   1.000000
  312       -3.451603   1.000000
  313       -3.448828   1.000000
  314       -3.448352   1.000000
  315       -3.448287   1.000000
  316       -3.448127   1.000000
  317       -3.444691   1.000000
  318       -3.434241   1.000000
  319       -3.422190   1.000000
  320       -3.417829   1.000000
  321       -3.415687   1.000000
  322       -3.414817   1.000000
  323       -3.413167   1.000000
  324       -3.412345   1.000000
  325       -3.412251   1.000000
  326       -3.411975   1.000000
  327       -3.410444   1.000000
  328       -3.410206   1.000000
  329       -3.409815   1.000000
  330       -3.409416   1.000000
  331       -3.409232   1.000000
  332       -3.409128   1.000000
  333       -3.409046   1.000000
  334       -3.407812   1.000000
  335       -3.397013   1.000000
  336       -3.396621   1.000000
  337       -3.395642   1.000000
  338       -3.395225   1.000000
  339       -3.394290   1.000000
  340       -3.384352   1.000000
  341       -3.335656   1.000000
  342       -3.303040   1.000000
  343       -3.300676   1.000000
  344       -3.284188   1.000000
  345       -3.283339   1.000000
  346       -3.277337   1.000000
  347       -3.274338   1.000000
  348       -3.273935   1.000000
  349       -3.272357   1.000000
  350       -3.249909   1.000000
  351       -3.246167   1.000000
  352       -3.236983   1.000000
  353       -3.235277   1.000000
  354       -3.229748   1.000000
  355       -3.227035   1.000000
  356       -3.222589   1.000000
  357       -3.221807   1.000000
  358       -3.221035   1.000000
  359       -3.219181   1.000000
  360       -3.219072   1.000000
  361       -3.218621   1.000000
  362       -3.218582   1.000000
  363       -3.210944   1.000000
  364       -3.193260   1.000000
  365       -3.192061   1.000000
  366       -3.172895   1.000000
  367       -3.166892   1.000000
  368       -3.159530   1.000000
  369       -3.158943   1.000000
  370       -3.158434   1.000000
  371       -3.154694   1.000000
  372       -3.154163   1.000000
  373       -3.150530   1.000000
  374       -3.149488   1.000000
  375       -3.149386   1.000000
  376       -3.148773   1.000000
  377       -3.147986   1.000000
  378       -3.147839   1.000000
  379       -3.147688   1.000000
  380       -3.146190   1.000000
  381       -3.145934   1.000000
  382       -3.145154   1.000000
  383       -3.144273   1.000000
  384       -3.134559   1.000000
  385       -3.086480   1.000000
  386       -3.084678   1.000000
  387       -3.081957   1.000000
  388       -3.080280   1.000000
  389       -3.079918   1.000000
  390       -3.079359   1.000000
  391       -3.079293   1.000000
  392       -3.078465   1.000000
  393       -3.078069   1.000000
  394       -3.077553   1.000000
  395       -3.076845   1.000000
  396       -3.046799   1.000000
  397       -3.044833   1.000000
  398       -3.043322   1.000000
  399       -3.042272   1.000000
  400       -3.041936   1.000000
  401       -3.041163   1.000000
  402       -3.025851   1.000000
  403       -2.977995   1.000000
  404       -2.972789   1.000000
  405       -2.970056   1.000000
  406       -2.970029   1.000000
  407       -2.969904   1.000000
  408       -2.969119   1.000000
  409       -2.959821   1.000000
  410       -2.959177   1.000000
  411       -2.957899   1.000000
  412       -2.957165   1.000000
  413       -2.952210   1.000000
  414       -2.948747   1.000000
  415       -2.945132   1.000000
  416       -2.942754   1.000000
  417       -2.942582   1.000000
  418       -2.942193   1.000000
  419       -2.941431   1.000000
  420       -2.940895   1.000000
  421       -2.927078   1.000000
  422       -2.922592   1.000000
  423       -2.922482   1.000000
  424       -2.920647   1.000000
  425       -2.920117   1.000000
  426       -2.916897   1.000000
  427       -2.905138   1.000000
  428       -2.901452   1.000000
  429       -2.900440   1.000000
  430       -2.898510   1.000000
  431       -2.897870   1.000000
  432       -2.897515   1.000000
  433       -2.897475   1.000000
  434       -2.897414   1.000000
  435       -2.897223   1.000000
  436       -2.896945   1.000000
  437       -2.896609   1.000000
  438       -2.896524   1.000000
  439       -2.895849   1.000000
  440       -2.895628   1.000000
  441       -2.895502   1.000000
  442       -2.894860   1.000000
  443       -2.883546   1.000000
  444       -2.865742   1.000000
  445       -2.846435   1.000000
  446       -2.844941   1.000000
  447       -2.834727   1.000000
  448       -2.832727   1.000000
  449       -2.832609   1.000000
  450       -2.832397   1.000000
  451       -2.831631   1.000000
  452       -2.829240   1.000000
  453       -2.826641   1.000000
  454       -2.826401   1.000000
  455       -2.826132   1.000000
  456       -2.825453   1.000000
  457       -2.824739   1.000000
  458       -2.824579   1.000000
  459       -2.824476   1.000000
  460       -2.824061   1.000000
  461       -2.823957   1.000000
  462       -2.823728   1.000000
  463       -2.822812   1.000000
  464       -2.822735   1.000000
  465       -2.792502   1.000000
  466       -2.784329   1.000000
  467       -2.776197   1.000000
  468       -2.773271   1.000000
  469       -2.770451   1.000000
  470       -2.768908   1.000000
  471       -2.748993   1.000000
  472       -2.748576   1.000000
  473       -2.741882   1.000000
  474       -2.740534   1.000000
  475       -2.740266   1.000000
  476       -2.740057   1.000000
  477       -2.739712   1.000000
  478       -2.739333   1.000000
  479       -2.739034   1.000000
  480       -2.738174   1.000000
  481       -2.736833   1.000000
  482       -2.735984   1.000000
  483       -2.734716   1.000000
  484       -2.734448   1.000000
  485       -2.733291   1.000000
  486       -2.732914   1.000000
  487       -2.727382   1.000000
  488       -2.722967   1.000000
  489       -2.720320   1.000000
  490       -2.719633   1.000000
  491       -2.717913   1.000000
  492       -2.717432   1.000000
  493       -2.717309   1.000000
  494       -2.717226   1.000000
  495       -2.717027   1.000000
  496       -2.716812   1.000000
  497       -2.715694   1.000000
  498       -2.715397   1.000000
  499       -2.709437   1.000000
  500       -2.709269   1.000000
  501       -2.699171   1.000000
  502       -2.684914   1.000000
  503       -2.683701   1.000000
  504       -2.682424   1.000000
  505       -2.681917   1.000000
  506       -2.681855   1.000000
  507       -2.676300   1.000000
  508       -2.652338   1.000000
  509       -2.647795   1.000000
  510       -2.647740   1.000000
  511       -2.647047   1.000000
  512       -2.646217   1.000000
  513       -2.643487   1.000000
  514       -2.642893   1.000000
  515       -2.633944   1.000000
  516       -2.627850   1.000000
  517       -2.620161   1.000000
  518       -2.618700   1.000000
  519       -2.613871   1.000000
  520       -2.613290   1.000000
  521       -2.613111   1.000000
  522       -2.607118   1.000000
  523       -2.606382   1.000000
  524       -2.605288   1.000000
  525       -2.601456   1.000000
  526       -2.570811   1.000000
  527       -2.564811   1.000000
  528       -2.558163   1.000000
  529       -2.557588   1.000000
  530       -2.556918   1.000000
  531       -2.556002   1.000000
  532       -2.555227   1.000000
  533       -2.554868   1.000000
  534       -2.554645   1.000000
  535       -2.554185   1.000000
  536       -2.553968   1.000000
  537       -2.553388   1.000000
  538       -2.553227   1.000000
  539       -2.549475   1.000000
  540       -2.547533   1.000000
  541       -2.545927   1.000000
  542       -2.544458   1.000000
  543       -2.543688   1.000000
  544       -2.543298   1.000000
  545       -2.531589   1.000000
  546       -2.527877   1.000000
  547       -2.517430   1.000000
  548       -2.517073   1.000000
  549       -2.516552   1.000000
  550       -2.510259   1.000000
  551       -2.509365   1.000000
  552       -2.507876   1.000000
  553       -2.506996   1.000000
  554       -2.504510   1.000000
  555       -2.503247   1.000000
  556       -2.496107   1.000000
  557       -2.494109   1.000000
  558       -2.489734   1.000000
  559       -2.489248   1.000000
  560       -2.483405   1.000000
  561       -2.482751   1.000000
  562       -2.482327   1.000000
  563       -2.480303   1.000000
  564       -2.478602   1.000000
  565       -2.477864   1.000000
  566       -2.477743   1.000000
  567       -2.477476   1.000000
  568       -2.477223   1.000000
  569       -2.476562   1.000000
  570       -2.476209   1.000000
  571       -2.475614   1.000000
  572       -2.474497   1.000000
  573       -2.473635   1.000000
  574       -2.468352   1.000000
  575       -2.464495   1.000000
  576       -2.452861   1.000000
  577       -2.452642   1.000000
  578       -2.443734   1.000000
  579       -2.439928   1.000000
  580       -2.439007   1.000000
  581       -2.437013   1.000000
  582       -2.434435   1.000000
  583       -2.433406   1.000000
  584       -2.433090   1.000000
  585       -2.431638   1.000000
  586       -2.431016   1.000000
  587       -2.430164   1.000000
  588       -2.418047   1.000000
  589       -2.417656   1.000000
  590       -2.409417   1.000000
  591       -2.409257   1.000000
  592       -2.406429   1.000000
  593       -2.406402   1.000000
  594       -2.402653   1.000000
  595       -2.400798   1.000000
  596       -2.395428   1.000000
  597       -2.390106   1.000000
  598       -2.388094   1.000000
  599       -2.388016   1.000000
  600       -2.387632   1.000000
  601       -2.387171   1.000000
  602       -2.386824   1.000000
  603       -2.386652   1.000000
  604       -2.385427   1.000000
  605       -2.382729   1.000000
  606       -2.382532   1.000000
  607       -2.382435   1.000000
  608       -2.382167   1.000000
  609       -2.382082   1.000000
  610       -2.380692   1.000000
  611       -2.380470   1.000000
  612       -2.377557   1.000000
  613       -2.374257   1.000000
  614       -2.360602   1.000000
  615       -2.335424   1.000000
  616       -2.331760   1.000000
  617       -2.328052   1.000000
  618       -2.320208   1.000000
  619       -2.319668   1.000000
  620       -2.317951   1.000000
  621       -2.313708   1.000000
  622       -2.312861   1.000000
  623       -2.311484   1.000000
  624       -2.310627   1.000000
  625       -2.310557   1.000000
  626       -2.300965   1.000000
  627       -2.286834   1.000000
  628       -2.286008   1.000000
  629       -2.285248   1.000000
  630       -2.284357   1.000000
  631       -2.284161   1.000000
  632       -2.283586   1.000000
  633       -2.283293   1.000000
  634       -2.283213   1.000000
  635       -2.283162   1.000000
  636       -2.282897   1.000000
  637       -2.282780   1.000000
  638       -2.280549   1.000000
  639       -2.265345   1.000000
  640       -2.264563   1.000000
  641       -2.264363   1.000000
  642       -2.262397   1.000000
  643       -2.257849   1.000000
  644       -2.256384   1.000000
  645       -2.251697   1.000000
  646       -2.251557   1.000000
  647       -2.241587   1.000000
  648       -2.240742   1.000000
  649       -2.234721   1.000000
  650       -2.233568   1.000000
  651       -2.231240   1.000000
  652       -2.230734   1.000000
  653       -2.230402   1.000000
  654       -2.229758   1.000000
  655       -2.229308   1.000000
  656       -2.228768   1.000000
  657       -2.227164   1.000000
  658       -2.225195   1.000000
  659       -2.223862   1.000000
  660       -2.221420   1.000000
  661       -2.220548   1.000000
  662       -2.219918   1.000000
  663       -2.219388   1.000000
  664       -2.219002   1.000000
  665       -2.217848   1.000000
  666       -2.217207   1.000000
  667       -2.216048   1.000000
  668       -2.215592   1.000000
  669       -2.215141   1.000000
  670       -2.211922   1.000000
  671       -2.211615   1.000000
  672       -2.207217   1.000000
  673       -2.198141   1.000000
  674       -2.183004   1.000000
  675       -2.179917   1.000000
  676       -2.179200   1.000000
  677       -2.175227   1.000000
  678       -2.174617   1.000000
  679       -2.173929   1.000000
  680       -2.166727   1.000000
  681       -2.166483   1.000000
  682       -2.166442   1.000000
  683       -2.165057   1.000000
  684       -2.164851   1.000000
  685       -2.164045   1.000000
  686       -2.157541   1.000000
  687       -2.147036   1.000000
  688       -2.135030   1.000000
  689       -2.131323   1.000000
  690       -2.127544   1.000000
  691       -2.125733   1.000000
  692       -2.123455   1.000000
  693       -2.123308   1.000000
  694       -2.122833   1.000000
  695       -2.122333   1.000000
  696       -2.121654   1.000000
  697       -2.121490   1.000000
  698       -2.120737   1.000000
  699       -2.116998   1.000000
  700       -2.116879   1.000000
  701       -2.116446   1.000000
  702       -2.115294   1.000000
  703       -2.115111   1.000000
  704       -2.113397   1.000000
  705       -2.112438   1.000000
  706       -2.112319   1.000000
  707       -2.112174   1.000000
  708       -2.112056   1.000000
  709       -2.111431   1.000000
  710       -2.111070   1.000000
  711       -2.110450   1.000000
  712       -2.110431   1.000000
  713       -2.110341   1.000000
  714       -2.110181   1.000000
  715       -2.110104   1.000000
  716       -2.109503   1.000000
  717       -2.109441   1.000000
  718       -2.092160   1.000000
  719       -2.091812   1.000000
  720       -2.091605   1.000000
  721       -2.091289   1.000000
  722       -2.091103   1.000000
  723       -2.090802   1.000000
  724       -2.070025   1.000000
  725       -2.053352   1.000000
  726       -2.039805   1.000000
  727       -2.038835   1.000000
  728       -2.036537   1.000000
  729       -2.036362   1.000000
  730       -2.033518   1.000000
  731       -2.033039   1.000000
  732       -2.032869   1.000000
  733       -2.031722   1.000000
  734       -2.031697   1.000000
  735       -2.031417   1.000000
  736       -2.031100   1.000000
  737       -2.030724   1.000000
  738       -2.030524   1.000000
  739       -2.029685   1.000000
  740       -2.029157   1.000000
  741       -2.009512   1.000000
  742       -2.006907   1.000000
  743       -2.001305   1.000000
  744       -1.996508   1.000000
  745       -1.996285   1.000000
  746       -1.995921   1.000000
  747       -1.995279   1.000000
  748       -1.993069   1.000000
  749       -1.992759   1.000000
  750       -1.992609   1.000000
  751       -1.992023   1.000000
  752       -1.990840   1.000000
  753       -1.983811   1.000000
  754       -1.972473   1.000000
  755       -1.962671   1.000000
  756       -1.951553   1.000000
  757       -1.945987   1.000000
  758       -1.942303   1.000000
  759       -1.939746   1.000000
  760       -1.939205   1.000000
  761       -1.937351   1.000000
  762       -1.936714   1.000000
  763       -1.936607   1.000000
  764       -1.935377   1.000000
  765       -1.934784   1.000000
  766       -1.934190   1.000000
  767       -1.933207   1.000000
  768       -1.932780   1.000000
  769       -1.932526   1.000000
  770       -1.932436   1.000000
  771       -1.931601   1.000000
  772       -1.931523   1.000000
  773       -1.931423   1.000000
  774       -1.931007   1.000000
  775       -1.930538   1.000000
  776       -1.929919   1.000000
  777       -1.915695   1.000000
  778       -1.910128   1.000000
  779       -1.906460   1.000000
  780       -1.902841   1.000000
  781       -1.898796   1.000000
  782       -1.898301   1.000000
  783       -1.894417   1.000000
  784       -1.894004   1.000000
  785       -1.893803   1.000000
  786       -1.893369   1.000000
  787       -1.891024   1.000000
  788       -1.881026   1.000000
  789       -1.878897   1.000000
  790       -1.878546   1.000000
  791       -1.876260   1.000000
  792       -1.874979   1.000000
  793       -1.873881   1.000000
  794       -1.861622   1.000000
  795       -1.858587   1.000000
  796       -1.856814   1.000000
  797       -1.853903   1.000000
  798       -1.851397   1.000000
  799       -1.849700   1.000000
  800       -1.848982   1.000000
  801       -1.844821   1.000000
  802       -1.844534   1.000000
  803       -1.839553   1.000000
  804       -1.831680   1.000000
  805       -1.829629   1.000000
  806       -1.829497   1.000000
  807       -1.826871   1.000000
  808       -1.819374   1.000000
  809       -1.818770   1.000000
  810       -1.815533   1.000000
  811       -1.813710   1.000000
  812       -1.812850   1.000000
  813       -1.811888   1.000000
  814       -1.811768   1.000000
  815       -1.809007   1.000000
  816       -1.797560   1.000000
  817       -1.790578   1.000000
  818       -1.788172   1.000000
  819       -1.785681   1.000000
  820       -1.782824   1.000000
  821       -1.780540   1.000000
  822       -1.779256   1.000000
  823       -1.778378   1.000000
  824       -1.774438   1.000000
  825       -1.774121   1.000000
  826       -1.772833   1.000000
  827       -1.771978   1.000000
  828       -1.771717   1.000000
  829       -1.770853   1.000000
  830       -1.769702   1.000000
  831       -1.767728   1.000000
  832       -1.766466   1.000000
  833       -1.766035   1.000000
  834       -1.765217   1.000000
  835       -1.764705   1.000000
  836       -1.764314   1.000000
  837       -1.763494   1.000000
  838       -1.763098   1.000000
  839       -1.763068   1.000000
  840       -1.761792   1.000000
  841       -1.757336   1.000000
  842       -1.757299   1.000000
  843       -1.756796   1.000000
  844       -1.756787   1.000000
  845       -1.756149   1.000000
  846       -1.749901   1.000000
  847       -1.749888   1.000000
  848       -1.748877   1.000000
  849       -1.743529   1.000000
  850       -1.742557   1.000000
  851       -1.741291   1.000000
  852       -1.732522   1.000000
  853       -1.731539   1.000000
  854       -1.728498   1.000000
  855       -1.722239   1.000000
  856       -1.714773   1.000000
  857       -1.713654   1.000000
  858       -1.709465   1.000000
  859       -1.709052   1.000000
  860       -1.703904   1.000000
  861       -1.701865   1.000000
  862       -1.687716   1.000000
  863       -1.687067   1.000000
  864       -1.684916   1.000000
  865       -1.684649   1.000000
  866       -1.683554   1.000000
  867       -1.683292   1.000000
  868       -1.681963   1.000000
  869       -1.680622   1.000000
  870       -1.657936   1.000000
  871       -1.654520   1.000000
  872       -1.648401   1.000000
  873       -1.644034   1.000000
  874       -1.640738   1.000000
  875       -1.639137   1.000000
  876       -1.639036   1.000000
  877       -1.637414   1.000000
  878       -1.636584   1.000000
  879       -1.635172   1.000000
  880       -1.634204   1.000000
  881       -1.633659   1.000000
  882       -1.629242   1.000000
  883       -1.629164   1.000000
  884       -1.623497   1.000000
  885       -1.619025   1.000000
  886       -1.618858   1.000000
  887       -1.618387   1.000000
  888       -1.596244   1.000000
  889       -1.595089   1.000000
  890       -1.590123   1.000000
  891       -1.587709   1.000000
  892       -1.587291   1.000000
  893       -1.586235   1.000000
  894       -1.586055   1.000000
  895       -1.539828   1.000000
  896       -1.532685   1.000000
  897       -1.525973   1.000000
  898       -1.522508   1.000000
  899       -1.519054   1.000000
  900       -1.517206   1.000000
  901       -1.516281   1.000000