         262
 Energy:  -1302.2932811000001     
 X   0.00000000       0.00000000       0.00000000    
 X   0.00000000      -15.1462221       0.00000000    
 X   0.00000000      -7.57311106      -13.1170130    
 X   29.0000000       0.00000000       0.00000000    
 X   0.00000000      -22.7193336      -13.1170130    
 X   29.0000000      -15.1462221       0.00000000    
 X   29.0000000      -7.57311106      -13.1170130    
 X   29.0000000      -22.7193336      -13.1170130    
 Ni   15.1728001      -11.3977203      -8.03792000    
 Ni   15.0319004      -12.6774702      -5.79766989    
 Ni   15.0378399      -13.8943796      -3.62962008    
 Ni   15.0374098      -15.1472301      -1.45802999    
 Ni   15.0424099      -16.4127407      -3.64110994    
 Ni   15.0374098      -17.6705894      -5.82861996    
 Ni   15.0360003      -16.4175701      -8.01848030    
 Ni   15.0386200      -15.1496296      -10.2040901    
 Ni   15.0360003      -13.8908100      -12.3949604    
 Ni   15.0398397      -16.4097691      -12.3874998    
 Ni   15.0398397      -18.9314194      -12.3874998    
 Ni   15.0386200      -20.1915493      -10.2040901    
 Ni   15.0360003      -18.9236107      -8.01848030    
 Ni   13.0489502      -17.6705894      -8.74946022    
 Ni   13.0520802      -16.4079208      -10.9305696    
 Ni   11.0452995      -17.6705894      -11.6595697    
 Ni   11.0445404      -18.9349194      -9.47377968    
 Ni   9.03693008      -20.1953297      -10.2019100    
 Ni   9.03806973      -18.9327793      -12.3882904    
 Ni   9.03757954      -21.4567299      -12.3882504    
 Ni   11.0445404      -20.1956997      -11.6575203    
 Ni   13.0520802      -18.9332600      -10.9305696    
 Ni   15.0398397      -17.6705894      -10.2036896    
 Ni   15.0378399      -15.1635199      -5.82781982    
 Ni   13.0529203      -13.8884497      -6.55834007    
 Ni   13.0528698      -15.1493702      -4.37052011    
 Ni   11.0451002      -16.4079704      -5.10184002    
 Ni   11.0435305      -15.1449404      -7.28763008    
 Ni   9.03757954      -16.4085808      -8.01632977    
 Ni   9.03693008      -15.1458502      -10.2019100    
 Ni   7.03727007      -16.4085503      -10.9309196    
 Ni   7.03693008      -17.6705894      -8.74524021    
 Ni   5.03143978      -18.9338093      -9.47255993    
 Ni   5.03037024      -17.6705894      -11.6595697    
 Ni   3.03154993      -18.9330997      -12.3884697    
 Ni   3.03198004      -20.1956291      -10.2017403    
 Ni   3.03183007      -21.4576893      -12.3888502    
 Ni   5.03143978      -20.1961994      -11.6590996    
 Ni   7.03727007      -18.9326401      -10.9309196    
 Ni   9.03806973      -17.6705894      -10.2021198    
 Ni   11.0445404      -16.4062595      -9.47377968    
 Ni   13.0498400      -15.1426001      -8.74473000    
 Ni   11.0455303      -13.8815699      -9.47196960    
 Ni   13.0498400      -13.8822699      -10.9276800    
 Ni   13.0529203      -11.3617296      -10.9347496    
 Ni   15.0319004      -10.0974798      -10.2663403    
 Ni   15.0378399      -8.82835007      -12.4042501    
 Ni   15.0378399      -11.3666096      -12.4042501    
 Ni   15.0398197      -12.6305599      -10.2173204    
 Ni   13.0801601      -12.6093597      -8.73746014    
 Ni   15.0398197      -13.9015598      -8.01589966    
 Ni   9.03806973      -16.4084091      -12.3882904    
 Ni   9.03757954      -13.8844500      -12.3882504    
 Ni   11.0435305      -12.6215601      -11.6582603    
 Ni   11.0569897      -11.3594704      -9.47185040    
 Ni   11.0569897      -8.83549023      -9.47185040    
 Ni   11.0435305      -7.57340002      -11.6582603    
 Ni   13.0498400      -6.31268978      -10.9276800    
 Ni   13.0801601      -7.58559990      -8.73746014    
 Ni   15.1728001      -8.79724026      -8.03792000    
 Ni   15.0398197      -6.29340982      -8.01589966    
 Ni   15.0319004      -7.51749992      -5.79766989    
 Ni   15.0398197      -8.82649040      -3.62846994    
 Ni   15.0386200      -10.0974798      -1.45351005    
 Ni   13.0498400      -11.3578100      -2.18928003    
 Ni   13.0489502      -20.1908207      -13.1146202    
 Ni   11.0434704      -13.8827801     -0.727999985    
 Ni   11.0435305      -12.6208696      -2.91580009    
 Ni   9.03798962      -13.8839302      -3.64384007    
 Ni   9.04360962      -12.6202803      -5.83068991    
 Ni   7.03937006      -13.8829498      -6.55821991    
 Ni   7.04276991      -12.6191998      -8.74314976    
 Ni   5.03308010      -13.8819799      -9.47220993    
 Ni   5.03131008      -12.6205797      -11.6588602    
 Ni   7.03937006      -11.3588696      -10.9300404    
 Ni   9.04360962      -10.0974798      -10.2003098    
 Ni   9.03798008      -8.83543968      -12.3880901    
 Ni   9.03798962      -11.3595304      -12.3880901    
 Ni   11.0460501      -10.0974798      -11.6591101    
 Ni   13.0529203      -8.83323002      -10.9347496    
 Ni   15.0398197      -7.56440020      -10.2173204    
 Ni   9.03757954      -18.9326000      -8.01632977    
 Ni   9.03831005      -17.6705894      -5.83030987    
 Ni   9.03829002      -16.4081497      -3.64375997    
 Ni   9.03831005      -15.1457701      -1.45718002    
 Ni   7.03741980      -13.8832302      -2.18600011    
 Ni   7.03843021      -11.3593903      -2.18741012    
 Ni   7.04276991      -10.0974798      -4.37539005    
 Ni   5.03331995      -11.3595896      -5.10185003    
 Ni   5.03462982      -10.0974798      -7.28723001    
 Ni   3.03389001      -11.3596296      -8.01593018    
 Ni   3.03152990      -12.6215496      -5.82995987    
 Ni   3.03034997      -13.8842402      -3.64339995    
 Ni   5.03131008      -12.6218796      -2.91634011    
 Ni   5.03143978      -11.3598804     -0.730030000    
 Ni   5.03120995      -13.8849897     -0.729269981    
 Ni   7.03693008      -20.1944809      -13.1167297    
 Ni   9.03757954      -12.6216097      -1.45710003    
 Ni   9.03693008      -10.0974798      -1.45787001    
 Ni   11.0445404      -8.83670044     -0.730390012    
 Ni   13.0489502      -15.1503696      -13.1146202    
 Ni   13.0495701      -6.31282997      -2.18214989    
 Ni   13.0528698      -5.04558992      -4.37052011    
 Ni   13.0495701      -18.9302502      -6.56217003    
 Ni   11.0435305      -5.05002022      -7.28763008    
 Ni   11.0460501      -6.31131983      -5.10129023    
 Ni   9.04360962      -7.57467985      -5.83068991    
 Ni   9.04037952      -6.31325006      -8.01496029    
 Ni   7.04276991      -7.57575989      -8.74314976    
 Ni   7.03843021      -6.31186008      -10.9299898    
 Ni   5.03131008      -7.57437992      -11.6588602    
 Ni   5.03331995      -8.83594036      -9.47294044    
 Ni   3.03152990      -10.0974798      -10.2017698    
 Ni   3.03034997      -8.83520985      -12.3885698    
 Ni   3.03034997      -11.3597498      -12.3885698    
 Ni   3.03183007      -13.8834896      -12.3888502    
 Ni   3.03198004      -15.1455603      -10.2017403    
 Ni   3.03183007      -16.4086208      -8.01519966    
 Ni   5.03131008      -15.1449804      -7.28647995    
 Ni   7.03741980      -16.4081497      -6.55928993    
 Ni   5.03096008      -16.4081097      -5.10061979    
 Ni   7.03777981      -15.1456203      -4.37268019    
 Ni   5.03070021      -13.8837500      -5.10123014    
 Ni   7.03937006      -12.6215601      -4.37342978    
 Ni   9.04037952      -11.3593702      -3.64612007    
 Ni   11.0455303      -10.0974798      -2.91774011    
 Ni   9.04037952      -8.83559990      -3.64612007    
 Ni   11.0569897      -8.83654022      -5.10200024    
 Ni   13.0801601      -10.0974798      -4.38676023    
 Ni   13.0765400      -8.83333969      -6.55738020    
 Ni   11.0744896      -10.0974798      -7.28723001    
 Ni   9.05142975      -11.3567696      -8.01428032    
 Ni   9.05142975      -8.83819962      -8.01428032    
 Ni   7.04393005      -8.83623028      -6.55905008    
 Ni   7.03937006      -6.31201982      -6.55821991    
 Ni   7.03741980      -18.9330406      -6.55928993    
 Ni   7.03777981      -5.04933977      -4.37268019    
 Ni   5.03070021      -6.31121016      -5.10123014    
 Ni   5.03131008      -7.57309008      -2.91634011    
 Ni   5.03143978      -8.83508015     -0.730030000    
 Ni   7.03693008      -15.1467104      -13.1167297    
 Ni   7.03741980      -6.31172991      -2.18600011    
 Ni   9.03798962      -6.31102991      -3.64384007    
 Ni   9.03829002      -3.78681993      -3.64375997    
 Ni   11.0454597      -2.52436996      -2.91489005    
 Ni   13.0522499      -16.4083099      -2.18611002    
 Ni   13.0528698      -2.52436996      -3.64000001E-03
 Ni   11.0451002      -3.78701997     -0.727949977    
 Ni   9.03831005      -5.04919004      -1.45718002    
 Ni   11.0434704      -6.31219006     -0.727999985    
 Ni   11.0435305      -7.57410002      -2.91580009    
 Ni   13.0498400      -8.83714962      -2.18928003    
 Ni   15.0360003      -7.57072020      -1.44824004    
 Ni   15.0374098      -5.04772997      -1.45802999    
 Ni   15.0424099      -3.78221989      -3.64110994    
 Ni   15.0378399      -6.30058002      -3.62962008    
 Ni   15.0378399      -5.03143978      -5.82781982    
 Ni   13.0529203      -6.30651999      -6.55834007    
 Ni   13.0529203      -7.57075977      -4.36859989    
 Ni   7.04393005      -11.3587303      -6.55905008    
 Ni   9.05142975      -10.0974798      -5.83312988    
 Ni   11.0445404      -11.3582602     -0.730390012    
 Ni   13.0520802      -10.0974798      -5.60000015E-04
 Ni   13.0495701      -16.4109402      -6.56217003    
 Ni   11.0434704      -17.6705894      -7.28869009    
 Ni   3.03214002      -12.6218004      -10.2020798    
 Ni   5.03331995      -11.3590202      -9.47294044    
 Ni   7.04393005      -10.0974798      -8.74359989    
 Ni   7.03937006      -8.83609009      -10.9300404    
 Ni   9.04037952      -7.57512999      -10.2006102    
 Ni   11.0455303      -6.31338978      -9.47196960    
 Ni   13.0498400      -5.05236006      -8.74473000    
 Ni   3.03214002      -13.8839703      -8.01593018    
 Ni   5.03331995      -12.6211300      -7.28690004    
 Ni   5.03070021      -10.0974798      -11.6592398    
 Ni   3.03034997      -15.1464996      -5.82972002    
 Ni   3.03131008      -17.6705894      -5.82940006    
 Ni   3.03183007      -18.9325600      -8.01519966    
 Ni   5.03120995      -17.6705894      -7.28612995    
 Ni   5.03143978      -16.4073792      -9.47255993    
 Ni   7.03843021      -15.1450100      -8.74429035    
 Ni   9.04037952      -13.8817196      -8.01496029    
 Ni   11.0569897      -12.6204205      -7.28782988    
 Ni   13.0765400      -11.3616199      -6.55738020    
 Ni   11.0569897      -11.3584299      -5.10200024    
 Ni   11.0460501      -13.8836403      -5.10129023    
 Ni   13.0529203      -12.6241999      -4.36859989    
 Ni   15.0398197      -11.3684797      -3.62846994    
 Ni   15.0360003      -12.6242399      -1.44824004    
 Ni   13.0495701      -13.8821297      -2.18214989    
 Ni   11.0451002      -15.1453304      -2.91488004    
 Ni   3.03074002      -16.4087391      -3.64341998    
 Ni   3.03131008      -15.1465597      -1.45764005    
 Ni   5.03096008      -15.1464596      -2.91536999    
 Ni   7.03843021      -13.8830996      -10.9299898    
 Ni   9.04037952      -12.6198301      -10.2006102    
 Ni   3.03154993      -17.6705894      -10.2017498    
 Ni   3.03154993      -16.4080906      -12.3884697    
 Ni   5.03143978      -15.1449804      -11.6590996    
 Ni   3.03183007      -12.6226101      -1.45764005    
 Ni   3.03198004      -10.0974798      -1.45820999    
 Ni   3.03214002      -8.83530998      -3.64368010    
 Ni   3.03152990      -7.57341003      -5.82995987    
 Ni   3.03214002      -6.31098986      -8.01593018    
 Ni   5.03131008      -5.04998016      -7.28647995    
 Ni   5.03308010      -6.31299019      -9.47220993    
 Ni   7.03843021      -5.04995012      -8.74429035    
 Ni   3.03214002      -11.3596497      -3.64368010    
 Ni   5.03308010      -10.0974798      -2.91726995    
 Ni   7.03843021      -8.83557034      -2.18741012    
 Ni   9.03757954      -7.57334995      -1.45710003    
 Ni   5.03331995      -8.83537006      -5.10185003    
 Ni   7.03937006      -7.57341003      -4.37342978    
 Ni   3.03389001      -10.0974798      -5.82982016    
 Ni   3.03389001      -8.83533001      -8.01593018    
 Ni   5.03331995      -7.57383013      -7.28690004    
 Ni   3.03214002      -7.57316017      -10.2020798    
 Ni   7.03727007      -17.6705894      -13.1168499    
 Ni   9.03798962      -15.1459799      -5.82976007    
 Ni   9.03798962      -5.04898977      -5.82976007    
 Ni   11.0450897      -3.78698993      -5.10184002    
 Ni   13.0522404      -17.6705894      -4.37244987    
 Ni   13.0522404      -3.78663993      -2.18611002    
 Ni   15.0424004      -2.52435994      -1.46245003    
 Ni   11.0445404      -15.1454802      -11.6575203    
 Ni   11.0569897      -7.57454014      -7.28782988    
 Ni   11.0451002      -5.04964018      -2.91488004    
 Ni   13.0765400      -10.0974798      -8.74693012    
 Ni   13.0495701      -5.05318022      -3.60000005E-04
 Ni   15.1728001      -10.0974798      -5.78584003    
 Ni   3.03034997      -5.04846001      -5.82972002    
 Ni   3.03074002      -3.78622007      -3.64341998    
 Ni   5.03199005      -2.52436996      -2.91489005    
 Ni   7.03779984      -16.4077892      -2.18582010    
 Ni   7.03777981      -10.0974798      -13.1163197    
 Ni   5.03096008      -3.78603005     -0.728690028    
 Ni   3.03131008      -5.04839993      -1.45764005    
 Ni   5.03120995      -6.30996990     -0.729269981    
 Ni   7.03741980      -12.6224003      -13.1163902    
 Ni   7.03779984      -3.78716993      -2.18582010    
 Ni   9.03829002      -2.52436996      -1.45714998    
 Ni   11.0451002      -1.26172996     -0.727949977    
 Ni   13.0495701      -15.1417904      -3.60000005E-04
 Ni   3.03034997      -6.31072998      -3.64339995    
 Ni   5.03096008      -5.04851007      -2.91536999    
 Ni   5.03096008      -3.78684998      -5.10061979    
 Ni   7.03779984      -17.6705894      -4.37304020    
 Ni   3.03183007      -7.57235003      -1.45764005    
 Ni   3.03074002      -2.52436996      -1.45782995    
 Ni   5.03096008      -1.26270998     -0.728690028    
 Ni   7.03741980      -22.7187805      -13.1163902    
 Ni   15.0360003      -21.4503708      -12.3949604    
 N    16.0534897      -10.0974798      -7.28723001    
 N    16.5975208      -9.15258980      -7.43288994    
         262
 Energy:  -1301.8632921999999     
 X   0.00000000       0.00000000       0.00000000    
 X   0.00000000      -15.1462221       0.00000000    
 X   0.00000000      -7.57311106      -13.1170130    
 X   29.0000000       0.00000000       0.00000000    
 X   0.00000000      -22.7193336      -13.1170130    
 X   29.0000000      -15.1462221       0.00000000    
 X   29.0000000      -7.57311106      -13.1170130    
 X   29.0000000      -22.7193336      -13.1170130    
 Ni   15.1502199      -11.4310398      -8.05181980    
 Ni   15.0319595      -12.6771402      -5.79777002    
 Ni   15.0377502      -13.8943596      -3.62965012    
 Ni   15.0373497      -15.1473503      -1.45808995    
 Ni   15.0425596      -16.4127102      -3.64112997    
 Ni   15.0373497      -17.6706696      -5.82852983    
 Ni   15.0360003      -16.4174709      -8.01848030    
 Ni   15.0384998      -15.1495104      -10.2041702    
 Ni   15.0360403      -13.8908100      -12.3947096    
 Ni   15.0396004      -16.4097404      -12.3875103    
 Ni   15.0396795      -18.9313793      -12.3874502    
 Ni   15.0385799      -20.1917801      -10.2039700    
 Ni   15.0361204      -18.9236107      -8.01840973    
 Ni   13.0488501      -17.6705704      -8.74956989    
 Ni   13.0520601      -16.4079399      -10.9307098    
 Ni   11.0453300      -17.6706009      -11.6595497    
 Ni   11.0445604      -18.9351101      -9.47369003    
 Ni   9.03680038      -20.1952000      -10.2019596    
 Ni   9.03798962      -18.9328308      -12.3882599    
 Ni   9.03757954      -21.4568195      -12.3880100    
 Ni   11.0444899      -20.1958504      -11.6574202    
 Ni   13.0519199      -18.9330997      -10.9305601    
 Ni   15.0397797      -17.6705799      -10.2037201    
 Ni   15.0378103      -15.1634102      -5.82781982    
 Ni   13.0528698      -13.8884602      -6.55840015    
 Ni   13.0527802      -15.1493101      -4.37054014    
 Ni   11.0451202      -16.4079494      -5.10185003    
 Ni   11.0437002      -15.1450396      -7.28751993    
 Ni   9.03757954      -16.4085197      -8.01628971    
 Ni   9.03668022      -15.1459703      -10.2020502    
 Ni   7.03726006      -16.4084606      -10.9309902    
 Ni   7.03701019      -17.6705894      -8.74518013    
 Ni   5.03134012      -18.9338703      -9.47270012    
 Ni   5.03078985      -17.6706696      -11.6596098    
 Ni   3.03138995      -18.9330502      -12.3884401    
 Ni   3.03171992      -20.1955509      -10.2018204    
 Ni   3.03187990      -21.4576607      -12.3888102    
 Ni   5.03133011      -20.1960793      -11.6590700    
 Ni   7.03747988      -18.9327602      -10.9308395    
 Ni   9.03802013      -17.6706409      -10.2020702    
 Ni   11.0445604      -16.4062309      -9.47371960    
 Ni   13.0500603      -15.1423502      -8.74470997    
 Ni   11.0459299      -13.8813801      -9.47194004    
 Ni   13.0500002      -13.8822498      -10.9276600    
 Ni   13.0528698      -11.3616896      -10.9346104    
 Ni   15.0307503      -10.0989199      -10.2659903    
 Ni   15.0375299      -8.82831001      -12.4044600    
 Ni   15.0379400      -11.3665199      -12.4041500    
 Ni   15.0396099      -12.6308098      -10.2176600    
 Ni   13.0813904      -12.6079102      -8.73701954    
 Ni   15.0397797      -13.9024897      -8.01607990    
 Ni   9.03808975      -16.4082603      -12.3883896    
 Ni   9.03754044      -13.8845301      -12.3881397    
 Ni   11.0437603      -12.6214399      -11.6582298    
 Ni   11.0563602      -11.3599396      -9.47198009    
 Ni   11.0571699      -8.83547974      -9.47163963    
 Ni   11.0437298      -7.57345009      -11.6580801    
 Ni   13.0501499      -6.31282997      -10.9276400    
 Ni   13.0810003      -7.58663988      -8.73733044    
 Ni   15.0023203      -8.69966984      -8.12899971    
 Ni   15.0378504      -6.28856993      -8.01661968    
 Ni   15.0315199      -7.51694012      -5.79652977    
 Ni   15.0393000      -8.82602024      -3.62706995    
 Ni   15.0385799      -10.0973501      -1.45359004    
 Ni   13.0499697      -11.3577299      -2.18952990    
 Ni   13.0488796      -20.1907501      -13.1146402    
 Ni   11.0435400      -13.8826199     -0.728089988    
 Ni   11.0437202      -12.6209497      -2.91577005    
 Ni   9.03798962      -13.8839598      -3.64390993    
 Ni   9.04343987      -12.6201296      -5.83071995    
 Ni   7.03943014      -13.8828897      -6.55821991    
 Ni   7.04273987      -12.6192198      -8.74314976    
 Ni   5.03296995      -13.8821001      -9.47224045    
 Ni   5.03126001      -12.6204901      -11.6588697    
 Ni   7.03934002      -11.3589001      -10.9300098    
 Ni   9.04343987      -10.0973701      -10.2002401    
 Ni   9.03802967      -8.83539009      -12.3881102    
 Ni   9.03804970      -11.3595104      -12.3880997    
 Ni   11.0462399      -10.0974598      -11.6591196    
 Ni   13.0527496      -8.83306980      -10.9346304    
 Ni   15.0385399      -7.56262016      -10.2201300    
 Ni   9.03754997      -18.9328709      -8.01632023    
 Ni   9.03820038      -17.6706791      -5.83031988    
 Ni   9.03822041      -16.4081802      -3.64380002    
 Ni   9.03824043      -15.1457796      -1.45712996    
 Ni   7.03737020      -13.8832703      -2.18605995    
 Ni   7.03845978      -11.3593702      -2.18747997    
 Ni   7.04287004      -10.0975199      -4.37540007    
 Ni   5.03342009      -11.3595800      -5.10195017    
 Ni   5.03478003      -10.0974703      -7.28731012    
 Ni   3.03381991      -11.3596401      -8.01591969    
 Ni   3.03148007      -12.6215601      -5.82998991    
 Ni   3.03018999      -13.8843002      -3.64344001    
 Ni   5.03144979      -12.6219597      -2.91621995    
 Ni   5.03141022      -11.3598804     -0.730030000    
 Ni   5.03108978      -13.8848801     -0.729330003    
 Ni   7.03697014      -20.1945095      -13.1167402    
 Ni   9.03752041      -12.6215296      -1.45719004    
 Ni   9.03676987      -10.0974197      -1.45778000    
 Ni   11.0445805      -8.83679008     -0.730539978    
 Ni   13.0489702      -15.1504297      -13.1146202    
 Ni   13.0495596      -6.31293011      -2.18211007    
 Ni   13.0528498      -5.04566002      -4.37061024    
 Ni   13.0496798      -18.9302292      -6.56215000    
 Ni   11.0437098      -5.05015993      -7.28771019    
 Ni   11.0461702      -6.31124020      -5.10126019    
 Ni   9.04339027      -7.57473993      -5.83080006    
 Ni   9.04055023      -6.31316996      -8.01486969    
 Ni   7.04292011      -7.57575989      -8.74312019    
 Ni   7.03844023      -6.31193018      -10.9299002    
 Ni   5.03142977      -7.57432985      -11.6588802    
 Ni   5.03349018      -8.83600998      -9.47280979    
 Ni   3.03137994      -10.0975704      -10.2017698    
 Ni   3.03045011      -8.83530045      -12.3885603    
 Ni   3.03030992      -11.3597202      -12.3885002    
 Ni   3.03181005      -13.8835297      -12.3886499    
 Ni   3.03195000      -15.1455297      -10.2017202    
 Ni   3.03184009      -16.4083805      -8.01525021    
 Ni   5.03147984      -15.1449900      -7.28648996    
 Ni   7.03740978      -16.4081802      -6.55920982    
 Ni   5.03088999      -16.4079895      -5.10053015    
 Ni   7.03778982      -15.1456604      -4.37267017    
 Ni   5.03072977      -13.8838396      -5.10120010    
 Ni   7.03945017      -12.6215296      -4.37347984    
 Ni   9.04057980      -11.3594704      -3.64630008    
 Ni   11.0458498      -10.0974598      -2.91794991    
 Ni   9.04049015      -8.83559036      -3.64621997    
 Ni   11.0567799      -8.83675003      -5.10175991    
 Ni   13.0804501      -10.0974197      -4.38721991    
 Ni   13.0767002      -8.83370018      -6.55721998    
 Ni   11.0739002      -10.0974903      -7.28737020    
 Ni   9.05130005      -11.3567200      -8.01414013    
 Ni   9.05132961      -8.83817959      -8.01424980    
 Ni   7.04387999      -8.83627987      -6.55903006    
 Ni   7.03948021      -6.31198978      -6.55822992    
 Ni   7.03750992      -18.9330902      -6.55920982    
 Ni   7.03771019      -5.04932022      -4.37273979    
 Ni   5.03074980      -6.31126022      -5.10121012    
 Ni   5.03132010      -7.57297993      -2.91633010    
 Ni   5.03137016      -8.83516979     -0.730009973    
 Ni   7.03699017      -15.1467695      -13.1167002    
 Ni   7.03732014      -6.31174994      -2.18604994    
 Ni   9.03800011      -6.31097984      -3.64390993    
 Ni   9.03816032      -3.78675008      -3.64389992    
 Ni   11.0455503      -2.52433991      -2.91490006    
 Ni   13.0523396      -16.4081993      -2.18604994    
 Ni   13.0528297      -2.52428007      -3.49000003E-03
 Ni   11.0451803      -3.78695989     -0.727919996    
 Ni   9.03818035      -5.04927015      -1.45714998    
 Ni   11.0435495      -6.31215000     -0.728030026    
 Ni   11.0437002      -7.57409000      -2.91581988    
 Ni   13.0500097      -8.83712959      -2.18923998    
 Ni   15.0361204      -7.57095003      -1.44845998    
 Ni   15.0372801      -5.04770994      -1.45807004    
 Ni   15.0423203      -3.78226995      -3.64113998    
 Ni   15.0379200      -6.30049992      -3.62967992    
 Ni   15.0376301      -5.03110981      -5.82776022    
 Ni   13.0528002      -6.30648994      -6.55846024    
 Ni   13.0530300      -7.57074022      -4.36865997    
 Ni   7.04424000      -11.3586998      -6.55909014    
 Ni   9.05132008      -10.0975504      -5.83313990    
 Ni   11.0445700      -11.3583002     -0.730440021    
 Ni   13.0520601      -10.0973301      -4.79999988E-04
 Ni   13.0495300      -16.4109306      -6.56204987    
 Ni   11.0434999      -17.6704292      -7.28880978    
 Ni   3.03188992      -12.6217699      -10.2020397    
 Ni   5.03320980      -11.3590202      -9.47292042    
 Ni   7.04397011      -10.0975199      -8.74355030    
 Ni   7.03949022      -8.83609962      -10.9299698    
 Ni   9.04057026      -7.57516003      -10.2006903    
 Ni   11.0456896      -6.31355000      -9.47192001    
 Ni   13.0501604      -5.05247021      -8.74466991    
 Ni   3.03203011      -13.8839397      -8.01599026    
 Ni   5.03337002      -12.6210604      -7.28693008    
 Ni   5.03072977      -10.0976000      -11.6591797    
 Ni   3.03021002      -15.1464396      -5.82965994    
 Ni   3.03143001      -17.6705704      -5.82931995    
 Ni   3.03195000      -18.9326401      -8.01523972    
 Ni   5.03116989      -17.6705399      -7.28615999    
 Ni   5.03141022      -16.4072800      -9.47257996    
 Ni   7.03837013      -15.1449499      -8.74429035    
 Ni   9.04057026      -13.8816404      -8.01482964    
 Ni   11.0569096      -12.6204205      -7.28812981    
 Ni   13.0775805      -11.3612204      -6.55731010    
 Ni   11.0568399      -11.3582697      -5.10169983    
 Ni   11.0461397      -13.8836203      -5.10130978    
 Ni   13.0528402      -12.6242199      -4.36848021    
 Ni   15.0398998      -11.3689899      -3.62772989    
 Ni   15.0359802      -12.6242104      -1.44842994    
 Ni   13.0495396      -13.8822098      -2.18227005    
 Ni   11.0451899      -15.1452799      -2.91489005    
 Ni   3.03047991      -16.4087200      -3.64340997    
 Ni   3.03127003      -15.1465902      -1.45771003    
 Ni   5.03083992      -15.1464701      -2.91547990    
 Ni   7.03844976      -13.8830299      -10.9299498    
 Ni   9.04039001      -12.6198301      -10.2006502    
 Ni   3.03152990      -17.6705494      -10.2018604    
 Ni   3.03166008      -16.4081001      -12.3884201    
 Ni   5.03142023      -15.1449804      -11.6590405    
 Ni   3.03172994      -12.6224804      -1.45774996    
 Ni   3.03192997      -10.0975304      -1.45818996    
 Ni   3.03203011      -8.83528996      -3.64377999    
 Ni   3.03137994      -7.57340002      -5.82989979    
 Ni   3.03225994      -6.31111002      -8.01589012    
 Ni   5.03148985      -5.05000019      -7.28643990    
 Ni   5.03318977      -6.31282997      -9.47224045    
 Ni   7.03848982      -5.05005980      -8.74425030    
 Ni   3.03218007      -11.3596697      -3.64367008    
 Ni   5.03308010      -10.0975199      -2.91704011    
 Ni   7.03845978      -8.83555031      -2.18746996    
 Ni   9.03757000      -7.57351017      -1.45711994    
 Ni   5.03326988      -8.83528996      -5.10197020    
 Ni   7.03943014      -7.57341003      -4.37345982    
 Ni   3.03393006      -10.0975103      -5.82988024    
 Ni   3.03389001      -8.83533955      -8.01593971    
 Ni   5.03351021      -7.57391977      -7.28691006    
 Ni   3.03227997      -7.57324982      -10.2019901    
 Ni   7.03725004      -17.6704998      -13.1169395    
 Ni   9.03798962      -15.1459999      -5.82965994    
 Ni   9.03794003      -5.04889011      -5.82977009    
 Ni   11.0451002      -3.78696990      -5.10169983    
 Ni   13.0523300      -17.6705704      -4.37250996    
 Ni   13.0523195      -3.78672004      -2.18610001    
 Ni   15.0422697      -2.52436996      -1.46239996    
 Ni   11.0445499      -15.1454096      -11.6573696    
 Ni   11.0568895      -7.57464981      -7.28799009    
 Ni   11.0451498      -5.04966021      -2.91491008    
 Ni   13.0759296      -10.0982704      -8.74771976    
 Ni   13.0495901      -5.05326986      -3.39999999E-04
 Ni   15.1397600      -10.1065702      -5.73947001    
 Ni   3.03035998      -5.04853010      -5.82960987    
 Ni   3.03075004      -3.78618002      -3.64338994    
 Ni   5.03196001      -2.52444005      -2.91488004    
 Ni   7.03774023      -16.4077892      -2.18586993    
 Ni   7.03768015      -10.0974903      -13.1163197    
 Ni   5.03107023      -3.78605008     -0.728680015    
 Ni   3.03148007      -5.04830980      -1.45770001    
 Ni   5.03113985      -6.30989981     -0.729290009    
 Ni   7.03730011      -12.6224298      -13.1163702    
 Ni   7.03776979      -3.78713989      -2.18588996    
 Ni   9.03820992      -2.52428007      -1.45718002    
 Ni   11.0452099      -1.26186001     -0.728009999    
 Ni   13.0496397      -15.1418896      -3.90000001E-04
 Ni   3.03031993      -6.31070995      -3.64349008    
 Ni   5.03106022      -5.04850006      -2.91539001    
 Ni   5.03097010      -3.78694010      -5.10049009    
 Ni   7.03778982      -17.6706009      -4.37306023    
 Ni   3.03183007      -7.57247019      -1.45766997    
 Ni   3.03075004      -2.52437997      -1.45790005    
 Ni   5.03092003      -1.26283002     -0.728770018    
 Ni   7.03745985      -22.7187996      -13.1164103    
 Ni   15.0359402      -21.4505596      -12.3948698    
 N    15.9846096      -10.3895998      -7.23646021    
 N    16.8941498      -8.92022991      -7.42396021    
         262
 Energy:  -1302.9846081999999     
 X   0.00000000       0.00000000       0.00000000    
 X   0.00000000      -15.1462221       0.00000000    
 X   0.00000000      -7.57311106      -13.1170130    
 X   29.0000000       0.00000000       0.00000000    
 X   0.00000000      -22.7193336      -13.1170130    
 X   29.0000000      -15.1462221       0.00000000    
 X   29.0000000      -7.57311106      -13.1170130    
 X   29.0000000      -22.7193336      -13.1170130    
 Ni   15.1556196      -11.4230804      -8.04848957    
 Ni   15.0319405      -12.6772203      -5.79775000    
 Ni   15.0377703      -13.8943596      -3.62964010    
 Ni   15.0373602      -15.1473198      -1.45808005    
 Ni   15.0425196      -16.4127102      -3.64112997    
 Ni   15.0373602      -17.6706505      -5.82854986    
 Ni   15.0360003      -16.4174900      -8.01848030    
 Ni   15.0385303      -15.1495399      -10.2041502    
 Ni   15.0360298      -13.8908100      -12.3947697    
 Ni   15.0396605      -16.4097500      -12.3875103    
 Ni   15.0397196      -18.9313908      -12.3874598    