       N       E                     dE             d eps       ncg     rms          rms(c)
DAV:   1     0.182770712084E+05    0.18277E+05   -0.91780E+05 12216   0.112E+03
DAV:   2    -0.154864284975E+03   -0.18432E+05   -0.17441E+05 12840   0.400E+02
DAV:   3    -0.140515042913E+04   -0.12503E+04   -0.10366E+04 14136   0.104E+02
DAV:   4    -0.157381037787E+04   -0.16866E+03   -0.14957E+03 22536   0.379E+01
DAV:   5    -0.158024407364E+04   -0.64337E+01   -0.61083E+01 20460   0.717E+00    0.148E+02
DAV:   6    -0.184717233221E+04   -0.26693E+03   -0.31818E+03 13428   0.146E+02    0.249E+02
DAV:   7    -0.198377305500E+04   -0.13660E+03   -0.13214E+03 13104   0.158E+02    0.241E+02
DAV:   8    -0.391720133388E+04   -0.19334E+04   -0.76091E+02 15108   0.201E+02    0.393E+02
DAV:   9    -0.168420135470E+04    0.22330E+04   -0.74428E+02 16404   0.706E+01    0.203E+02
DAV:  10    -0.146249105734E+04    0.22171E+03   -0.45049E+02 14328   0.705E+01    0.162E+02
DAV:  11    -0.156114239819E+04   -0.98651E+02   -0.42687E+02 13176   0.947E+01    0.218E+02
DAV:  12    -0.142145463500E+04    0.13969E+03   -0.26228E+02 13320   0.466E+01    0.113E+02
DAV:  13    -0.140433604959E+04    0.17119E+02   -0.12692E+02 13224   0.528E+01    0.144E+02
DAV:  14    -0.133129191091E+04    0.73044E+02   -0.64005E+01 12984   0.318E+01    0.682E+01
DAV:  15    -0.133557668421E+04   -0.42848E+01   -0.44264E+01 13524   0.331E+01    0.885E+01
DAV:  16    -0.134983658917E+04   -0.14260E+02   -0.37246E+01 13536   0.309E+01    0.105E+02
DAV:  17    -0.132866571185E+04    0.21171E+02   -0.33097E+01 13488   0.255E+01    0.796E+01
DAV:  18    -0.131658217357E+04    0.12084E+02   -0.19913E+01 13056   0.208E+01    0.611E+01
DAV:  19    -0.131330621839E+04    0.32760E+01   -0.12212E+01 13176   0.164E+01    0.545E+01
DAV:  20    -0.131234498443E+04    0.96123E+00   -0.87609E+00 13248   0.155E+01    0.537E+01
DAV:  21    -0.131351339752E+04   -0.11684E+01   -0.79056E+00 13248   0.143E+01    0.584E+01
DAV:  22    -0.130905649495E+04    0.44569E+01   -0.53296E+00 13224   0.115E+01    0.434E+01
DAV:  23    -0.130763366097E+04    0.14228E+01   -0.39009E+00 13224   0.956E+00    0.406E+01
DAV:  24    -0.130605972773E+04    0.15739E+01   -0.30202E+00 13224   0.779E+00    0.320E+01
DAV:  25    -0.130638561085E+04   -0.32588E+00   -0.27180E+00 13272   0.771E+00    0.336E+01
DAV:  26    -0.130692974178E+04   -0.54413E+00   -0.27805E+00 13248   0.788E+00    0.374E+01
DAV:  27    -0.130573607051E+04    0.11937E+01   -0.24859E+00 13248   0.732E+00    0.317E+01
DAV:  28    -0.130403586183E+04    0.17002E+01   -0.18043E+00 13248   0.656E+00    0.228E+01
DAV:  29    -0.130390764237E+04    0.12822E+00   -0.11364E+00 13248   0.500E+00    0.222E+01
DAV:  30    -0.130436200307E+04   -0.45436E+00   -0.12839E+00 13344   0.528E+00    0.264E+01
DAV:  31    -0.130395092092E+04    0.41108E+00   -0.13864E+00 13272   0.520E+00    0.228E+01
DAV:  32    -0.130340446343E+04    0.54646E+00   -0.10126E+00 13248   0.432E+00    0.188E+01
DAV:  33    -0.130305039458E+04    0.35407E+00   -0.59093E-01 13320   0.318E+00    0.150E+01
DAV:  34    -0.130319413726E+04   -0.14374E+00   -0.46681E-01 13296   0.304E+00    0.171E+01
DAV:  35    -0.130313876940E+04    0.55368E-01   -0.43398E-01 13320   0.281E+00    0.168E+01
DAV:  36    -0.130278306338E+04    0.35571E+00   -0.26732E-01 13224   0.206E+00    0.127E+01
DAV:  37    -0.130273310995E+04    0.49953E-01   -0.13680E-01 13188   0.146E+00    0.122E+01
DAV:  38    -0.130273890497E+04   -0.57950E-02   -0.14748E-01 13368   0.151E+00    0.125E+01
DAV:  39    -0.130258620176E+04    0.15270E+00   -0.14213E-01 13356   0.150E+00    0.970E+00
DAV:  40    -0.130249082893E+04    0.95373E-01   -0.10338E-01 13224   0.137E+00    0.811E+00
DAV:  41    -0.130245260903E+04    0.38220E-01   -0.62479E-02 13428   0.914E-01    0.726E+00
DAV:  42    -0.130240517248E+04    0.47437E-01   -0.30118E-02 13416   0.558E-01    0.608E+00
DAV:  43    -0.130237581964E+04    0.29353E-01   -0.21187E-02 13356   0.524E-01    0.544E+00
DAV:  44    -0.130236709717E+04    0.87225E-02   -0.17984E-02 13440   0.494E-01    0.535E+00
DAV:  45    -0.130238042431E+04   -0.13327E-01   -0.22875E-02 13512   0.603E-01    0.595E+00
DAV:  46    -0.130239191966E+04   -0.11495E-01   -0.30958E-02 13536   0.656E-01    0.651E+00
DAV:  47    -0.130242792776E+04   -0.36008E-01   -0.34588E-02 13404   0.746E-01    0.803E+00
DAV:  48    -0.130239864818E+04    0.29280E-01   -0.16984E-02 13416   0.442E-01    0.726E+00
DAV:  49    -0.130236336025E+04    0.35288E-01   -0.14145E-02 13176   0.475E-01    0.589E+00
DAV:  50    -0.130234736976E+04    0.15990E-01   -0.24212E-02 13284   0.660E-01    0.496E+00
DAV:  51    -0.130230531644E+04    0.42053E-01   -0.67941E-02 15312   0.968E-01    0.282E+00
DAV:  52    -0.130230888684E+04   -0.35704E-02   -0.40911E-02 13440   0.757E-01    0.281E+00
DAV:  53    -0.130231395216E+04   -0.50653E-02   -0.37414E-02 13368   0.813E-01    0.270E+00
DAV:  54    -0.130230052518E+04    0.13427E-01   -0.26140E-02 13356   0.731E-01    0.193E+00
DAV:  55    -0.130229339100E+04    0.71342E-02   -0.11674E-02 13392   0.482E-01    0.121E+00
DAV:  56    -0.130229641889E+04   -0.30279E-02   -0.87008E-03 13488   0.409E-01    0.144E+00
DAV:  57    -0.130229508459E+04    0.13343E-02   -0.77901E-03 13320   0.389E-01    0.120E+00
DAV:  58    -0.130229240393E+04    0.26807E-02   -0.43027E-03 13308   0.292E-01    0.818E-01
DAV:  59    -0.130229344514E+04   -0.10412E-02   -0.27409E-03 13296   0.234E-01    0.872E-01
DAV:  60    -0.130229328111E+04    0.16403E-03   -0.25908E-03 13188   0.228E-01
   1 F= -.13022933E+04 E0= -.13016094E+04  d E =-.130229E+04
       N       E                     dE             d eps       ncg     rms          rms(c)
DAV:   1    -0.129889297848E+04    0.34005E+01   -0.16303E+03 12336   0.301E+01    0.168E+01
DAV:   2    -0.132217382191E+04   -0.23281E+02   -0.53234E+01 14784   0.238E+01    0.551E+01
DAV:   3    -0.143399634641E+04   -0.11182E+03   -0.32594E+01 13440   0.464E+01    0.136E+02
DAV:   4    -0.133292474288E+04    0.10107E+03   -0.20967E+01 13944   0.313E+01    0.841E+01
DAV:   5    -0.130958948945E+04    0.23335E+02   -0.91593E+00 13800   0.179E+01    0.545E+01
DAV:   6    -0.130523476679E+04    0.43547E+01   -0.70256E+00 13896   0.110E+01    0.338E+01
DAV:   7    -0.130613195686E+04   -0.89719E+00   -0.44546E+00 13488   0.988E+00    0.365E+01
DAV:   8    -0.130488587438E+04    0.12461E+01   -0.38504E+00 13392   0.941E+00    0.327E+01
DAV:   9    -0.130287339496E+04    0.20125E+01   -0.19564E+00 13308   0.606E+00    0.201E+01
DAV:  10    -0.130268438497E+04    0.18901E+00   -0.10892E+00 13272   0.479E+00    0.194E+01
DAV:  11    -0.130344539513E+04   -0.76101E+00   -0.12646E+00 13344   0.500E+00    0.265E+01
DAV:  12    -0.130326555790E+04    0.17984E+00   -0.16632E+00 13608   0.573E+00    0.205E+01
DAV:  13    -0.130477055821E+04   -0.15050E+01   -0.21013E+00 13416   0.726E+00    0.307E+01
DAV:  14    -0.130510977726E+04   -0.33922E+00   -0.26248E+00 13368   0.771E+00    0.333E+01
DAV:  15    -0.130386610718E+04    0.12437E+01   -0.20286E+00 13320   0.741E+00    0.265E+01
DAV:  16    -0.130324692722E+04    0.61918E+00   -0.14500E+00 13344   0.602E+00    0.213E+01
DAV:  17    -0.130344172831E+04   -0.19480E+00   -0.12870E+00 13344   0.553E+00    0.227E+01
DAV:  18    -0.130308382622E+04    0.35790E+00   -0.12920E+00 13416   0.539E+00    0.191E+01
DAV:  19    -0.130274148133E+04    0.34234E+00   -0.81140E-01 13344   0.450E+00    0.187E+01
DAV:  20    -0.130238006944E+04    0.36141E+00   -0.50981E-01 13440   0.314E+00    0.149E+01
DAV:  21    -0.130212544142E+04    0.25463E+00   -0.29536E-01 13344   0.233E+00    0.107E+01
DAV:  22    -0.130205848978E+04    0.66952E-01   -0.22187E-01 13464   0.195E+00    0.881E+00
DAV:  23    -0.130199089573E+04    0.67594E-01   -0.23949E-01 13344   0.190E+00    0.661E+00
DAV:  24    -0.130192856109E+04    0.62335E-01   -0.12328E-01 13344   0.145E+00    0.485E+00
DAV:  25    -0.130190929124E+04    0.19270E-01   -0.55546E-02 13296   0.946E-01    0.458E+00
DAV:  26    -0.130188941402E+04    0.19877E-01   -0.31191E-02 13344   0.680E-01    0.370E+00
DAV:  27    -0.130187869435E+04    0.10720E-01   -0.17209E-02 13464   0.528E-01    0.299E+00
DAV:  28    -0.130188427787E+04   -0.55835E-02   -0.18518E-02 13320   0.572E-01    0.315E+00
DAV:  29    -0.130189666418E+04   -0.12386E-01   -0.33104E-02 13296   0.697E-01    0.370E+00
DAV:  30    -0.130187916693E+04    0.17497E-01   -0.32667E-02 13248   0.738E-01    0.237E+00
DAV:  31    -0.130187744299E+04    0.17239E-02   -0.18277E-02 13296   0.598E-01    0.236E+00
DAV:  32    -0.130187969082E+04   -0.22478E-02   -0.19157E-02 13224   0.536E-01    0.252E+00
DAV:  33    -0.130186965521E+04    0.10036E-01   -0.13762E-02 13296   0.505E-01    0.163E+00
DAV:  34    -0.130186300293E+04    0.66523E-02   -0.55763E-03 13488   0.339E-01    0.844E-01
DAV:  35    -0.130186367344E+04   -0.67051E-03   -0.28948E-03 13596   0.219E-01    0.898E-01
DAV:  36    -0.130186634952E+04   -0.26761E-02   -0.52153E-03 13464   0.266E-01    0.131E+00
DAV:  37    -0.130186369553E+04    0.26540E-02   -0.43104E-03 13416   0.253E-01    0.813E-01
DAV:  38    -0.130186273655E+04    0.95898E-03   -0.11873E-03 12912   0.146E-01    0.548E-01
DAV:  39    -0.130186326370E+04   -0.52715E-03   -0.88241E-04 12936   0.131E-01    0.648E-01
DAV:  40    -0.130186320979E+04    0.53907E-04   -0.11015E-03 13128   0.135E-01    0.570E-01
DAV:  41    -0.130186269461E+04    0.51519E-03   -0.88124E-04 13296   0.107E-01    0.322E-01
DAV:  42    -0.130186252126E+04    0.17335E-03   -0.30024E-04 13152   0.660E-02    0.149E-01
DAV:  43    -0.130186260764E+04   -0.86382E-04   -0.14450E-04 13608   0.485E-02    0.150E-01
DAV:  44    -0.130186275621E+04   -0.14857E-03   -0.15006E-04 13632   0.532E-02    0.160E-01
DAV:  45    -0.130186281076E+04   -0.54549E-04   -0.13303E-04 13380   0.522E-02    0.124E-01
DAV:  46    -0.130186281244E+04   -0.16807E-05   -0.63338E-05 13128   0.336E-02    0.845E-02
DAV:  47    -0.130186288401E+04   -0.71571E-04   -0.47775E-05 13344   0.290E-02    0.842E-02
DAV:  48    -0.130186295551E+04   -0.71498E-04   -0.39779E-05 12912   0.268E-02    0.860E-02
DAV:  49    -0.130186297812E+04   -0.22612E-04   -0.26972E-05 11376   0.225E-02    0.608E-02
DAV:  50    -0.130186300930E+04   -0.31184E-04   -0.15431E-05  8400   0.159E-02    0.558E-02
DAV:  51    -0.130186304738E+04   -0.38075E-04   -0.12706E-05  8400   0.150E-02    0.495E-02
DAV:  52    -0.130186307455E+04   -0.27169E-04   -0.13682E-05  7500   0.168E-02    0.668E-02
DAV:  53    -0.130186311425E+04   -0.39700E-04   -0.14475E-05  7896   0.158E-02    0.582E-02
DAV:  54    -0.130186314066E+04   -0.26419E-04   -0.79773E-06  7620   0.109E-02    0.178E-02
DAV:  55    -0.130186316210E+04   -0.21440E-04   -0.43021E-06  7188   0.751E-03    0.243E-02
DAV:  56    -0.130186321714E+04   -0.55039E-04   -0.58165E-06  7788   0.863E-03    0.295E-02
DAV:  57    -0.130186322336E+04   -0.62212E-05   -0.47858E-06  7032   0.866E-03    0.326E-02
DAV:  58    -0.130186323274E+04   -0.93715E-05   -0.31485E-06  6804   0.600E-03    0.218E-02
DAV:  59    -0.130186325412E+04   -0.21383E-04   -0.24820E-06  7272   0.560E-03    0.282E-02
DAV:  60    -0.130186329223E+04   -0.38108E-04   -0.34764E-06  7476   0.630E-03
   2 F= -.13018633E+04 E0= -.13011821E+04  d E =0.429989E+00
       N       E                     dE             d eps       ncg     rms          rms(c)
DAV:   1    -0.130278493574E+04   -0.92168E+00   -0.82539E+01 12144   0.752E+00    0.245E+00
DAV:   2    -0.130332930615E+04   -0.54437E+00   -0.23230E+00 15120   0.276E+00    0.101E+01
DAV:   3    -0.130484755319E+04   -0.15182E+01   -0.64267E-01 13056   0.418E+00    0.301E+01
DAV:   4    -0.130332564712E+04    0.15219E+01   -0.11262E+00 13056   0.403E+00    0.115E+01
DAV:   5    -0.130328800169E+04    0.37645E-01   -0.42389E-01 13536   0.271E+00    0.103E+01
DAV:   6    -0.130336226754E+04   -0.74266E-01   -0.40847E-01 13452   0.283E+00    0.109E+01
DAV:   7    -0.130325873982E+04    0.10353E+00   -0.38237E-01 13344   0.266E+00    0.101E+01
DAV:   8    -0.130306732083E+04    0.19142E+00   -0.27322E-01 13536   0.206E+00    0.517E+00
DAV:   9    -0.130309277047E+04   -0.25450E-01   -0.14368E-01 13344   0.162E+00    0.603E+00
DAV:  10    -0.130317212082E+04   -0.79350E-01   -0.23259E-01 13368   0.177E+00    0.810E+00
DAV:  11    -0.130307924487E+04    0.92876E-01   -0.19336E-01 13368   0.173E+00    0.546E+00
DAV:  12    -0.130301750105E+04    0.61744E-01   -0.78921E-02 13320   0.123E+00    0.353E+00
DAV:  13    -0.130301961339E+04   -0.21123E-02   -0.49228E-02 13344   0.900E-01    0.372E+00
DAV:  14    -0.130301911468E+04    0.49871E-03   -0.41945E-02 13272   0.890E-01    0.341E+00
DAV:  15    -0.130302265952E+04   -0.35448E-02   -0.46918E-02 13452   0.880E-01    0.370E+00
DAV:  16    -0.130300063966E+04    0.22020E-01   -0.38444E-02 13392   0.781E-01    0.223E+00
DAV:  17    -0.130299136471E+04    0.92749E-02   -0.15062E-02 13296   0.550E-01    0.147E+00
DAV:  18    -0.130299100222E+04    0.36250E-03   -0.94511E-03 13404   0.398E-01    0.155E+00
DAV:  19    -0.130298859314E+04    0.24091E-02   -0.72049E-03 13404   0.345E-01    0.116E+00
DAV:  20    -0.130298679421E+04    0.17989E-02   -0.40000E-03 13536   0.271E-01    0.927E-01
DAV:  21    -0.130298530006E+04    0.14941E-02   -0.25279E-03 13548   0.185E-01    0.532E-01
DAV:  22    -0.130298497583E+04    0.32423E-03   -0.11894E-03 13500   0.140E-01    0.372E-01
DAV:  23    -0.130298549582E+04   -0.51999E-03   -0.97049E-04 13344   0.133E-01    0.574E-01
DAV:  24    -0.130298520648E+04    0.28934E-03   -0.97166E-04 13344   0.127E-01    0.514E-01
DAV:  25    -0.130298463949E+04    0.56699E-03   -0.45494E-04 13380   0.905E-02    0.185E-01
DAV:  26    -0.130298462250E+04    0.16993E-04   -0.15785E-04 13404   0.533E-02    0.169E-01
DAV:  27    -0.130298481794E+04   -0.19544E-03   -0.25839E-04 13416   0.621E-02    0.313E-01
DAV:  28    -0.130298468703E+04    0.13091E-03   -0.27460E-04 13368   0.622E-02    0.211E-01
DAV:  29    -0.130298458157E+04    0.10546E-03   -0.90611E-05 13248   0.415E-02    0.779E-02
DAV:  30    -0.130298459014E+04   -0.85735E-05   -0.35328E-05 10656   0.245E-02    0.961E-02
DAV:  31    -0.130298461286E+04   -0.22716E-04   -0.46830E-05  9852   0.269E-02    0.119E-01
DAV:  32    -0.130298460822E+04    0.46366E-05   -0.41638E-05 10968   0.280E-02
   3 F= -.13029846E+04 E0= -.13023028E+04  d E =-.691327E+00
       N       E                     dE             d eps       ncg     rms          rms(c)
DAV:   1    -0.130359290126E+04   -0.60829E+00   -0.47401E+01 12252   0.548E+00    0.192E+00
DAV:   2    -0.130387394726E+04   -0.28105E+00   -0.14574E+00 19260   0.191E+00    0.654E+00
DAV:   3    -0.130390102793E+04   -0.27081E-01   -0.36552E-01 13788   0.240E+00    0.863E+00
DAV:   4    -0.130388995377E+04    0.11074E-01   -0.26764E-01 13800   0.204E+00    0.835E+00
DAV:   5    -0.130485787491E+04   -0.96792E+00   -0.27952E-01 13632   0.290E+00    0.235E+01
DAV:   6    -0.130395679307E+04    0.90108E+00   -0.61562E-01 13536   0.284E+00    0.872E+00
DAV:   7    -0.130391882226E+04    0.37971E-01   -0.30795E-01 13488   0.211E+00    0.857E+00
DAV:   8    -0.130380062323E+04    0.11820E+00   -0.22977E-01 13464   0.186E+00    0.544E+00
DAV:   9    -0.130380069524E+04   -0.72007E-04   -0.12026E-01 13392   0.146E+00    0.558E+00
DAV:  10    -0.130382474263E+04   -0.24047E-01   -0.14244E-01 13272   0.148E+00    0.591E+00
DAV:  11    -0.130379625906E+04    0.28484E-01   -0.11264E-01 13272   0.146E+00    0.488E+00
DAV:  12    -0.130373835546E+04    0.57904E-01   -0.65175E-02 13392   0.112E+00    0.278E+00
DAV:  13    -0.130373082340E+04    0.75321E-02   -0.27915E-02 13344   0.653E-01    0.236E+00
DAV:  14    -0.130373235363E+04   -0.15302E-02   -0.22333E-02 13272   0.623E-01    0.232E+00
DAV:  15    -0.130374261267E+04   -0.10259E-01   -0.25961E-02 13368   0.671E-01    0.304E+00
DAV:  16    -0.130372752691E+04    0.15086E-01   -0.23248E-02 13368   0.598E-01    0.183E+00
DAV:  17    -0.130372000315E+04    0.75238E-02   -0.88362E-03 13404   0.426E-01    0.100E+00
DAV:  18    -0.130371998714E+04    0.16012E-04   -0.42012E-03 13344   0.283E-01    0.109E+00
DAV:  19    -0.130371997213E+04    0.15006E-04   -0.40176E-03 13332   0.246E-01    0.106E+00
DAV:  20    -0.130371873409E+04    0.12380E-02   -0.28171E-03 13296   0.231E-01    0.818E-01
DAV:  21    -0.130371774738E+04    0.98671E-03   -0.17195E-03 13788   0.167E-01    0.572E-01
DAV:  22    -0.130371716930E+04    0.57808E-03   -0.90797E-04 13536   0.121E-01    0.306E-01
DAV:  23    -0.130371734426E+04   -0.17496E-03   -0.60493E-04 13260   0.105E-01    0.363E-01
DAV:  24    -0.130371722750E+04    0.11676E-03   -0.59160E-04 13236   0.100E-01    0.340E-01
DAV:  25    -0.130371702044E+04    0.20706E-03   -0.37454E-04 13272   0.717E-02    0.219E-01
DAV:  26    -0.130371694591E+04    0.74536E-04   -0.14136E-04 13476   0.477E-02    0.133E-01
DAV:  27    -0.130371698155E+04   -0.35648E-04   -0.94947E-05 13584   0.399E-02    0.170E-01
DAV:  28    -0.130371701813E+04   -0.36577E-04   -0.12460E-04 13260   0.426E-02    0.190E-01
DAV:  29    -0.130371696908E+04    0.49048E-04   -0.86732E-05 13176   0.398E-02    0.105E-01
DAV:  30    -0.130371695114E+04    0.17948E-04   -0.35861E-05 12612   0.278E-02    0.736E-02
DAV:  31    -0.130371695819E+04   -0.70553E-05   -0.19065E-05  7872   0.175E-02    0.851E-02
DAV:  32    -0.130371696306E+04   -0.48741E-05   -0.17560E-05  7380   0.172E-02
   4 F= -.13037170E+04 E0= -.13030346E+04  d E =-.142368E+01
       N       E                     dE             d eps       ncg     rms          rms(c)
DAV:   1    -0.130382188003E+04   -0.10492E+00   -0.13405E+02 12144   0.888E+00    0.429E+00
DAV:   2    -0.130501210667E+04   -0.11902E+01   -0.46299E+00 16008   0.371E+00    0.172E+01
DAV:   3    -0.130840874174E+04   -0.33966E+01   -0.15723E+00 13068   0.659E+00    0.412E+01
DAV:   4    -0.130524276605E+04    0.31660E+01   -0.20551E+00 13572   0.590E+00    0.196E+01
DAV:   5    -0.130549005068E+04   -0.24728E+00   -0.12762E+00 13842   0.498E+00    0.209E+01
DAV:   6    -0.130571812825E+04   -0.22808E+00   -0.13688E+00 13464   0.537E+00    0.223E+01
DAV:   7    -0.130492071160E+04    0.79742E+00   -0.12006E+00 13392   0.471E+00    0.154E+01
DAV:   8    -0.130449032171E+04    0.43039E+00   -0.61810E-01 13320   0.331E+00    0.100E+01
DAV:   9    -0.130453096367E+04   -0.40642E-01   -0.38087E-01 13320   0.252E+00    0.112E+01
DAV:  10    -0.130470537032E+04   -0.17441E+00   -0.46765E-01 13380   0.293E+00    0.125E+01
DAV:  11    -0.130447681020E+04    0.22856E+00   -0.43327E-01 13308   0.286E+00    0.963E+00
DAV:  12    -0.130427702235E+04    0.19979E+00   -0.23423E-01 13242   0.191E+00    0.523E+00
DAV:  13    -0.130425322706E+04    0.23795E-01   -0.10184E-01 13488   0.131E+00    0.437E+00
DAV:  14    -0.130430976327E+04   -0.56536E-01   -0.10918E-01 13488   0.136E+00    0.624E+00
DAV:  15    -0.130430395772E+04    0.58056E-02   -0.12634E-01 13332   0.146E+00    0.608E+00
DAV:  16    -0.130422854731E+04    0.75410E-01   -0.73640E-02 13320   0.117E+00    0.296E+00
DAV:  17    -0.130421293519E+04    0.15612E-01   -0.25614E-02 13104   0.729E-01    0.215E+00
DAV:  18    -0.130421626311E+04   -0.33279E-02   -0.20355E-02 13452   0.554E-01    0.249E+00
DAV:  19    -0.130421362108E+04    0.26420E-02   -0.19859E-02 13356   0.564E-01    0.201E+00
DAV:  20    -0.130421675230E+04   -0.31312E-02   -0.16498E-02 13320   0.554E-01    0.252E+00
DAV:  21    -0.130420725600E+04    0.94963E-02   -0.12747E-02 13404   0.438E-01    0.176E+00
DAV:  22    -0.130420472054E+04    0.25355E-02   -0.50710E-03 13260   0.287E-01    0.143E+00
DAV:  23    -0.130420540490E+04   -0.68436E-03   -0.48708E-03 13212   0.300E-01    0.136E+00
DAV:  24    -0.130420435675E+04    0.10482E-02   -0.52939E-03 13416   0.296E-01    0.128E+00
DAV:  25    -0.130420082448E+04    0.35323E-02   -0.28203E-03 13248   0.221E-01    0.463E-01
DAV:  26    -0.130420084221E+04   -0.17727E-04   -0.10754E-03 13284   0.136E-01    0.507E-01
DAV:  27    -0.130420162302E+04   -0.78081E-03   -0.15092E-03 13308   0.141E-01    0.742E-01
DAV:  28    -0.130420069129E+04    0.93172E-03   -0.11997E-03 13248   0.131E-01    0.414E-01
DAV:  29    -0.130420036081E+04    0.33049E-03   -0.31052E-04 13200   0.778E-02    0.243E-01
DAV:  30    -0.130420042757E+04   -0.66761E-04   -0.14948E-04 13248   0.517E-02    0.283E-01
DAV:  31    -0.130420046169E+04   -0.34124E-04   -0.20723E-04 13224   0.589E-02    0.265E-01
DAV:  32    -0.130420038365E+04    0.78038E-04   -0.15654E-04 13248   0.558E-02    0.189E-01
DAV:  33    -0.130420035307E+04    0.30589E-04   -0.59700E-05 12636   0.323E-02    0.162E-01
DAV:  34    -0.130420035789E+04   -0.48217E-05   -0.42662E-05 10104   0.231E-02
   5 F= -.13042004E+04 E0= -.13035172E+04  d E =-.190708E+01
       N       E                     dE             d eps       ncg     rms          rms(c)
DAV:   1    -0.130420463872E+04   -0.42857E-02   -0.63665E+00 12144   0.182E+00    0.976E-01
DAV:   2    -0.130431495681E+04   -0.11032E+00   -0.19426E-01 14100   0.121E+00    0.619E+00
DAV:   3    -0.130449449289E+04   -0.17954E+00   -0.14249E-01 13344   0.168E+00    0.118E+01
DAV:   4    -0.130430611220E+04    0.18838E+00   -0.13351E-01 13272   0.178E+00    0.612E+00
DAV:   5    -0.130425425139E+04    0.51861E-01   -0.83036E-02 14028   0.113E+00    0.350E+00
DAV:   6    -0.130428025575E+04   -0.26004E-01   -0.62046E-02 13500   0.107E+00    0.472E+00
DAV:   7    -0.130427588028E+04    0.43755E-02   -0.78553E-02 13464   0.110E+00    0.455E+00
DAV:   8    -0.130423428289E+04    0.41597E-01   -0.54201E-02 13440   0.938E-01    0.254E+00
DAV:   9    -0.130422749749E+04    0.67854E-02   -0.24653E-02 13260   0.637E-01    0.219E+00
DAV:  10    -0.130422961276E+04   -0.21153E-02   -0.21854E-02 13224   0.592E-01    0.213E+00
DAV:  11    -0.130424063015E+04   -0.11017E-01   -0.24146E-02 13224   0.687E-01    0.281E+00
DAV:  12    -0.130422755158E+04    0.13079E-01   -0.23356E-02 13344   0.616E-01    0.219E+00
DAV:  13    -0.130421951150E+04    0.80401E-02   -0.94818E-03 13224   0.383E-01    0.124E+00
DAV:  14    -0.130421919567E+04    0.31583E-03   -0.43385E-03 13224   0.288E-01    0.114E+00
DAV:  15    -0.130422121313E+04   -0.20175E-02   -0.60088E-03 13416   0.298E-01    0.142E+00
DAV:  16    -0.130421747871E+04    0.37344E-02   -0.47744E-03 13344   0.269E-01    0.735E-01
DAV:  17    -0.130421616105E+04    0.13177E-02   -0.13206E-03 13212   0.168E-01    0.408E-01
DAV:  18    -0.130421620635E+04   -0.45294E-04   -0.55340E-04 13104   0.106E-01    0.458E-01
DAV:  19    -0.130421624565E+04   -0.39299E-04   -0.60889E-04 13380   0.961E-02    0.459E-01
DAV:  20    -0.130421607569E+04    0.16995E-03   -0.45130E-04 13236   0.954E-02    0.345E-01
DAV:  21    -0.130421586300E+04    0.21269E-03   -0.30479E-04 13128   0.763E-02    0.233E-01
DAV:  22    -0.130421578656E+04    0.76438E-04   -0.18062E-04 13332   0.510E-02    0.168E-01
DAV:  23    -0.130421574355E+04    0.43007E-04   -0.96730E-05 13320   0.387E-02    0.945E-02
DAV:  24    -0.130421580441E+04   -0.60855E-04   -0.74698E-05 13092   0.378E-02    0.177E-01
DAV:  25    -0.130421578516E+04    0.19253E-04   -0.77521E-05 12972   0.368E-02    0.169E-01
DAV:  26    -0.130421574125E+04    0.43906E-04   -0.35508E-05  8952   0.259E-02    0.105E-01
DAV:  27    -0.130421573653E+04    0.47187E-05   -0.13339E-05  6684   0.164E-02
   6 F= -.13042157E+04 E0= -.13035328E+04  d E =-.192246E+01
       N       E                     dE             d eps       ncg     rms          rms(c)
DAV:   1    -0.130421880244E+04   -0.30612E-02   -0.58117E-01 12156   0.560E-01    0.299E-01
DAV:   2    -0.130426559580E+04   -0.46793E-01   -0.27351E-02 14160   0.599E-01    0.464E+00
DAV:   3    -0.130423958314E+04    0.26013E-01   -0.17364E-02 13272   0.685E-01    0.306E+00
DAV:   4    -0.130422551462E+04    0.14069E-01   -0.10657E-02 13716   0.464E-01    0.147E+00
DAV:   5    -0.130422488567E+04    0.62895E-03   -0.72530E-03 13620   0.382E-01    0.127E+00
DAV:   6    -0.130422714619E+04   -0.22605E-02   -0.74256E-03 13752   0.357E-01    0.157E+00
DAV:   7    -0.130422602120E+04    0.11250E-02   -0.83439E-03 13404   0.357E-01    0.139E+00
DAV:   8    -0.130422162235E+04    0.43988E-02   -0.44187E-03 13464   0.302E-01    0.736E-01
DAV:   9    -0.130422101871E+04    0.60365E-03   -0.17507E-03 13236   0.186E-01    0.653E-01
DAV:  10    -0.130422069807E+04    0.32064E-03   -0.14621E-03 13236   0.161E-01    0.500E-01
DAV:  11    -0.130422202958E+04   -0.13315E-02   -0.17798E-03 13392   0.195E-01    0.766E-01
DAV:  12    -0.130422111542E+04    0.91416E-03   -0.18001E-03 13368   0.188E-01    0.660E-01
DAV:  13    -0.130422025226E+04    0.86316E-03   -0.89989E-04 13236   0.120E-01    0.304E-01
DAV:  14    -0.130422015420E+04    0.98058E-04   -0.32032E-04 13200   0.774E-02    0.239E-01
DAV:  15    -0.130422025796E+04   -0.10376E-03   -0.34389E-04 13320   0.739E-02    0.311E-01
DAV:  16    -0.130422016812E+04    0.89847E-04   -0.33268E-04 13272   0.681E-02    0.239E-01
DAV:  17    -0.130422002794E+04    0.14018E-03   -0.14680E-04 13248   0.539E-02    0.116E-01
DAV:  18    -0.130422001482E+04    0.13120E-04   -0.49437E-05 12744   0.302E-02    0.109E-01
DAV:  19    -0.130422000953E+04    0.52943E-05   -0.34890E-05  8868   0.246E-02    0.919E-02
DAV:  20    -0.130422000824E+04    0.12847E-05   -0.29228E-05  9036   0.236E-02
   7 F= -.13042200E+04 E0= -.13035370E+04  d E =-.192673E+01
       N       E                     dE             d eps       ncg     rms          rms(c)
DAV:   1    -0.130453702916E+04   -0.31702E+00   -0.11016E+02 12144   0.946E+00    0.271E+00
DAV:   2    -0.130749585909E+04   -0.29588E+01   -0.20022E+00 13584   0.454E+00    0.369E+01
DAV:   3    -0.130545958327E+04    0.20363E+01   -0.19207E+00 12672   0.512E+00    0.184E+01
DAV:   4    -0.130500142782E+04    0.45816E+00   -0.68649E-01 13464   0.324E+00    0.109E+01
DAV:   5    -0.130509802111E+04   -0.96593E-01   -0.63016E-01 13632   0.307E+00    0.116E+01
DAV:   6    -0.130534799693E+04   -0.24998E+00   -0.73794E-01 13512   0.336E+00    0.155E+01
DAV:   7    -0.130508074329E+04    0.26725E+00   -0.60455E-01 13392   0.326E+00    0.108E+01
DAV:   8    -0.130486155306E+04    0.21919E+00   -0.32507E-01 13356   0.266E+00    0.761E+00
DAV:   9    -0.130482690122E+04    0.34652E-01   -0.23516E-01 13494   0.184E+00    0.659E+00
DAV:  10    -0.130488581199E+04   -0.58911E-01   -0.19466E-01 13452   0.194E+00    0.722E+00
DAV:  11    -0.130483127361E+04    0.54538E-01   -0.16798E-01 13284   0.194E+00    0.645E+00
DAV:  12    -0.130478190515E+04    0.49368E-01   -0.12695E-01 13332   0.149E+00    0.554E+00
DAV:  13    -0.130474609028E+04    0.35815E-01   -0.77626E-02 13320   0.115E+00    0.369E+00
DAV:  14    -0.130476905533E+04   -0.22965E-01   -0.66613E-02 13296   0.116E+00    0.446E+00
DAV:  15    -0.130475442125E+04    0.14634E-01   -0.88904E-02 13332   0.106E+00    0.404E+00
DAV:  16    -0.130472008196E+04    0.34339E-01   -0.42880E-02 13296   0.819E-01    0.213E+00
DAV:  17    -0.130470923651E+04    0.10845E-01   -0.10149E-02 13284   0.444E-01    0.105E+00
DAV:  18    -0.130470997779E+04   -0.74128E-03   -0.45028E-03 13296   0.271E-01    0.124E+00
DAV:  19    -0.130470972125E+04    0.25654E-03   -0.46702E-03 13440   0.270E-01    0.104E+00
DAV:  20    -0.130470808423E+04    0.16370E-02   -0.29596E-03 13356   0.246E-01    0.697E-01
DAV:  21    -0.130470688031E+04    0.12039E-02   -0.15499E-03 13308   0.168E-01    0.424E-01
DAV:  22    -0.130470663433E+04    0.24598E-03   -0.71710E-04 13332   0.931E-02    0.292E-01
DAV:  23    -0.130470676038E+04   -0.12605E-03   -0.50362E-04 13428   0.886E-02    0.325E-01
DAV:  24    -0.130470703506E+04   -0.27468E-03   -0.54629E-04 13248   0.992E-02    0.495E-01
DAV:  25    -0.130470655128E+04    0.48378E-03   -0.43878E-04 13344   0.821E-02    0.221E-01
DAV:  26    -0.130470644562E+04    0.10566E-03   -0.10666E-04 13200   0.447E-02    0.118E-01
DAV:  27    -0.130470647111E+04   -0.25494E-04   -0.69563E-05 13236   0.351E-02    0.133E-01
DAV:  28    -0.130470649657E+04   -0.25459E-04   -0.90985E-05 13020   0.390E-02    0.170E-01
DAV:  29    -0.130470644325E+04    0.53323E-04   -0.69381E-05 12456   0.310E-02    0.989E-02
DAV:  30    -0.130470643127E+04    0.11979E-04   -0.18393E-05  7248   0.166E-02    0.724E-02
DAV:  31    -0.130470643529E+04   -0.40174E-05   -0.11188E-05  6504   0.127E-02
   8 F= -.13047064E+04 E0= -.13040221E+04  d E =-.486427E+00
       N       E                     dE             d eps       ncg     rms          rms(c)
DAV:   1    -0.130466804396E+04    0.38387E-01   -0.93324E+01 12144   0.881E+00    0.213E+00
DAV:   2    -0.130617225234E+04   -0.15042E+01   -0.16686E+00 14964   0.328E+00    0.265E+01
DAV:   3    -0.130535074977E+04    0.82150E+00   -0.11920E+00 13020   0.394E+00    0.161E+01
DAV:   4    -0.130498633071E+04    0.36442E+00   -0.46586E-01 13392   0.265E+00    0.854E+00
DAV:   5    -0.130514370683E+04   -0.15738E+00   -0.44800E-01 13944   0.258E+00    0.108E+01
DAV:   6    -0.130520420370E+04   -0.60497E-01   -0.51047E-01 13404   0.276E+00    0.122E+01
DAV:   7    -0.130494681114E+04    0.25739E+00   -0.39427E-01 13392   0.241E+00    0.683E+00
DAV:   8    -0.130490492392E+04    0.41887E-01   -0.17607E-01 13260   0.182E+00    0.631E+00
DAV:   9    -0.130490309079E+04    0.18331E-02   -0.17467E-01 13428   0.153E+00    0.583E+00
DAV:  10    -0.130492524824E+04   -0.22157E-01   -0.13688E-01 13452   0.162E+00    0.587E+00
DAV:  11    -0.130486187036E+04    0.63378E-01   -0.10160E-01 13344   0.151E+00    0.453E+00
DAV:  12    -0.130484001572E+04    0.21855E-01   -0.61407E-02 13392   0.102E+00    0.392E+00
DAV:  13    -0.130483228372E+04    0.77320E-02   -0.42299E-02 13416   0.842E-01    0.318E+00
DAV:  14    -0.130485571704E+04   -0.23433E-01   -0.46043E-02 13452   0.941E-01    0.417E+00
DAV:  15    -0.130482731636E+04    0.28401E-01   -0.53823E-02 13344   0.843E-01    0.279E+00
DAV:  16    -0.130480804876E+04    0.19268E-01   -0.18063E-02 13224   0.550E-01    0.110E+00
DAV:  17    -0.130480585134E+04    0.21974E-02   -0.38107E-03 13188   0.266E-01    0.771E-01
DAV:  18    -0.130480747004E+04   -0.16187E-02   -0.30316E-03 13368   0.222E-01    0.112E+00
DAV:  19    -0.130480691813E+04    0.55191E-03   -0.33746E-03 13308   0.232E-01    0.909E-01
DAV:  20    -0.130480501737E+04    0.19008E-02   -0.17071E-03 13224   0.192E-01    0.436E-01
DAV:  21    -0.130480463384E+04    0.38353E-03   -0.58746E-04 13152   0.105E-01    0.301E-01
DAV:  22    -0.130480460694E+04    0.26898E-04   -0.38604E-04 13248   0.705E-02    0.277E-01
DAV:  23    -0.130480470126E+04   -0.94327E-04   -0.37770E-04 13320   0.777E-02    0.289E-01
DAV:  24    -0.130480464078E+04    0.60484E-04   -0.29657E-04 13164   0.767E-02    0.296E-01
DAV:  25    -0.130480450359E+04    0.13719E-03   -0.17093E-04 13200   0.519E-02    0.195E-01
DAV:  26    -0.130480446343E+04    0.40158E-04   -0.64237E-05 13092   0.330E-02    0.146E-01
DAV:  27    -0.130480447138E+04   -0.79486E-05   -0.54542E-05 12900   0.318E-02    0.127E-01
DAV:  28    -0.130480447096E+04    0.41607E-06   -0.63839E-05 12504   0.324E-02    0.129E-01
DAV:  29    -0.130480444245E+04    0.28516E-04   -0.40293E-05  8940   0.230E-02    0.722E-02
DAV:  30    -0.130480443880E+04    0.36477E-05   -0.11054E-05  6648   0.132E-02
   9 F= -.13048044E+04 E0= -.13041194E+04  d E =-.584431E+00
       N       E                     dE             d eps       ncg     rms          rms(c)
DAV:   1    -0.130480487379E+04   -0.43134E-03   -0.89480E-01 12144   0.867E-01    0.209E-01
DAV:   2    -0.130488923664E+04   -0.84363E-01   -0.26875E-02 13152   0.703E-01    0.656E+00
DAV:   3    -0.130481532009E+04    0.73917E-01   -0.22994E-02 12948   0.745E-01    0.200E+00
DAV:   4    -0.130480813272E+04    0.71874E-02   -0.61948E-03 13248   0.331E-01    0.930E-01
DAV:   5    -0.130480966101E+04   -0.15283E-02   -0.45042E-03 14100   0.296E-01    0.111E+00
DAV:   6    -0.130481093158E+04   -0.12706E-02   -0.64698E-03 13944   0.311E-01    0.135E+00
DAV:   7    -0.130480787735E+04    0.30542E-02   -0.51751E-03 13668   0.269E-01    0.805E-01
DAV:   8    -0.130480669531E+04    0.11820E-02   -0.17933E-03 13524   0.194E-01    0.526E-01
DAV:   9    -0.130480692424E+04   -0.22893E-03   -0.12877E-03 13380   0.148E-01    0.611E-01
DAV:  10    -0.130480732486E+04   -0.40062E-03   -0.14578E-03 13380   0.156E-01    0.682E-01
DAV:  11    -0.130480698947E+04    0.33539E-03   -0.12842E-03 13320   0.161E-01    0.617E-01
DAV:  12    -0.130480631547E+04    0.67400E-03   -0.85004E-04 13332   0.117E-01    0.393E-01
DAV:  13    -0.130480620240E+04    0.11307E-03   -0.34782E-04 13344   0.846E-02    0.325E-01
DAV:  14    -0.130480655923E+04   -0.35683E-03   -0.44843E-04 13332   0.897E-02    0.484E-01
DAV:  15    -0.130480630089E+04    0.25834E-03   -0.57244E-04 13272   0.946E-02    0.327E-01
DAV:  16    -0.130480602947E+04    0.27142E-03   -0.22455E-04 13320   0.710E-02    0.155E-01
DAV:  17    -0.130480597110E+04    0.58375E-04   -0.63173E-05 12948   0.370E-02    0.862E-02
DAV:  18    -0.130480598577E+04   -0.14678E-04   -0.37546E-05  9276   0.250E-02    0.115E-01
DAV:  19    -0.130480598126E+04    0.45142E-05   -0.37509E-05 11100   0.266E-02
  10 F= -.13048060E+04 E0= -.13041210E+04  d E =-.585973E+00
       N       E                     dE             d eps       ncg     rms          rms(c)
DAV:   1    -0.130482952382E+04   -0.23538E-01   -0.61301E+00 12156   0.243E+00    0.366E-01
DAV:   2    -0.130491042797E+04   -0.80904E-01   -0.95087E-02 13668   0.842E-01    0.594E+00
DAV:   3    -0.130488090185E+04    0.29526E-01   -0.63607E-02 13104   0.980E-01    0.458E+00
DAV:   4    -0.130484385408E+04    0.37048E-01   -0.21657E-02 13476   0.675E-01    0.165E+00
DAV:   5    -0.130484321829E+04    0.63580E-03   -0.13421E-02 13380   0.442E-01    0.150E+00
DAV:   6    -0.130485207198E+04   -0.88537E-02   -0.15466E-02 13416   0.496E-01    0.237E+00
DAV:   7    -0.130484609831E+04    0.59737E-02   -0.16407E-02 13356   0.495E-01    0.170E+00
DAV:   8    -0.130484024230E+04    0.58560E-02   -0.71679E-03 13272   0.389E-01    0.108E+00
DAV:   9    -0.130483867714E+04    0.15652E-02   -0.36550E-03 13248   0.239E-01    0.806E-01
DAV:  10    -0.130483806435E+04    0.61279E-03   -0.21992E-03 13368   0.196E-01    0.579E-01
DAV:  11    -0.130483988793E+04   -0.18236E-02   -0.27788E-03 13272   0.215E-01    0.992E-01
DAV:  12    -0.130483900965E+04    0.87828E-03   -0.33374E-03 13272   0.214E-01    0.857E-01
DAV:  13    -0.130483769983E+04    0.13098E-02   -0.13216E-03 13332   0.154E-01    0.523E-01
DAV:  14    -0.130483776353E+04   -0.63703E-04   -0.58090E-04 13200   0.103E-01    0.546E-01
DAV:  15    -0.130483773626E+04    0.27271E-04   -0.67045E-04 13296   0.105E-01    0.484E-01
DAV:  16    -0.130483745958E+04    0.27667E-03   -0.50104E-04 13200   0.104E-01    0.336E-01
DAV:  17    -0.130483719676E+04    0.26282E-03   -0.22807E-04 13248   0.718E-02    0.215E-01
DAV:  18    -0.130483719269E+04    0.40710E-05   -0.98817E-05 13260   0.381E-02    0.215E-01
DAV:  19    -0.130483719022E+04    0.24703E-05   -0.85833E-05 13200   0.389E-02    0.198E-01
DAV:  20    -0.130483717573E+04    0.14493E-04   -0.85283E-05 12876   0.392E-02    0.182E-01
DAV:  21    -0.130483712016E+04    0.55573E-04   -0.73011E-05 12300   0.321E-02    0.106E-01
DAV:  22    -0.130483709885E+04    0.21306E-04   -0.23646E-05  7236   0.203E-02    0.584E-02
DAV:  23    -0.130483709790E+04    0.94576E-06   -0.10912E-05  6816   0.141E-02
  11 F= -.13048371E+04 E0= -.13041522E+04  d E =-.311166E-01
       N       E                     dE             d eps       ncg     rms          rms(c)
DAV:   1    -0.130480298529E+04    0.34114E-01   -0.55240E+01 12156   0.730E+00    0.114E+00
DAV:   2    -0.130511145553E+04   -0.30847E+00   -0.99661E-01 15192   0.207E+00    0.820E+00
DAV:   3    -0.130508977878E+04    0.21677E-01   -0.28736E-01 13188   0.228E+00    0.103E+01
DAV:   4    -0.130501331282E+04    0.76466E-01   -0.12637E-01 13056   0.167E+00    0.802E+00
DAV:   5    -0.130494140255E+04    0.71910E-01   -0.11370E-01 13524   0.138E+00    0.461E+00
DAV:   6    -0.130500160695E+04   -0.60204E-01   -0.13964E-01 13320   0.142E+00    0.656E+00
DAV:   7    -0.130496888473E+04    0.32722E-01   -0.14136E-01 13116   0.142E+00    0.531E+00
DAV:   8    -0.130491708798E+04    0.51797E-01   -0.72573E-02 13128   0.114E+00    0.336E+00
DAV:   9    -0.130489901871E+04    0.18069E-01   -0.35262E-02 13128   0.743E-01    0.236E+00
DAV:  10    -0.130489366926E+04    0.53494E-02   -0.20869E-02 13176   0.587E-01    0.173E+00
DAV:  11    -0.130490750525E+04   -0.13836E-01   -0.23359E-02 13200   0.642E-01    0.278E+00
DAV:  12    -0.130490413726E+04    0.33680E-02   -0.30014E-02 13092   0.646E-01    0.272E+00
DAV:  13    -0.130488775088E+04    0.16386E-01   -0.14706E-02 13200   0.486E-01    0.100E+00
DAV:  14    -0.130488846962E+04   -0.71874E-03   -0.51366E-03 13104   0.304E-01    0.121E+00
DAV:  15    -0.130488975396E+04   -0.12843E-02   -0.67696E-03 13284   0.310E-01    0.128E+00
DAV:  16    -0.130488804797E+04    0.17060E-02   -0.52684E-03 13224   0.311E-01    0.979E-01
DAV:  17    -0.130488551187E+04    0.25361E-02   -0.22914E-03 13272   0.220E-01    0.537E-01
DAV:  18    -0.130488524005E+04    0.27182E-03   -0.75842E-04 13164   0.108E-01    0.421E-01
DAV:  19    -0.130488523945E+04    0.60158E-06   -0.54719E-04 13344   0.101E-01    0.381E-01
DAV:  20    -0.130488544837E+04   -0.20892E-03   -0.64947E-04 13272   0.107E-01    0.479E-01
DAV:  21    -0.130488504745E+04    0.40093E-03   -0.63271E-04 13296   0.939E-02    0.292E-01
DAV:  22    -0.130488486119E+04    0.18626E-03   -0.20333E-04 13140   0.596E-02    0.148E-01
DAV:  23    -0.130488485551E+04    0.56811E-05   -0.78104E-05 13164   0.370E-02    0.137E-01
DAV:  24    -0.130488493570E+04   -0.80196E-04   -0.98210E-05 12972   0.408E-02    0.226E-01
DAV:  25    -0.130488485905E+04    0.76659E-04   -0.10072E-04 12924   0.411E-02    0.124E-01
DAV:  26    -0.130488481623E+04    0.42816E-04   -0.33902E-05 10932   0.270E-02    0.441E-02
DAV:  27    -0.130488481702E+04   -0.79244E-06   -0.12382E-05  6768   0.153E-02
  12 F= -.13048848E+04 E0= -.13042000E+04  d E =-.788358E-01
       N       E                     dE             d eps       ncg     rms          rms(c)
DAV:   1    -0.130489901847E+04   -0.14202E-01   -0.23742E+00 12144   0.143E+00    0.303E-01
DAV:   2    -0.130495002892E+04   -0.51010E-01   -0.53389E-02 13488   0.701E-01    0.442E+00
DAV:   3    -0.130494468613E+04    0.53428E-02   -0.33068E-02 13416   0.838E-01    0.476E+00
DAV:   4    -0.130490640590E+04    0.38280E-01   -0.15801E-02 13452   0.571E-01    0.126E+00
DAV:   5    -0.130490565272E+04    0.75318E-03   -0.64239E-03 13500   0.342E-01    0.114E+00
DAV:   6    -0.130491067311E+04   -0.50204E-02   -0.85063E-03 13584   0.364E-01    0.178E+00
DAV:   7    -0.130490707077E+04    0.36023E-02   -0.89872E-03 13380   0.374E-01    0.127E+00
DAV:   8    -0.130490396249E+04    0.31083E-02   -0.39773E-03 13428   0.282E-01    0.845E-01
DAV:   9    -0.130490314998E+04    0.81251E-03   -0.21834E-03 13500   0.191E-01    0.639E-01
DAV:  10    -0.130490355988E+04   -0.40990E-03   -0.19465E-03 13320   0.184E-01    0.676E-01
DAV:  11    -0.130490576397E+04   -0.22041E-02   -0.35397E-03 13332   0.232E-01    0.113E+00
DAV:  12    -0.130490388704E+04    0.18769E-02   -0.35183E-03 13308   0.226E-01    0.776E-01
DAV:  13    -0.130490266271E+04    0.12243E-02   -0.10956E-03 13224   0.151E-01    0.475E-01
DAV:  14    -0.130490277479E+04   -0.11209E-03   -0.52374E-04 13380   0.930E-02    0.516E-01
DAV:  15    -0.130490270136E+04    0.73437E-04   -0.61068E-04 13428   0.103E-01    0.420E-01
DAV:  16    -0.130490242620E+04    0.27516E-03   -0.40596E-04 13380   0.981E-02    0.291E-01
DAV:  17    -0.130490224565E+04    0.18055E-03   -0.20371E-04 13260   0.628E-02    0.202E-01
DAV:  18    -0.130490221338E+04    0.32264E-04   -0.76466E-05 12972   0.326E-02    0.159E-01
DAV:  19    -0.130490221040E+04    0.29856E-05   -0.45236E-05 12204   0.287E-02
  13 F= -.13049022E+04 E0= -.13042175E+04  d E =-.173934E-01
       N       E                     dE             d eps       ncg     rms          rms(c)
DAV:   1    -0.130490621579E+04   -0.40024E-02   -0.34549E+00 12144   0.173E+00    0.370E-01
DAV:   2    -0.130499330398E+04   -0.87088E-01   -0.80548E-02 13440   0.887E-01    0.605E+00
DAV:   3    -0.130498040542E+04    0.12899E-01   -0.67836E-02 13356   0.106E+00    0.591E+00
DAV:   4    -0.130491786193E+04    0.62543E-01   -0.24629E-02 13332   0.761E-01    0.167E+00
DAV:   5    -0.130491674598E+04    0.11159E-02   -0.97398E-03 13824   0.420E-01    0.145E+00
DAV:   6    -0.130492327223E+04   -0.65262E-02   -0.13004E-02 13752   0.452E-01    0.214E+00
DAV:   7    -0.130491878515E+04    0.44871E-02   -0.13518E-02 13488   0.451E-01    0.159E+00
DAV:   8    -0.130491316548E+04    0.56197E-02   -0.59536E-03 13404   0.347E-01    0.899E-01
DAV:   9    -0.130491277424E+04    0.39124E-03   -0.31349E-03 13440   0.231E-01    0.851E-01
DAV:  10    -0.130491253786E+04    0.23638E-03   -0.26033E-03 13332   0.218E-01    0.708E-01
DAV:  11    -0.130491712749E+04   -0.45896E-02   -0.49766E-03 13368   0.279E-01    0.151E+00
DAV:  12    -0.130491342179E+04    0.37057E-02   -0.53525E-03 13344   0.274E-01    0.955E-01
DAV:  13    -0.130491175155E+04    0.16702E-02   -0.14344E-03 13308   0.170E-01    0.574E-01
DAV:  14    -0.130491186690E+04   -0.11535E-03   -0.83563E-04 13260   0.117E-01    0.608E-01
DAV:  15    -0.130491178698E+04    0.79923E-04   -0.10033E-03 13356   0.130E-01    0.495E-01
DAV:  16    -0.130491153755E+04    0.24942E-03   -0.72421E-04 13416   0.124E-01    0.426E-01
DAV:  17    -0.130491121573E+04    0.32182E-03   -0.36150E-04 13368   0.849E-02    0.328E-01
DAV:  18    -0.130491112197E+04    0.93762E-04   -0.12173E-04 13260   0.420E-02    0.254E-01
DAV:  19    -0.130491112988E+04   -0.79119E-05   -0.80762E-05 13224   0.388E-02    0.243E-01
DAV:  20    -0.130491110688E+04    0.23007E-04   -0.11586E-04 12912   0.419E-02    0.209E-01
DAV:  21    -0.130491101759E+04    0.89289E-04   -0.83400E-05 12384   0.353E-02    0.850E-02
DAV:  22    -0.130491100336E+04    0.14227E-04   -0.21142E-05  7224   0.197E-02    0.533E-02
DAV:  23    -0.130491101196E+04   -0.85973E-05   -0.13138E-05  6864   0.150E-02    0.795E-02
DAV:  24    -0.130491101042E+04    0.15385E-05   -0.16105E-05  6756   0.170E-02
  14 F= -.13049110E+04 E0= -.13042263E+04  d E =-.261934E-01
       N       E                     dE             d eps       ncg     rms          rms(c)
DAV:   1    -0.130491107906E+04   -0.67105E-04   -0.12666E-01 12144   0.331E-01    0.755E-02
DAV:   2    -0.130491600363E+04   -0.49246E-02   -0.33272E-03 13452   0.206E-01    0.145E+00
DAV:   3    -0.130491481532E+04    0.11883E-02   -0.23405E-03 13416   0.243E-01    0.133E+00
DAV:   4    -0.130491155534E+04    0.32600E-02   -0.10513E-03 13416   0.173E-01    0.351E-01
DAV:   5    -0.130491152918E+04    0.26159E-04   -0.46646E-04 13464   0.873E-02    0.327E-01
DAV:   6    -0.130491173503E+04   -0.20585E-03   -0.53578E-04 13284   0.979E-02    0.415E-01
DAV:   7    -0.130491166522E+04    0.69806E-04   -0.56395E-04 13332   0.950E-02    0.379E-01
DAV:   8    -0.130491136171E+04    0.30351E-03   -0.30414E-04 13284   0.785E-02    0.199E-01
DAV:   9    -0.130491132573E+04    0.35984E-04   -0.14737E-04 13248   0.487E-02    0.174E-01
DAV:  10    -0.130491130632E+04    0.19405E-04   -0.11720E-04 13224   0.420E-02    0.132E-01
DAV:  11    -0.130491140033E+04   -0.94008E-04   -0.13168E-04 13158   0.504E-02    0.215E-01
DAV:  12    -0.130491137129E+04    0.29041E-04   -0.15206E-04 13128   0.500E-02    0.221E-01
DAV:  13    -0.130491129291E+04    0.78382E-04   -0.77667E-05 12408   0.338E-02    0.132E-01
DAV:  14    -0.130491128638E+04    0.65253E-05   -0.26429E-05  8244   0.229E-02    0.121E-01
DAV:  15    -0.130491128567E+04    0.70967E-06   -0.31198E-05  7584   0.227E-02
  15 F= -.13049113E+04 E0= -.13042266E+04  d E =-.264686E-01
       N       E                     dE             d eps       ncg     rms          rms(c)
DAV:   1    -0.130491565860E+04   -0.43722E-02   -0.82876E-01 12144   0.837E-01    0.180E-01
DAV:   2    -0.130495729960E+04   -0.41641E-01   -0.21928E-02 13380   0.572E-01    0.428E+00
DAV:   3    -0.130493963445E+04    0.17665E-01   -0.16980E-02 13200   0.670E-01    0.337E+00
DAV:   4    -0.130491840265E+04    0.21232E-01   -0.91522E-03 13380   0.420E-01    0.776E-01
DAV:   5    -0.130491882967E+04   -0.42702E-03   -0.33643E-03 13236   0.240E-01    0.894E-01
DAV:   6    -0.130491939466E+04   -0.56499E-03   -0.36079E-03 13284   0.250E-01    0.953E-01
DAV:   7    -0.130491994103E+04   -0.54637E-03   -0.38344E-03 13236   0.246E-01    0.105E+00
DAV:   8    -0.130491780652E+04    0.21345E-02   -0.24331E-03 13308   0.217E-01    0.638E-01
DAV:   9    -0.130491711881E+04    0.68771E-03   -0.95681E-04 13188   0.125E-01    0.395E-01
DAV:  10    -0.130491687159E+04    0.24722E-03   -0.42008E-04 13284   0.889E-02    0.220E-01
DAV:  11    -0.130491722511E+04   -0.35352E-03   -0.42430E-04 13380   0.900E-02    0.410E-01
DAV:  12    -0.130491712696E+04    0.98150E-04   -0.51069E-04 13344   0.898E-02    0.398E-01
DAV:  13    -0.130491687124E+04    0.25572E-03   -0.25944E-04 13392   0.658E-02    0.248E-01
DAV:  14    -0.130491685598E+04    0.15265E-04   -0.91098E-05 13176   0.420E-02    0.235E-01
DAV:  15    -0.130491689758E+04   -0.41608E-04   -0.13243E-04 13224   0.452E-02    0.251E-01
DAV:  16    -0.130491684327E+04    0.54319E-04   -0.15287E-04 13080   0.476E-02    0.187E-01
DAV:  17    -0.130491675703E+04    0.86238E-04   -0.67000E-05 12588   0.375E-02    0.819E-02
DAV:  18    -0.130491675698E+04    0.44238E-07   -0.21443E-05  7284   0.190E-02
  16 F= -.13049168E+04 E0= -.13042321E+04  d E =-.547131E-02
       N       E                     dE             d eps       ncg     rms          rms(c)
DAV:   1    -0.130492022688E+04   -0.34699E-02   -0.74565E+00 12144   0.251E+00    0.437E-01
DAV:   2    -0.130499256005E+04   -0.72333E-01   -0.13118E-01 14196   0.865E-01    0.500E+00
DAV:   3    -0.130499404626E+04   -0.14862E-02   -0.70523E-02 13284   0.102E+00    0.579E+00
DAV:   4    -0.130494252370E+04    0.51523E-01   -0.23351E-02 13200   0.772E-01    0.226E+00
DAV:   5    -0.130493944668E+04    0.30770E-02   -0.16687E-02 13188   0.540E-01    0.184E+00
DAV:   6    -0.130494529508E+04   -0.58484E-02   -0.19395E-02 13248   0.544E-01    0.233E+00
DAV:   7    -0.130494391436E+04    0.13807E-02   -0.19410E-02 13188   0.549E-01    0.212E+00
DAV:   8    -0.130493583583E+04    0.80785E-02   -0.11730E-02 13212   0.467E-01    0.142E+00
DAV:   9    -0.130493221713E+04    0.36187E-02   -0.54453E-03 13164   0.290E-01    0.842E-01
DAV:  10    -0.130493181840E+04    0.39874E-03   -0.28621E-03 13320   0.225E-01    0.668E-01
DAV:  11    -0.130493490763E+04   -0.30892E-02   -0.35938E-03 13236   0.259E-01    0.127E+00
DAV:  12    -0.130493262789E+04    0.22797E-02   -0.41209E-03 13212   0.247E-01    0.889E-01
DAV:  13    -0.130493089173E+04    0.17362E-02   -0.15685E-03 13272   0.172E-01    0.389E-01
DAV:  14    -0.130493122783E+04   -0.33610E-03   -0.85527E-04 13140   0.120E-01    0.543E-01
DAV:  15    -0.130493131826E+04   -0.90433E-04   -0.12028E-03 13272   0.129E-01    0.512E-01
DAV:  16    -0.130493093596E+04    0.38230E-03   -0.76250E-04 13260   0.120E-01    0.373E-01
DAV:  17    -0.130493061252E+04    0.32345E-03   -0.27069E-04 13188   0.770E-02    0.223E-01
DAV:  18    -0.130493061983E+04   -0.73134E-05   -0.11135E-04 13332   0.424E-02    0.230E-01
DAV:  19    -0.130493060173E+04    0.18102E-04   -0.11481E-04 13272   0.444E-02    0.191E-01
DAV:  20    -0.130493058669E+04    0.15041E-04   -0.91266E-05 13092   0.436E-02    0.177E-01
DAV:  21    -0.130493052543E+04    0.61256E-04   -0.70296E-05 12468   0.333E-02    0.951E-02
DAV:  22    -0.130493050879E+04    0.16641E-04   -0.25987E-05  7584   0.200E-02    0.573E-02
DAV:  23    -0.130493050994E+04   -0.11480E-05   -0.13353E-05  6780   0.153E-02
  17 F= -.13049305E+04 E0= -.13042459E+04  d E =-.192243E-01
       N       E                     dE             d eps       ncg     rms          rms(c)
DAV:   1    -0.130490124062E+04    0.29268E-01   -0.29801E+01 12144   0.502E+00    0.884E-01
DAV:   2    -0.130512990661E+04   -0.22867E+00   -0.54159E-01 14772   0.160E+00    0.811E+00
DAV:   3    -0.130520044998E+04   -0.70543E-01   -0.18006E-01 13212   0.196E+00    0.116E+01
DAV:   4    -0.130499459023E+04    0.20586E+00   -0.11566E-01 13248   0.152E+00    0.451E+00
DAV:   5    -0.130498804816E+04    0.65421E-02   -0.78704E-02 13548   0.111E+00    0.400E+00
DAV:   6    -0.130501269677E+04   -0.24649E-01   -0.94505E-02 13356   0.114E+00    0.495E+00
DAV:   7    -0.130499469571E+04    0.18001E-01   -0.81449E-02 13236   0.111E+00    0.402E+00
DAV:   8    -0.130496487239E+04    0.29823E-01   -0.45144E-02 13200   0.888E-01    0.270E+00
DAV:   9    -0.130495216365E+04    0.12709E-01   -0.20921E-02 13164   0.553E-01    0.163E+00
DAV:  10    -0.130495183482E+04    0.32883E-03   -0.11103E-02 13224   0.449E-01    0.145E+00
DAV:  11    -0.130496286590E+04   -0.11031E-01   -0.14584E-02 13152   0.520E-01    0.251E+00
DAV:  12    -0.130495453660E+04    0.83293E-02   -0.17149E-02 13128   0.496E-01    0.181E+00
DAV:  13    -0.130494738840E+04    0.71482E-02   -0.62701E-03 13176   0.346E-01    0.847E-01
DAV:  14    -0.130494913591E+04   -0.17475E-02   -0.37072E-03 13128   0.245E-01    0.120E+00
DAV:  15    -0.130494953102E+04   -0.39511E-03   -0.52174E-03 13272   0.277E-01    0.110E+00
DAV:  16    -0.130494720144E+04    0.23296E-02   -0.31421E-03 13248   0.253E-01    0.669E-01
DAV:  17    -0.130494594414E+04    0.12573E-02   -0.10772E-03 13140   0.154E-01    0.321E-01
DAV:  18    -0.130494599527E+04   -0.51129E-04   -0.46771E-04 13284   0.835E-02    0.358E-01
DAV:  19    -0.130494603601E+04   -0.40735E-04   -0.45522E-04 13344   0.907E-02    0.334E-01
DAV:  20    -0.130494611455E+04   -0.78539E-04   -0.42959E-04 13320   0.893E-02    0.411E-01
DAV:  21    -0.130494581446E+04    0.30009E-03   -0.31795E-04 13236   0.689E-02    0.227E-01
DAV:  22    -0.130494574566E+04    0.68801E-04   -0.88691E-05 13068   0.399E-02    0.167E-01
DAV:  23    -0.130494573687E+04    0.87884E-05   -0.57413E-05 13020   0.326E-02    0.136E-01
DAV:  24    -0.130494573066E+04    0.62117E-05   -0.58152E-05 12396   0.333E-02    0.132E-01
DAV:  25    -0.130494570240E+04    0.28256E-04   -0.41858E-05  8940   0.253E-02    0.890E-02
DAV:  26    -0.130494569463E+04    0.77684E-05   -0.15178E-05  6780   0.158E-02    0.696E-02
DAV:  27    -0.130494569983E+04   -0.51991E-05   -0.12791E-05  6576   0.150E-02    0.790E-02
DAV:  28    -0.130494569871E+04    0.11262E-05   -0.19620E-05  6576   0.163E-02
  18 F= -.13049457E+04 E0= -.13042612E+04  d E =-.344130E-01
       N       E                     dE             d eps       ncg     rms          rms(c)
DAV:   1    -0.130494010300E+04    0.55968E-02   -0.51275E+00 12144   0.208E+00    0.344E-01
DAV:   2    -0.130497825337E+04   -0.38150E-01   -0.85275E-02 14700   0.639E-01    0.346E+00
DAV:   3    -0.130498221052E+04   -0.39572E-02   -0.32450E-02 13236   0.764E-01    0.432E+00
DAV:   4    -0.130495470901E+04    0.27502E-01   -0.16056E-02 13272   0.581E-01    0.182E+00
DAV:   5    -0.130495238296E+04    0.23261E-02   -0.10538E-02 13488   0.424E-01    0.143E+00
DAV:   6    -0.130495609849E+04   -0.37155E-02   -0.11567E-02 13368   0.423E-01    0.183E+00
DAV:   7    -0.130495510414E+04    0.99435E-03   -0.11092E-02 13260   0.428E-01    0.163E+00
DAV:   8    -0.130495004592E+04    0.50582E-02   -0.67085E-03 13284   0.358E-01    0.108E+00
DAV:   9    -0.130494798673E+04    0.20592E-02   -0.32104E-03 13152   0.219E-01    0.615E-01
DAV:  10    -0.130494807351E+04   -0.86776E-04   -0.17479E-03 13296   0.180E-01    0.584E-01
DAV:  11    -0.130494992844E+04   -0.18549E-02   -0.24728E-03 13224   0.212E-01    0.102E+00
DAV:  12    -0.130494849443E+04    0.14340E-02   -0.28689E-03 13188   0.202E-01    0.730E-01
DAV:  13    -0.130494730129E+04    0.11931E-02   -0.10221E-03 13236   0.139E-01    0.315E-01
DAV:  14    -0.130494753111E+04   -0.22982E-03   -0.53042E-04 13200   0.939E-02    0.442E-01
DAV:  15    -0.130494759734E+04   -0.66222E-04   -0.73417E-04 13296   0.104E-01    0.415E-01
DAV:  16    -0.130494732121E+04    0.27612E-03   -0.45708E-04 13236   0.960E-02    0.284E-01
DAV:  17    -0.130494711240E+04    0.20882E-03   -0.17285E-04 13188   0.617E-02    0.148E-01
DAV:  18    -0.130494710069E+04    0.11703E-04   -0.67727E-05 12936   0.326E-02    0.129E-01
DAV:  19    -0.130494710015E+04    0.54337E-06   -0.57182E-05 12888   0.328E-02
