NiAl                                    
           1
     0.000000  -15.146222    0.000000
     0.000000   -7.573111  -13.117013
    29.000000    0.000000    0.000000
   Ni   N 
 252   2
Direct configuration=     1
   0.44611949  0.61278586  0.52320000
   0.61600733  0.44199621  0.51834138
   0.77899413  0.27671087  0.51854621
   0.94448875  0.11115564  0.51853138
   0.94482600  0.27758683  0.51870379
   0.94448866  0.44435574  0.51853138
   0.77828647  0.61130382  0.51848276
   0.61126115  0.77792788  0.51857310
   0.44463746  0.94495295  0.51848272
   0.61123128  0.94438423  0.51861517
   0.77771841  0.94438423  0.51861517
   0.94414420  0.77792781  0.51857310
   0.94374291  0.61130382  0.51848276
   0.83315088  0.66703144  0.44996379
   0.66664503  0.83331244  0.45007172
   0.72222210  0.88888912  0.38087241
   0.88901587  0.72225133  0.38084621
   0.94447693  0.77776161  0.31161828
   0.77777813  0.94444438  0.31165759
   0.94441857  0.94444133  0.31164069
   0.88901579  0.88873276  0.38084621
   0.83337582  0.83331237  0.45007172
   0.77771794  0.77789731  0.51861517
   0.77899471  0.44429476  0.51854621
   0.66696440  0.49998731  0.45010069
   0.83361047  0.33319476  0.45009897
   0.88883033  0.38894831  0.38086552
   0.72212232  0.55558610  0.38081138
   0.77777487  0.61113991  0.31164069
   0.61109468  0.77776169  0.31161828
   0.66667335  0.83333913  0.24266452
   0.83331173  0.66670972  0.24265279
   0.88898916  0.72215832  0.17349797
   0.72222210  0.88888912  0.17346107
   0.77779242  0.94445818  0.10453624
   0.94450322  0.77774865  0.10455107
   0.94445915  0.94448707  0.10454590
   0.88898860  0.88885329  0.17349797
   0.83332151  0.83333913  0.24266452
   0.77777775  0.77777770  0.31165759
   0.72206599  0.72225133  0.38084621
   0.66642546  0.66667084  0.44999445
   0.55544721  0.72211335  0.38088031
   0.50000397  0.83309212  0.44999445
   0.33332069  0.83363111  0.45010062
   0.27532967  0.78267370  0.51834131
   0.11004403  0.94566127  0.51854610
   0.27762774  0.94566127  0.51854614
   0.44443995  0.77893657  0.51861445
   0.49945027  0.66611668  0.45103997
   0.61226995  0.61110720  0.51861448
   0.61111138  0.94444445  0.31165759
   0.44447332  0.94444140  0.31164066
   0.38891953  0.88878925  0.38081134
   0.38893497  0.72210427  0.38127548
   0.22229407  0.72210427  0.38127545
   0.05562453  0.88878925  0.38081131
   0.00023705  0.83309220  0.44999441
   0.16776634  0.66611660  0.45103993
   0.27442779  0.61278594  0.52319993
   0.10995662  0.61110720  0.51861441
   0.27533025  0.44199629  0.51834131
   0.44444030  0.27662327  0.51861445
   0.61126102  0.11081113  0.51857307
   0.66642554  0.16690393  0.44999448
   0.83315103  0.99981787  0.44996383
   0.88883357  0.05550052  0.38080934
   0.72212283  0.22229154  0.38081138
   0.77776228  0.27779496  0.31165483
   0.61097293  0.44451356  0.31184859
   0.66660597  0.49997817  0.24273686
   0.49988321  0.66655039  0.24285407
   0.55546530  0.72213157  0.17355441
   0.38883213  0.88883492  0.17349334
   0.33331154  0.83327204  0.24273679
   0.27784676  0.77763978  0.31184848
   0.11112830  0.94442921  0.31165466
   0.27777642  0.94442928  0.31165469
   0.22223952  0.88885413  0.38089814
   0.16638123  0.83363127  0.45010052
   0.10995639  0.77893672  0.51861431
   0.94441841  0.61113991  0.31164072
   0.94442430  0.44448459  0.31166586
   0.94442201  0.27778886  0.31166517
   0.94442482  0.11109084  0.31166586
   0.83328658  0.16665380  0.24266966
   0.66660124  0.16676129  0.24270445
   0.49988367  0.33356596  0.24285410
   0.55552059  0.38894900  0.17356272
   0.38888896  0.55555553  0.17360786
   0.44444307  0.61110934  0.10461686
   0.61108465  0.44445783  0.10453548
   0.77779956  0.27776134  0.10449483
   0.72216907  0.22233256  0.17349345
   0.72218661  0.05565513  0.17349793
   0.88893115  0.05559719  0.17349000
   0.83331232  0.99997858  0.24265276
   0.77777512  0.11108467  0.31164069
   0.61109497  0.11114337  0.31161824
   0.55558477  0.05568265  0.38084617
   0.50036504  0.99981779  0.44996376
   0.33361232  0.16636029  0.44998514
   0.16652801  0.33319476  0.45009890
   0.99969368  0.50027930  0.44998510
   0.05562482  0.55558610  0.38081131
   0.22223957  0.38890638  0.38089821
   0.27784689  0.44451356  0.31184855
   0.11130246  0.61103546  0.31173717
   0.16689984  0.66655039  0.24285407
   0.00009437  0.83326823  0.24270441
   0.05566643  0.88883499  0.17349338
   0.22228234  0.72218729  0.17356269
   0.27779128  0.77775101  0.10453548
   0.11109495  0.94446580  0.10449476
   0.27777276  0.94446580  0.10449479
   0.44438720  0.94448715  0.10454586
   0.61108214  0.77774873  0.10455103
   0.77782065  0.61105376  0.10454586
   0.72216893  0.55549843  0.17349345
   0.83328663  0.50005974  0.24266966
   0.88888621  0.38885530  0.17348138
   0.83328062  0.33335944  0.24268207
   0.72219697  0.38890181  0.17347241
   0.66660581  0.33341669  0.24273690
   0.61099608  0.27796885  0.31173724
   0.55544693  0.22243944  0.38088034
   0.44436904  0.27796885  0.31173721
   0.38893517  0.38896059  0.38127548
   0.49945009  0.33443300  0.45103997
   0.33324705  0.49991428  0.45091510
   0.38888875  0.55555568  0.38187890
   0.44431699  0.61098370  0.31211821
   0.27803328  0.61098370  0.31211821
   0.33337430  0.50004152  0.24289407
   0.16674986  0.49997824  0.24273679
   0.99998763  0.50005981  0.24266955
   0.16669322  0.33335951  0.24268197
   0.22223466  0.38890181  0.17347234
   0.38883237  0.22233263  0.17349338
   0.55549154  0.05565520  0.17349790
   0.50004293  0.99997873  0.24265269
   0.33339290  0.16665387  0.24266959
   0.27777606  0.27779511  0.31165476
   0.11112296  0.27778901  0.31166507
   0.05555549  0.22222232  0.38087783
   0.99999574  0.16666249  0.45007748
   0.16652765  0.00027773  0.45009886
   0.22228221  0.05549678  0.38086545
   0.27781755  0.11109092  0.31166579
   0.38899981  0.05550052  0.38080924
   0.38891953  0.22229154  0.38081131
   0.50000371  0.16690393  0.44999441
   0.44463736  0.11040944  0.51848269
   0.27768861  0.11115587  0.51853131
   0.11092017  0.27758706  0.51870369
   0.27762803  0.27671102  0.51854610
   0.11004360  0.44429498  0.51854607
   0.16638212  0.49998747  0.45010055
   0.33332055  0.33304847  0.45010059
   0.49991746  0.50004144  0.24289407
   0.44431680  0.44469957  0.31211821
   0.72206593  0.05568257  0.38084621
   0.66664528  0.00004262  0.45007172
   0.83336093  0.50027930  0.44998517
   0.88883308  0.55566691  0.38080931
   0.44444281  0.77777465  0.10455652
   0.38886388  0.72218729  0.17356272
   0.33337444  0.66658470  0.24289410
   0.16674987  0.83327204  0.24273686
   0.11130222  0.77766258  0.31173721
   0.05577293  0.72211327  0.38088031
   0.00023707  0.66667084  0.44999441
   0.61110776  0.61110941  0.10455652
   0.55552061  0.55553045  0.17356272
   0.22223474  0.88886396  0.17347238
   0.77779877  0.44443961  0.10449479
   0.94445912  0.44441521  0.10452790
   0.94445898  0.61105376  0.10454583
   0.88893086  0.55547175  0.17348997
   0.72218650  0.72215832  0.17349790
   0.66660148  0.66663730  0.24270445
   0.61099616  0.61103539  0.31173721
   0.55543832  0.55560127  0.38127548
   0.50017210  0.49991405  0.45091514
   0.55543829  0.38896043  0.38127548
   0.72218742  0.38890638  0.38089824
   0.66696437  0.33304831  0.45010066
   0.61227048  0.27662312  0.51861445
   0.77828652  0.11040928  0.51848272
   0.83336081  0.16636021  0.44998514
   0.88883063  0.22222125  0.38086552
   0.94447405  0.27776294  0.10450828
   0.94445957  0.11112591  0.10452793
   0.88888648  0.22225876  0.17348138
   0.49997085  0.83326823  0.24270445
   0.44436875  0.77766250  0.31173721
   0.77779192  0.77774949  0.10453617
   0.61108345  0.94445818  0.10453621
   0.55549150  0.88885329  0.17349793
   0.77782063  0.11112583  0.10454586
   0.61108208  0.11116929  0.10455103
   0.44444305  0.27778268  0.10455655
   0.27779097  0.44445783  0.10453552
   0.11111637  0.61110934  0.10455655
   0.05566605  0.55549835  0.17349345
   0.05573724  0.72213157  0.17355448
   0.00009468  0.66663715  0.24270448
   0.61110771  0.27778268  0.10455655
   0.55546493  0.22240346  0.17355448
   0.49997088  0.16676122  0.24270448
   0.44447352  0.11108467  0.31164069
   0.38886385  0.38894900  0.17356276
   0.33331161  0.33341654  0.24273690
   0.44444314  0.44444715  0.10461690
   0.27778104  0.61110934  0.10461690
   0.22228242  0.55553037  0.17356276
   0.11111609  0.77777457  0.10455655
   0.66667286  0.99998773  0.24266448
   0.77776280  0.44444273  0.31165486
   0.11112833  0.44444281  0.31165469
   0.05555426  0.38894847  0.38086534
   0.99999525  0.33334213  0.45007738
   0.16667461  0.16666234  0.45007741
   0.11091963  0.11149284  0.51870359
   0.55558467  0.88873284  0.38084617
   0.22229354  0.55560150  0.38127541
   0.22228205  0.22222133  0.38086541
   0.33324716  0.66683872  0.45091510
   0.33361254  0.00002752  0.44998507
   0.44611953  0.44109426  0.52319997
   0.11109518  0.44443953  0.10449483
   0.11109645  0.27776294  0.10450828
   0.05555567  0.22222209  0.17351690
   0.99997275  0.16664008  0.24268279
   0.16669302  0.99994740  0.24268210
   0.22218885  0.05555304  0.17348138
   0.27774789  0.11112591  0.10452793
   0.38880500  0.05559726  0.17348997
   0.33339337  0.99995273  0.24266966
   0.16672063  0.16664015  0.24268276
   0.11112246  0.11108863  0.31166521
   0.05555509  0.05549678  0.38086559
   0.99969332  0.00002760  0.44998524
   0.27777314  0.27776134  0.10449483
   0.22218894  0.22225861  0.17348138
   0.05559193  0.38885530  0.17348138
   0.99997334  0.33338688  0.24268276
   0.44438691  0.11112583  0.10454586
   0.11109641  0.11114047  0.10450828
   0.05559145  0.05555320  0.17348141
   0.99998731  0.99995289  0.24266969
   0.94374282  0.94495288  0.51848279
   0.38888879  0.55555561  0.55356862
   0.32095219  0.56666012  0.57232841
Direct configuration=     2
   0.44778980  0.61384533  0.52242122
   0.61598150  0.44200418  0.51834336
   0.77899164  0.27671289  0.51854308
   0.94449443  0.11116016  0.51852918
   0.94482300  0.27758839  0.51870896
   0.94449726  0.44434855  0.51852924
   0.77827981  0.61130357  0.51848259
   0.61125018  0.77793424  0.51856895
   0.44464722  0.94493376  0.51848408
   0.61122890  0.94438534  0.51860697
   0.77771756  0.94438005  0.51860959
   0.94416384  0.77791863  0.51857183
   0.94374512  0.61129876  0.51848682
   0.83314506  0.66703986  0.44996049
   0.66664079  0.83332277  0.45007117
   0.72222367  0.88888745  0.38087348
   0.88903144  0.72224464  0.38084695
   0.94446643  0.77776543  0.31161390
   0.77778240  0.94444221  0.31165470
   0.94443366  0.94442315  0.31164071
   0.88902909  0.88872519  0.38084452
   0.83336529  0.83331176  0.45006611
   0.77771619  0.77789990  0.51861326
   0.77898731  0.44429493  0.51854504
   0.66696277  0.49999170  0.45009887
   0.83360603  0.33319635  0.45009579
   0.88882827  0.38894919  0.38086622
   0.72213265  0.55557808  0.38081740
   0.77777222  0.61113700  0.31164072
   0.61109735  0.77777222  0.31160971
   0.66666467  0.83334422  0.24266411
   0.83331391  0.66670491  0.24265551
   0.88898778  0.72216901  0.17349447
   0.72222606  0.88889200  0.17347566
   0.77779002  0.94445623  0.10453071
   0.94449515  0.77775457  0.10454221
   0.94445822  0.94448400  0.10454750
   0.88898162  0.88885137  0.17349415
   0.83333258  0.83333271  0.24267173
   0.77778279  0.77777399  0.31165592
   0.72206618  0.72224646  0.38084701
   0.66640975  0.66666905  0.45000194
   0.55543580  0.72211118  0.38089412
   0.50000358  0.83309030  0.45000009
   0.33332355  0.83362048  0.45009900
   0.27543843  0.78264698  0.51830174
   0.11003316  0.94567731  0.51853541
   0.27762561  0.94565392  0.51854952
   0.44444335  0.77896278  0.51860713
   0.49937152  0.66608337  0.45108256
   0.61232434  0.61112111  0.51861323
   0.61109799  0.94445193  0.31165815
   0.44448306  0.94443294  0.31163931
   0.38891246  0.88878681  0.38081918
   0.38896075  0.72211442  0.38125376
   0.22230147  0.72208824  0.38128188
   0.05563429  0.88877589  0.38081817
   0.00024783  0.83308885  0.45000505
   0.16783979  0.66610661  0.45106906
   0.26451463  0.61972916  0.51732132
   0.10961013  0.61116172  0.51854656
   0.27533670  0.44190947  0.51832824
   0.44446269  0.27651629  0.51859662
   0.61124906  0.11081744  0.51857166
   0.66641067  0.16692271  0.44999881
   0.83314610  0.99981886  0.44996149
   0.88881954  0.05550715  0.38081163
   0.72212893  0.22228919  0.38081776
   0.77776149  0.27780033  0.31165472
   0.61096178  0.44451606  0.31184272
   0.66660172  0.49997841  0.24273886
   0.49988433  0.66655007  0.24285326
   0.55547167  0.72213373  0.17355073
   0.38882571  0.88883544  0.17349178
   0.33331448  0.83326982  0.24273591
   0.27784192  0.77763453  0.31184291
   0.11112423  0.94443093  0.31165610
   0.27777484  0.94443019  0.31165684
   0.22223770  0.88885504  0.38090474
   0.16637562  0.83362159  0.45009499
   0.10973227  0.77915071  0.51857031
   0.94443666  0.61113906  0.31163977
   0.94442998  0.44448507  0.31166208
   0.94442259  0.27779170  0.31166277
   0.94442695  0.11108729  0.31166341
   0.83328699  0.16665803  0.24266788
   0.66659682  0.16676691  0.24270545
   0.49988599  0.33356681  0.24285745
   0.55551642  0.38895642  0.17356608
   0.38888469  0.55556190  0.17361302
   0.44444426  0.61110844  0.10461433
   0.61108416  0.44446032  0.10453378
   0.77780181  0.27776413  0.10448929
   0.72217896  0.22232337  0.17349834
   0.72218631  0.05565494  0.17349678
   0.88892175  0.05560155  0.17348599
   0.83331406  0.99997941  0.24265423
   0.77776620  0.11109184  0.31163867
   0.61109398  0.11113680  0.31161264
   0.55558488  0.05569413  0.38084752
   0.50036893  0.99981743  0.44996463
   0.33362051  0.16635723  0.44998497
   0.16652929  0.33320176  0.45009828
   0.99969266  0.50027814  0.44998887
   0.05563078  0.55559223  0.38081746
   0.22223570  0.38890387  0.38090251
   0.27784663  0.44452175  0.31184116
   0.11130042  0.61102834  0.31174294
   0.16690103  0.66654839  0.24285936
   0.00010264  0.83326101  0.24270484
   0.05566210  0.88883646  0.17349774
   0.22229195  0.72217722  0.17356849
   0.27779739  0.77775076  0.10453032
   0.11110111  0.94446520  0.10449837
   0.27777316  0.94446045  0.10449341
   0.44439754  0.94447175  0.10454507
   0.61108068  0.77774714  0.10454984
   0.77780265  0.61105788  0.10454619
   0.72216865  0.55549946  0.17349935
   0.83329190  0.50005329  0.24266935
   0.88888187  0.38884831  0.17347897
   0.83328351  0.33335879  0.24268250
   0.72220377  0.38889931  0.17347336
   0.66660149  0.33342069  0.24273968
   0.61099606  0.27798225  0.31174418
   0.55543793  0.22245501  0.38089139
   0.44436453  0.27797659  0.31174118
   0.38895836  0.38894243  0.38126825
   0.49942852  0.33446814  0.45104985
   0.33327713  0.49990216  0.45092053
   0.38888429  0.55556608  0.38185878
   0.44431863  0.61097324  0.31211386
   0.27803281  0.61098157  0.31211481
   0.33337819  0.50004014  0.24289233
   0.16674744  0.49997897  0.24274077
   0.99999343  0.50005394  0.24267286
   0.16668941  0.33336373  0.24267954
   0.22223829  0.38890065  0.17347427
   0.38882534  0.22233198  0.17349393
   0.55549836  0.05565340  0.17349563
   0.50004799  0.99997605  0.24265487
   0.33339245  0.16665749  0.24266615
   0.27776983  0.27780036  0.31165513
   0.11111269  0.27779976  0.31166083
   0.05555282  0.22222308  0.38088094
   0.99999078  0.16665785  0.45008056
   0.16652765  0.00026623  0.45009750
   0.22227946  0.05549426  0.38086835
   0.27782388  0.11108868  0.31166132
   0.38899625  0.05550281  0.38081209
   0.38891851  0.22229283  0.38081707
   0.50000424  0.16690094  0.45000021
   0.44464414  0.11042596  0.51848689
   0.27768584  0.11115906  0.51852705
   0.11092233  0.27758924  0.51870069
   0.27762073  0.27671538  0.51854892
   0.11002428  0.44429032  0.51853899
   0.16637541  0.49999633  0.45009645
   0.33331737  0.33305270  0.45010432
   0.49991423  0.50004452  0.24290470
   0.44432079  0.44470063  0.31211462
   0.72206698  0.05568626  0.38084720
   0.66663818  0.00003640  0.45007097
   0.83336503  0.50027030  0.44998374
   0.88881791  0.55567579  0.38081051
   0.44444179  0.77777174  0.10454789
   0.38886442  0.72218542  0.17355911
   0.33337898  0.66658089  0.24289550
   0.16675292  0.83326643  0.24274109
   0.11130089  0.77766898  0.31174387
   0.05578541  0.72210939  0.38088590
   0.00024669  0.66666597  0.45000567
   0.61110313  0.61111425  0.10455263
   0.55551468  0.55553306  0.17356450
   0.22224459  0.88885969  0.17347354
   0.77779703  0.44443520  0.10449012
   0.94446048  0.44440906  0.10453198
   0.94446224  0.61105698  0.10455012
   0.88892613  0.55547369  0.17348858
   0.72217913  0.72216002  0.17349674
   0.66659748  0.66663695  0.24270247
   0.61099589  0.61102571  0.31174377
   0.55542679  0.55562443  0.38127281
   0.50014826  0.49990866  0.45095111
   0.55543917  0.38893743  0.38127019
   0.72218513  0.38890765  0.38090125
   0.66697011  0.33303958  0.45009810
   0.61233201  0.27656687  0.51861711
   0.77827673  0.11042405  0.51848191
   0.83336122  0.16636928  0.44998410
   0.88882656  0.22222192  0.38086845
   0.94447300  0.27776217  0.10449941
   0.94445841  0.11113135  0.10452663
   0.88888284  0.22226716  0.17347735
   0.49996733  0.83326550  0.24270506
   0.44436722  0.77766573  0.31173773
   0.77778488  0.77775790  0.10453556
   0.61108610  0.94445426  0.10454002
   0.55549384  0.88884834  0.17349723
   0.77780784  0.11113449  0.10454239
   0.61108635  0.11116773  0.10454942
   0.44443776  0.27779024  0.10455270
   0.27779282  0.44445298  0.10453038
   0.11112608  0.61110599  0.10456074
   0.05566900  0.55549560  0.17349982
   0.05572548  0.72213409  0.17355835
   0.00010298  0.66663457  0.24270661
   0.61110898  0.27778190  0.10455793
   0.55547642  0.22238582  0.17355451
   0.49996723  0.16676551  0.24270549
   0.44448352  0.11108621  0.31164045
   0.38885410  0.38895817  0.17356120
   0.33331051  0.33341898  0.24273895
   0.44444289  0.44445195  0.10461833
   0.27778141  0.61111008  0.10461681
   0.22228820  0.55553108  0.17356934
   0.11112550  0.77776798  0.10456144
   0.66666319  0.99999470  0.24266365
   0.77776776  0.44443537  0.31165494
   0.11112138  0.44444334  0.31165325
   0.05555846  0.38893770  0.38086558
   0.99999182  0.33334658  0.45008021
   0.16668000  0.16666118  0.45008001
   0.11092202  0.11148910  0.51869902
   0.55558533  0.88872158  0.38084665
   0.22229499  0.55561330  0.38127213
   0.22228200  0.22222396  0.38086730
   0.33326904  0.66689878  0.45089431
   0.33361923  0.00002617  0.44998579
   0.44848734  0.43755924  0.52206076
   0.11110379  0.44443123  0.10449528
   0.11109500  0.27776064  0.10450854
   0.05556041  0.22222124  0.17351595
   0.99997047  0.16664417  0.24268078
   0.16669373  0.99994703  0.24267877
   0.22219032  0.05555237  0.17348523
   0.27773956  0.11113033  0.10453396
   0.38879959  0.05559881  0.17348763
   0.33339646  0.99995065  0.24266548
   0.16671567  0.16664566  0.24268170
   0.11111516  0.11109086  0.31166258
   0.05556130  0.05550147  0.38086919
   0.99969956  0.00002945  0.44998771
   0.27776845  0.27776822  0.10449376
   0.22218746  0.22226023  0.17348484
   0.05560235  0.38884561  0.17348181
   0.99997287  0.33338854  0.24268239
   0.44439341  0.11112805  0.10454579
   0.11109439  0.11114596  0.10450862
   0.05559612  0.05555926  0.17347992
   0.99998786  0.99995402  0.24267097
   0.94375864  0.94494592  0.51848068
   0.41011059  0.55168497  0.55119350
   0.30595114  0.56597921  0.58255701
Direct configuration=     3
   0.44739045  0.61359202  0.52260742
   0.61598767  0.44200227  0.51834289
   0.77899223  0.27671241  0.51854383
   0.94449307  0.11115908  0.51852971
   0.94482371  0.27758802  0.51870772
   0.94449520  0.44435027  0.51852975
   0.77828140  0.61130363  0.51848263
   0.61125280  0.77793272  0.51856994
   0.44464489  0.94493835  0.51848376
   0.61122947  0.94438507  0.51860893
   0.77771777  0.94438105  0.51861092
   0.94415914  0.77792082  0.51857214
   0.94374459  0.61129997  0.51848585
   0.83314645  0.66703785  0.44996128
   0.66664181  0.83332030  0.45007130
   0.72222330  0.88888785  0.38087322
   0.88902772  0.72224624  0.38084678
   0.94446894  0.77776452  0.31161495
   0.77778138  0.94444273  0.31165539
   0.94443005  0.94442750  0.31164070
   0.88902591  0.88872700  0.38084493
   0.83336781  0.83331191  0.45006745
   0.77771661  0.77789928  0.51861372
   0.77898908  0.44429489  0.51854532
   0.66696316  0.49999065  0.45009930
   0.83360709  0.33319597  0.45009655
   0.88882876  0.38894898  0.38086605
   0.72213018  0.55558000  0.38081596
   0.77777286  0.61113769  0.31164071
   0.61109671  0.77776970  0.31161176
   0.66666675  0.83334300  0.24266420
   0.83331339  0.66670606  0.24265486
   0.88898811  0.72216645  0.17349531
   0.72222511  0.88889131  0.17347217
   0.77779059  0.94445670  0.10453204
   0.94449708  0.77775316  0.10454433
   0.94445844  0.94448474  0.10454711
   0.88898329  0.88885183  0.17349506
   0.83332994  0.83333424  0.24267001
   0.77778158  0.77777487  0.31165632
   0.72206613  0.72224762  0.38084682
   0.66641351  0.66666948  0.45000015
   0.55543853  0.72211170  0.38089082
   0.50000367  0.83309073  0.44999874
   0.33332287  0.83362302  0.45009939
   0.27541243  0.78265337  0.51831120
   0.11003576  0.94567348  0.51853797
   0.27762612  0.94565567  0.51854871
   0.44444254  0.77895651  0.51860888
   0.49939034  0.66609133  0.45107238
   0.61231133  0.61111778  0.51861353
   0.61110119  0.94445014  0.31165801
   0.44448073  0.94443496  0.31163963
   0.38891415  0.88878740  0.38081731
   0.38895459  0.72211199  0.38125895
   0.22229970  0.72209207  0.38128034
   0.05563196  0.88877909  0.38081653
   0.00024525  0.83308965  0.45000251
   0.16782223  0.66610900  0.45106209
   0.26688476  0.61806911  0.51872683
   0.10969297  0.61114868  0.51856278
   0.27533516  0.44193023  0.51833137
   0.44445733  0.27654186  0.51860088
   0.61125192  0.11081593  0.51857200
   0.66641423  0.16691822  0.44999777
   0.83314728  0.99981862  0.44996205
   0.88882289  0.05550557  0.38081109
   0.72212747  0.22228975  0.38081624
   0.77776168  0.27779905  0.31165475
   0.61096445  0.44451546  0.31184412
   0.66660274  0.49997835  0.24273839
   0.49988406  0.66655014  0.24285345
   0.55547015  0.72213321  0.17355161
   0.38882725  0.88883531  0.17349215
   0.33331378  0.83327035  0.24273612
   0.27784308  0.77763578  0.31184425
   0.11112520  0.94443052  0.31165575
   0.27777522  0.94442997  0.31165633
   0.22223813  0.88885482  0.38090316
   0.16637696  0.83362390  0.45009631
   0.10978586  0.77909955  0.51858083
   0.94443229  0.61113927  0.31164000
   0.94442863  0.44448496  0.31166298
   0.94442245  0.27779102  0.31166334
   0.94442644  0.11108814  0.31166400
   0.83328689  0.16665702  0.24266831
   0.66659787  0.16676557  0.24270521
   0.49988544  0.33356661  0.24285665
   0.55551742  0.38895465  0.17356527
   0.38888571  0.55556038  0.17361179
   0.44444397  0.61110865  0.10461494
   0.61108427  0.44445972  0.10453418
   0.77780127  0.27776346  0.10449061
   0.72217659  0.22232556  0.17349717
   0.72218639  0.05565498  0.17349706
   0.88892400  0.05560050  0.17348695
   0.83331364  0.99997921  0.24265388
   0.77776833  0.11109013  0.31163916
   0.61109422  0.11113837  0.31161398
   0.55558486  0.05569138  0.38084720
   0.50036800  0.99981752  0.44996442
   0.33361855  0.16635796  0.44998501
   0.16652898  0.33320009  0.45009843
   0.99969290  0.50027842  0.44998797
   0.05562935  0.55559077  0.38081599
   0.22223662  0.38890447  0.38090148
   0.27784669  0.44451979  0.31184293
   0.11130091  0.61103004  0.31174156
   0.16690075  0.66654887  0.24285810
   0.00010067  0.83326274  0.24270474
   0.05566313  0.88883611  0.17349670
   0.22228965  0.72217963  0.17356710
   0.27779593  0.77775082  0.10453156
   0.11109964  0.94446534  0.10449750
   0.27777306  0.94446173  0.10449374
   0.44439507  0.94447543  0.10454526
   0.61108103  0.77774752  0.10455013
   0.77780695  0.61105690  0.10454611
   0.72216872  0.55549921  0.17349794
   0.83329064  0.50005483  0.24266943
   0.88888291  0.38884998  0.17347955
   0.83328282  0.33335894  0.24268240
   0.72220214  0.38889991  0.17347314
   0.66660252  0.33341974  0.24273902
   0.61099607  0.27797905  0.31174252
   0.55544008  0.22245129  0.38088875
   0.44436561  0.27797474  0.31174023
   0.38895282  0.38894677  0.38126998
   0.49943368  0.33445974  0.45104749
   0.33326994  0.49990506  0.45091923
   0.38888536  0.55556359  0.38186359
   0.44431824  0.61097574  0.31211490
   0.27803292  0.61098208  0.31211562
   0.33337726  0.50004047  0.24289275
   0.16674802  0.49997880  0.24273982
   0.99999204  0.50005535  0.24267207
   0.16669032  0.33336272  0.24268012
   0.22223742  0.38890093  0.17347381
   0.38882702  0.22233213  0.17349380
   0.55549673  0.05565383  0.17349617
   0.50004678  0.99997669  0.24265435
   0.33339256  0.16665663  0.24266697
   0.27777132  0.27779911  0.31165504
   0.11111514  0.27779719  0.31166185
   0.05555346  0.22222290  0.38088019
   0.99999197  0.16665896  0.45007982
   0.16652765  0.00026898  0.45009783
   0.22228012  0.05549487  0.38086766
   0.27782237  0.11108922  0.31166239
   0.38899710  0.05550226  0.38081141
   0.38891875  0.22229252  0.38081570
   0.50000411  0.16690166  0.44999882
   0.44464252  0.11042201  0.51848589
   0.27768650  0.11115830  0.51852807
   0.11092181  0.27758872  0.51870141
   0.27762248  0.27671434  0.51854824
   0.11002890  0.44429143  0.51854068
   0.16637701  0.49999421  0.45009743
   0.33331813  0.33305169  0.45010343
   0.49991500  0.50004379  0.24290216
   0.44431983  0.44470038  0.31211548
   0.72206673  0.05568538  0.38084697
   0.66663987  0.00003789  0.45007115
   0.83336405  0.50027245  0.44998408
   0.88882153  0.55567367  0.38081023
   0.44444204  0.77777243  0.10454995
   0.38886429  0.72218587  0.17355997
   0.33337789  0.66658180  0.24289517
   0.16675219  0.83326777  0.24274008
   0.11130121  0.77766745  0.31174228
   0.05578242  0.72211032  0.38088456
   0.00024439  0.66666714  0.45000298
   0.61110424  0.61111310  0.10455356
   0.55551610  0.55553244  0.17356407
   0.22224224  0.88886071  0.17347326
   0.77779744  0.44443625  0.10449124
   0.94446015  0.44441053  0.10453101
   0.94446146  0.61105621  0.10454909
   0.88892726  0.55547322  0.17348891
   0.72218090  0.72215962  0.17349702
   0.66659843  0.66663703  0.24270294
   0.61099596  0.61102802  0.31174220
   0.55542955  0.55561889  0.38127345
   0.50015396  0.49990995  0.45094251
   0.55543896  0.38894293  0.38127146
   0.72218568  0.38890735  0.38090053
   0.66696874  0.33304167  0.45009871
   0.61231730  0.27658032  0.51861648
   0.77827907  0.11042052  0.51848211
   0.83336112  0.16636711  0.44998435
   0.88882754  0.22222176  0.38086775
   0.94447325  0.27776235  0.10450153
   0.94445869  0.11113005  0.10452694
   0.88888371  0.22226515  0.17347831
   0.49996817  0.83326615  0.24270491
   0.44436759  0.77766496  0.31173761
   0.77778656  0.77775589  0.10453570
   0.61108547  0.94445519  0.10453911
   0.55549328  0.88884952  0.17349740
   0.77781090  0.11113242  0.10454322
   0.61108533  0.11116810  0.10454980
   0.44443902  0.27778843  0.10455362
   0.27779238  0.44445414  0.10453161
   0.11112376  0.61110679  0.10455974
   0.05566830  0.55549626  0.17349830
   0.05572829  0.72213349  0.17355742
   0.00010100  0.66663518  0.24270610
   0.61110868  0.27778209  0.10455760
   0.55547367  0.22239004  0.17355450
   0.49996810  0.16676448  0.24270525
   0.44448113  0.11108584  0.31164051
   0.38885643  0.38895597  0.17356157
   0.33331077  0.33341840  0.24273846
   0.44444295  0.44445081  0.10461799
   0.27778132  0.61110990  0.10461683
   0.22228682  0.55553091  0.17356777
   0.11112325  0.77776956  0.10456027
   0.66666550  0.99999303  0.24266385
   0.77776657  0.44443713  0.31165492
   0.11112304  0.44444321  0.31165360
   0.05555746  0.38894028  0.38086552
   0.99999264  0.33334551  0.45007953
   0.16667871  0.16666146  0.45007939
   0.11092145  0.11149000  0.51870011
   0.55558518  0.88872427  0.38084654
   0.22229464  0.55561048  0.38127291
   0.22228201  0.22222333  0.38086685
   0.33326381  0.66688442  0.45089928
   0.33361763  0.00002649  0.44998562
   0.44792123  0.43840442  0.52233313
   0.11110173  0.44443322  0.10449517
   0.11109535  0.27776119  0.10450848
   0.05555928  0.22222144  0.17351618
   0.99997101  0.16664319  0.24268126
   0.16669356  0.99994712  0.24267956
   0.22218997  0.05555253  0.17348431
   0.27774155  0.11112927  0.10453251
   0.38880088  0.05559844  0.17348819
   0.33339572  0.99995115  0.24266648
   0.16671685  0.16664435  0.24268195
   0.11111690  0.11109033  0.31166321
   0.05555981  0.05550035  0.38086833
   0.99969807  0.00002901  0.44998712
   0.27776957  0.27776658  0.10449402
   0.22218781  0.22225984  0.17348401
   0.05559986  0.38884793  0.17348171
   0.99997298  0.33338814  0.24268248
   0.44439186  0.11112752  0.10454581
   0.11109487  0.11114465  0.10450854
   0.05559500  0.05555781  0.17348028
   0.99998773  0.99995375  0.24267067
   0.94375486  0.94494758  0.51848119
   0.40503669  0.55261040  0.55176137
   0.30953773  0.56614201  0.58011146
Direct configuration=     4
   0.44709307  0.61340340  0.52274607
   0.61599227  0.44200086  0.51834253
   0.77899268  0.27671205  0.51854439
   0.94449206  0.11115827  0.51853010
   0.94482425  0.27758774  0.51870680
   0.94449367  0.44435155  0.51853013
   0.77828259  0.61130367  0.51848266
   0.61125476  0.77793159  0.51857068
   0.44464315  0.94494177  0.51848351
   0.61122989  0.94438488  0.51861039
   0.77771792  0.94438179  0.51861192
   0.94415565  0.77792246  0.51857236
   0.94374420  0.61130087  0.51848512
   0.83314749  0.66703635  0.44996187
   0.66664256  0.83331846  0.45007140
   0.72222302  0.88888815  0.38087303
   0.88902495  0.72224743  0.38084664
   0.94447081  0.77776384  0.31161573
   0.77778062  0.94444311  0.31165590