   1   1   0   0
  0.3048625E+04  0.1450000E-08  0.1450000E-08  0.1450000E-08  0.5000000E-15
  1.000000000000000E-004
  CAR 
 NiAl                                    
      1.38039087    -19.69405799  301     -7.03296877      1.00000000
    -19.694  0.0000E+00  0.0000E+00
    -19.624  0.0000E+00  0.0000E+00
    -19.554  0.0000E+00  0.0000E+00
    -19.483  0.0000E+00  0.0000E+00
    -19.413  0.0000E+00  0.0000E+00
    -19.343  0.0000E+00  0.0000E+00
    -19.273  0.0000E+00  0.0000E+00
    -19.202  0.0000E+00  0.0000E+00
    -19.132  0.0000E+00  0.0000E+00
    -19.062  0.0000E+00  0.0000E+00
    -18.992  0.7063E-11  0.4961E-12
    -18.921  0.2293E-05  0.1611E-06
    -18.851  0.1628E-01  0.1144E-02
    -18.781  0.2911E+01  0.2057E+00
    -18.711  0.1884E+02  0.1529E+01
    -18.640  0.6604E+01  0.1993E+01
    -18.570  0.9625E-01  0.2000E+01
    -18.500  0.3792E-04  0.2000E+01
    -18.430  0.3354E-09  0.2000E+01
    -18.359  0.0000E+00  0.2000E+01
    -18.289  0.0000E+00  0.2000E+01
    -18.219  0.0000E+00  0.2000E+01
    -18.149  0.0000E+00  0.2000E+01
    -18.078  0.0000E+00  0.2000E+01
    -18.008  0.0000E+00  0.2000E+01
    -17.938  0.0000E+00  0.2000E+01
    -17.868  0.0000E+00  0.2000E+01
    -17.797  0.0000E+00  0.2000E+01
    -17.727  0.0000E+00  0.2000E+01
    -17.657  0.0000E+00  0.2000E+01
    -17.587  0.0000E+00  0.2000E+01
    -17.516  0.0000E+00  0.2000E+01
    -17.446  0.0000E+00  0.2000E+01
    -17.376  0.0000E+00  0.2000E+01
    -17.306  0.0000E+00  0.2000E+01
    -17.235  0.0000E+00  0.2000E+01
    -17.165  0.0000E+00  0.2000E+01
    -17.095  0.0000E+00  0.2000E+01
    -17.025  0.0000E+00  0.2000E+01
    -16.954  0.0000E+00  0.2000E+01
    -16.884  0.0000E+00  0.2000E+01
    -16.814  0.0000E+00  0.2000E+01
    -16.744  0.0000E+00  0.2000E+01
    -16.673  0.0000E+00  0.2000E+01
    -16.603  0.0000E+00  0.2000E+01
    -16.533  0.0000E+00  0.2000E+01
    -16.463  0.0000E+00  0.2000E+01
    -16.392  0.0000E+00  0.2000E+01
    -16.322  0.0000E+00  0.2000E+01
    -16.252  0.0000E+00  0.2000E+01
    -16.182  0.0000E+00  0.2000E+01
    -16.111  0.0000E+00  0.2000E+01
    -16.041  0.0000E+00  0.2000E+01
    -15.971  0.0000E+00  0.2000E+01
    -15.901  0.0000E+00  0.2000E+01
    -15.830  0.0000E+00  0.2000E+01
    -15.760  0.0000E+00  0.2000E+01
    -15.690  0.0000E+00  0.2000E+01
    -15.620  0.0000E+00  0.2000E+01
    -15.549  0.0000E+00  0.2000E+01
    -15.479  0.0000E+00  0.2000E+01
    -15.409  0.0000E+00  0.2000E+01
    -15.339  0.0000E+00  0.2000E+01
    -15.268  0.0000E+00  0.2000E+01
    -15.198  0.0000E+00  0.2000E+01
    -15.128  0.0000E+00  0.2000E+01
    -15.058  0.0000E+00  0.2000E+01
    -14.987  0.0000E+00  0.2000E+01
    -14.917  0.0000E+00  0.2000E+01
    -14.847  0.0000E+00  0.2000E+01
    -14.777  0.0000E+00  0.2000E+01
    -14.706  0.0000E+00  0.2000E+01
    -14.636  0.0000E+00  0.2000E+01
    -14.566  0.0000E+00  0.2000E+01
    -14.496  0.0000E+00  0.2000E+01
    -14.425  0.0000E+00  0.2000E+01
    -14.355  0.0000E+00  0.2000E+01
    -14.285  0.0000E+00  0.2000E+01
    -14.215  0.0000E+00  0.2000E+01
    -14.144  0.0000E+00  0.2000E+01
    -14.074  0.0000E+00  0.2000E+01
    -14.004  0.0000E+00  0.2000E+01
    -13.934  0.0000E+00  0.2000E+01
    -13.863  0.0000E+00  0.2000E+01
    -13.793  0.0000E+00  0.2000E+01
    -13.723  0.0000E+00  0.2000E+01
    -13.653  0.0000E+00  0.2000E+01
    -13.582  0.0000E+00  0.2000E+01
    -13.512  0.0000E+00  0.2000E+01
    -13.442  0.0000E+00  0.2000E+01
    -13.372  0.0000E+00  0.2000E+01
    -13.301  0.0000E+00  0.2000E+01
    -13.231  0.0000E+00  0.2000E+01
    -13.161  0.0000E+00  0.2000E+01
    -13.091  0.0000E+00  0.2000E+01
    -13.020  0.0000E+00  0.2000E+01
    -12.950  0.0000E+00  0.2000E+01
    -12.880  0.0000E+00  0.2000E+01
    -12.810  0.0000E+00  0.2000E+01
    -12.739  0.0000E+00  0.2000E+01
    -12.669  0.0000E+00  0.2000E+01
    -12.599  0.0000E+00  0.2000E+01
    -12.529  0.0000E+00  0.2000E+01
    -12.458  0.0000E+00  0.2000E+01
    -12.388  0.0000E+00  0.2000E+01
    -12.318  0.0000E+00  0.2000E+01
    -12.248  0.0000E+00  0.2000E+01
    -12.178  0.0000E+00  0.2000E+01
    -12.107  0.0000E+00  0.2000E+01
    -12.037  0.0000E+00  0.2000E+01
    -11.967  0.0000E+00  0.2000E+01
    -11.897  0.0000E+00  0.2000E+01
    -11.826  0.0000E+00  0.2000E+01
    -11.756  0.0000E+00  0.2000E+01
    -11.686  0.0000E+00  0.2000E+01
    -11.616  0.0000E+00  0.2000E+01
    -11.545  0.0000E+00  0.2000E+01
    -11.475  0.0000E+00  0.2000E+01
    -11.405  0.0000E+00  0.2000E+01
    -11.335  0.0000E+00  0.2000E+01
    -11.264  0.0000E+00  0.2000E+01
    -11.194  0.0000E+00  0.2000E+01
    -11.124  0.0000E+00  0.2000E+01
    -11.054  0.0000E+00  0.2000E+01
    -10.983  0.0000E+00  0.2000E+01
    -10.913  0.0000E+00  0.2000E+01
    -10.843  0.0000E+00  0.2000E+01
    -10.773  0.0000E+00  0.2000E+01
    -10.702  0.0000E+00  0.2000E+01
    -10.632  0.0000E+00  0.2000E+01
    -10.562  0.0000E+00  0.2000E+01
    -10.492  0.0000E+00  0.2000E+01
    -10.421  0.0000E+00  0.2000E+01
    -10.351  0.0000E+00  0.2000E+01
    -10.281  0.0000E+00  0.2000E+01
    -10.211  0.0000E+00  0.2000E+01
    -10.140  0.0000E+00  0.2000E+01
    -10.070  0.0000E+00  0.2000E+01
    -10.000  0.0000E+00  0.2000E+01
     -9.930  0.0000E+00  0.2000E+01
     -9.859  0.0000E+00  0.2000E+01
     -9.789  0.0000E+00  0.2000E+01
     -9.719  0.0000E+00  0.2000E+01
     -9.649  0.0000E+00  0.2000E+01
     -9.578  0.0000E+00  0.2000E+01
     -9.508  0.0000E+00  0.2000E+01
     -9.438  0.0000E+00  0.2000E+01
     -9.368  0.0000E+00  0.2000E+01
     -9.297  0.0000E+00  0.2000E+01
     -9.227  0.0000E+00  0.2000E+01
     -9.157  0.0000E+00  0.2000E+01
     -9.087  0.0000E+00  0.2000E+01
     -9.016  0.0000E+00  0.2000E+01
     -8.946  0.0000E+00  0.2000E+01
     -8.876  0.0000E+00  0.2000E+01
     -8.806  0.0000E+00  0.2000E+01
     -8.735  0.0000E+00  0.2000E+01
     -8.665  0.0000E+00  0.2000E+01
     -8.595  0.0000E+00  0.2000E+01
     -8.525  0.0000E+00  0.2000E+01
     -8.454  0.0000E+00  0.2000E+01
     -8.384  0.0000E+00  0.2000E+01
     -8.314  0.0000E+00  0.2000E+01
     -8.244  0.0000E+00  0.2000E+01
     -8.173  0.0000E+00  0.2000E+01
     -8.103  0.0000E+00  0.2000E+01
     -8.033  0.0000E+00  0.2000E+01
     -7.963  0.0000E+00  0.2000E+01
     -7.892  0.0000E+00  0.2000E+01
     -7.822  0.0000E+00  0.2000E+01
     -7.752  0.0000E+00  0.2000E+01
     -7.682  0.0000E+00  0.2000E+01
     -7.611  0.0000E+00  0.2000E+01
     -7.541  0.0000E+00  0.2000E+01
     -7.471  0.0000E+00  0.2000E+01
     -7.401  0.0000E+00  0.2000E+01
     -7.330  0.1778E-14  0.2000E+01
     -7.260  0.5812E-08  0.2000E+01
     -7.190  0.3936E-03  0.2000E+01
     -7.120  0.6107E+00  0.2043E+01
     -7.049  0.2683E+02  0.3928E+01
     -6.979  0.5249E+02  0.7615E+01
     -6.909  0.5455E+01  0.7999E+01
     -6.839  0.1938E-01  0.8000E+01
     -6.768  0.1698E-05  0.8000E+01
     -6.698  0.3239E-11  0.8000E+01
     -6.628  0.0000E+00  0.8000E+01
     -6.558  0.0000E+00  0.8000E+01
     -6.487  0.0000E+00  0.8000E+01
     -6.417  0.0000E+00  0.8000E+01
     -6.347  0.0000E+00  0.8000E+01
     -6.277  0.0000E+00  0.8000E+01
     -6.206  0.0000E+00  0.8000E+01
     -6.136  0.0000E+00  0.8000E+01
     -6.066  0.0000E+00  0.8000E+01
     -5.996  0.0000E+00  0.8000E+01
     -5.925  0.0000E+00  0.8000E+01
     -5.855  0.0000E+00  0.8000E+01
     -5.785  0.0000E+00  0.8000E+01
     -5.715  0.0000E+00  0.8000E+01
     -5.644  0.0000E+00  0.8000E+01
     -5.574  0.0000E+00  0.8000E+01
     -5.504  0.0000E+00  0.8000E+01
     -5.434  0.0000E+00  0.8000E+01
     -5.363  0.0000E+00  0.8000E+01
     -5.293  0.0000E+00  0.8000E+01
     -5.223  0.0000E+00  0.8000E+01
     -5.153  0.0000E+00  0.8000E+01
     -5.082  0.0000E+00  0.8000E+01
     -5.012  0.0000E+00  0.8000E+01
     -4.942  0.0000E+00  0.8000E+01
     -4.872  0.0000E+00  0.8000E+01
     -4.801  0.0000E+00  0.8000E+01
     -4.731  0.0000E+00  0.8000E+01
     -4.661  0.0000E+00  0.8000E+01
     -4.591  0.0000E+00  0.8000E+01
     -4.520  0.0000E+00  0.8000E+01
     -4.450  0.0000E+00  0.8000E+01
     -4.380  0.0000E+00  0.8000E+01
     -4.310  0.0000E+00  0.8000E+01
     -4.239  0.0000E+00  0.8000E+01
     -4.169  0.0000E+00  0.8000E+01
     -4.099  0.0000E+00  0.8000E+01
     -4.029  0.0000E+00  0.8000E+01
     -3.958  0.0000E+00  0.8000E+01
     -3.888  0.0000E+00  0.8000E+01
     -3.818  0.0000E+00  0.8000E+01
     -3.748  0.0000E+00  0.8000E+01
     -3.677  0.0000E+00  0.8000E+01
     -3.607  0.0000E+00  0.8000E+01
     -3.537  0.0000E+00  0.8000E+01
     -3.467  0.0000E+00  0.8000E+01
     -3.396  0.0000E+00  0.8000E+01
     -3.326  0.0000E+00  0.8000E+01
     -3.256  0.0000E+00  0.8000E+01
     -3.186  0.0000E+00  0.8000E+01
     -3.115  0.0000E+00  0.8000E+01
     -3.045  0.0000E+00  0.8000E+01
     -2.975  0.0000E+00  0.8000E+01
     -2.905  0.0000E+00  0.8000E+01
     -2.834  0.0000E+00  0.8000E+01
     -2.764  0.0000E+00  0.8000E+01
     -2.694  0.0000E+00  0.8000E+01
     -2.624  0.0000E+00  0.8000E+01
     -2.554  0.0000E+00  0.8000E+01
     -2.483  0.0000E+00  0.8000E+01
     -2.413  0.0000E+00  0.8000E+01
     -2.343  0.0000E+00  0.8000E+01
     -2.273  0.0000E+00  0.8000E+01
     -2.202  0.0000E+00  0.8000E+01
     -2.132  0.0000E+00  0.8000E+01
     -2.062  0.0000E+00  0.8000E+01
     -1.992  0.0000E+00  0.8000E+01
     -1.921  0.0000E+00  0.8000E+01
     -1.851  0.0000E+00  0.8000E+01
     -1.781  0.0000E+00  0.8000E+01
     -1.711  0.0000E+00  0.8000E+01
     -1.640  0.0000E+00  0.8000E+01
     -1.570  0.0000E+00  0.8000E+01
     -1.500  0.0000E+00  0.8000E+01
     -1.430  0.0000E+00  0.8000E+01
     -1.359  0.0000E+00  0.8000E+01
     -1.289  0.0000E+00  0.8000E+01
     -1.219  0.0000E+00  0.8000E+01
     -1.149  0.0000E+00  0.8000E+01
     -1.078  0.0000E+00  0.8000E+01
     -1.008  0.0000E+00  0.8000E+01
     -0.938  0.0000E+00  0.8000E+01
     -0.868  0.0000E+00  0.8000E+01
     -0.797  0.0000E+00  0.8000E+01
     -0.727  0.0000E+00  0.8000E+01
     -0.657  0.0000E+00  0.8000E+01
     -0.587  0.0000E+00  0.8000E+01
     -0.516  0.1995E-13  0.8000E+01
     -0.446  0.1704E-07  0.8000E+01
     -0.376  0.3133E-03  0.8000E+01
     -0.306  0.1395E+00  0.8010E+01
     -0.235  0.2508E+01  0.8186E+01
     -0.165  0.9299E+01  0.8839E+01
     -0.095  0.1255E+02  0.9721E+01
     -0.025  0.3829E+01  0.9990E+01
      0.046  0.2795E+00  0.1001E+02
      0.116  0.4177E+01  0.1030E+02
      0.186  0.5950E+01  0.1072E+02
      0.256  0.2554E+01  0.1090E+02
      0.327  0.9380E+01  0.1156E+02
      0.397  0.3508E+01  0.1181E+02
      0.467  0.2398E+01  0.1197E+02
      0.537  0.3647E+00  0.1200E+02
      0.608  0.2044E-02  0.1200E+02
      0.678  0.2885E-06  0.1200E+02
      0.748  0.8906E-12  0.1200E+02
      0.818  0.0000E+00  0.1200E+02
      0.889  0.0000E+00  0.1200E+02
      0.959  0.0000E+00  0.1200E+02
      1.029  0.0000E+00  0.1200E+02
      1.099  0.0000E+00  0.1200E+02
      1.170  0.0000E+00  0.1200E+02
      1.240  0.0000E+00  0.1200E+02
      1.310  0.0000E+00  0.1200E+02
      1.380  0.0000E+00  0.1200E+02
