    1    1    1    1
  0.3048625E+04  0.1450000E-08  0.1450000E-08  0.1450000E-08  0.5000000E-15
  1.000000000000000E-004
  CAR 
 NiAl                                    
      5      4      6
 
  0.0000000E+00  0.0000000E+00  0.0000000E+00  0.1250000E+00
    1      -18.736128   1.000000
    2       -7.034621   0.518633
    3       -7.034621   0.518633
    4       -7.034621   0.518633
    5       -0.243190   0.000000
    6        0.312584   0.000000
 
  0.5000000E+00  0.0000000E+00  0.0000000E+00  0.3750000E+00
    1      -18.736103   1.000000
    2       -7.034373   0.515838
    3       -7.034373   0.515838
    4       -7.032212   0.491462
    5       -0.177413   0.000000
    6        0.124508   0.000000
 
  0.5000000E+00  0.5000000E+00  0.0000000E+00  0.3750000E+00
    1      -18.736074   1.000000
    2       -7.033906   0.510576
    3       -7.031736   0.486094
    4       -7.031736   0.486094
    5       -0.128199   0.000000
    6        0.288510   0.000000
 
  0.5000000E+00  0.5000000E+00  0.5000000E+00  0.1250000E+00
    1      -18.736029   1.000000
    2       -7.030793   0.475464
    3       -7.030793   0.475464
    4       -7.030793   0.475464
    5       -0.088679   0.000000
    6        0.422461   0.000000
