       N       E                     dE             d eps       ncg     rms          rms(c)
DAV:   1     0.281208269761E+02    0.28121E+02   -0.44038E+02    48   0.180E+02
DAV:   2     0.175649392074E+02   -0.10556E+02   -0.97077E+01    60   0.441E+01
DAV:   3     0.262879387680E+01   -0.14936E+02   -0.14885E+02    84   0.336E+01
DAV:   4    -0.319201292316E-01   -0.26607E+01   -0.26230E+01    48   0.220E+01
DAV:   5    -0.114246426979E+00   -0.82326E-01   -0.50098E-01    48   0.441E+00    0.109E+00
DAV:   6    -0.114480818839E+00   -0.23439E-03   -0.75088E-02    60   0.150E+00    0.526E-01
DAV:   7    -0.119871902376E+00   -0.53911E-02   -0.37033E-03    48   0.512E-01    0.148E-01
DAV:   8    -0.120928890801E+00   -0.10570E-02   -0.21385E-04    48   0.144E-01    0.178E-02
DAV:   9    -0.120930009912E+00   -0.11191E-05   -0.35482E-05    48   0.430E-02
   1 F= -.12093001E+00 E0= -.78649403E-01  d E =-.845612E-01
