           9
 Energy: -0.120930000000000     
 X  0.0000000E+00  0.0000000E+00  0.0000000E+00
 X   14.50000      0.0000000E+00  0.0000000E+00
 X  0.0000000E+00   14.50000      0.0000000E+00
 X  0.0000000E+00  0.0000000E+00   14.50000    
 X   14.50000       14.50000      0.0000000E+00
 X   14.50000      0.0000000E+00   14.50000    
 X  0.0000000E+00   14.50000       14.50000    
 X   14.50000       14.50000       14.50000    
 N   0.0000000E+00  0.0000000E+00  0.0000000E+00
