 vasp.5.4.4.18Apr17-6-g9f103f2a35 (build May 02 2017 15:33:50) complex          
  
 executed on Intel-16.0.3.210-OMP date 2018.07.06  11:24:05
 running on    6 total cores
 distrk:  each k-point on    6 cores,    1 groups
 distr:  one band on NCORES_PER_BAND=   1 cores,    6 groups


--------------------------------------------------------------------------------------------------------


 INCAR:
 POTCAR:    PAW_PBE N 08Apr2002                   

 ----------------------------------------------------------------------------- 
|                                                                             |
|           W    W    AA    RRRRR   N    N  II  N    N   GGGG   !!!           |
|           W    W   A  A   R    R  NN   N  II  NN   N  G    G  !!!           |
|           W    W  A    A  R    R  N N  N  II  N N  N  G       !!!           |
|           W WW W  AAAAAA  RRRRR   N  N N  II  N  N N  G  GGG   !            |
|           WW  WW  A    A  R   R   N   NN  II  N   NN  G    G                |
|           W    W  A    A  R    R  N    N  II  N    N   GGGG   !!!           |
|                                                                             |
|      For optimal performance we recommend to set                            |
|        NCORE= 4 - approx SQRT( number of cores)                             |
|      NCORE specifies how many cores store one orbital (NPAR=cpu/NCORE).     |
|      This setting can  greatly improve the performance of VASP for DFT.     |
|      The default,   NCORE=1            might be grossly inefficient         |
|      on modern multi-core architectures or massively parallel machines.     |
|      Do your own testing !!!!                                               |
|      Unfortunately you need to use the default for GW and RPA calculations. |
|      (for HF NCORE is supported but not extensively tested yet)             |
|                                                                             |
 ----------------------------------------------------------------------------- 

 POTCAR:    PAW_PBE N 08Apr2002                   
   VRHFIN =N: s2p3                                                              
   LEXCH  = PE                                                                  
   EATOM  =   264.5486 eV,   19.4438 Ry                                         
                                                                                
   TITEL  = PAW_PBE N 08Apr2002                                                 
   LULTRA =        F    use ultrasoft PP ?                                      
   IUNSCR =        1    unscreen: 0-lin 1-nonlin 2-no                           
   RPACOR =    1.200    partial core radius                                     
   POMASS =   14.001; ZVAL   =    5.000    mass and valenz                      
   RCORE  =    1.500    outmost cutoff radius                                   
   RWIGS  =    1.400; RWIGS  =    0.741    wigner-seitz radius (au A)           
   ENMAX  =  400.000; ENMIN  =  300.000 eV                                      
   ICORE  =        2    local potential                                         
   LCOR   =        T    correct aug charges                                     
   LPAW   =        T    paw PP                                                  
   EAUG   =  627.112                                                            
   DEXC   =    0.000                                                            
   RMAX   =    1.529    core radius for proj-oper                               
   RAUG   =    1.300    factor for augmentation sphere                          
   RDEP   =    1.514    radius for radial grids                                 
   RDEPT  =    1.338    core radius for aug-charge                              
                                                                                
   Atomic configuration                                                         
    4 entries                                                                   
     n  l   j            E        occ.                                          
     1  0  0.50      -384.7179   2.0000                                         
     2  0  0.50       -18.5828   2.0000                                         
     2  1  0.50        -7.0898   3.0000                                         
     3  2  1.50        -6.8029   0.0000                                         
   Description                                                                  
     l       E           TYP  RCUT    TYP  RCUT                                 
     0    -18.5828119     23  1.200                                             
     0    -13.5018863     23  1.200                                             
     1     -7.0897853     23  1.500                                             
     1      9.5240782     23  1.500                                             
     2     -6.8029130      7  1.500                                             
  local pseudopotential read in
  partial core-charges read in
  partial kinetic energy density read in
  atomic valenz-charges read in
  non local Contribution for L=           0  read in
    real space projection operators read in
  non local Contribution for L=           0  read in
    real space projection operators read in
  non local Contribution for L=           1  read in
    real space projection operators read in
  non local Contribution for L=           1  read in
    real space projection operators read in
    PAW grid and wavefunctions read in
 
   number of l-projection  operators is LMAX  =           4
   number of lm-projection operators is LMMAX =           8
 

 ----------------------------------------------------------------------------- 
|                                                                             |
|  ADVICE TO THIS USER RUNNING 'VASP/VAMP'   (HEAR YOUR MASTER'S VOICE ...):  |
|                                                                             |
|      You have a (more or less) 'small supercell' and for smaller cells      |
|      it is recommended  to use the reciprocal-space projection scheme!      |
|      The real space optimization is not  efficient for small cells and it   |
|      is also less accurate ...                                              |
|      Therefore set LREAL=.FALSE. in the  INCAR file                         |
|                                                                             |
 ----------------------------------------------------------------------------- 

 Optimization of the real space projectors (new method)

 maximal supplied QI-value         = 25.13
 optimisation between [QCUT,QGAM] = [  8.80, 17.59] = [ 21.67, 86.68] Ry 
 Optimized for a Real-space Cutoff    2.14 Angstroem

   l    n(q)    QCUT    max X(q) W(low)/X(q) W(high)/X(q)  e(spline) 
   0     11     8.797    79.467    0.70E-04    0.19E-04    0.19E-05
   0     11     8.797    66.151    0.68E-04    0.18E-04    0.19E-05
   1     11     8.797     6.738    0.26E-03    0.11E-02    0.73E-05
   1     11     8.797     5.013    0.25E-03    0.11E-02    0.72E-05
  PAW_PBE N 08Apr2002                   :
 energy of atom  1       EATOM= -264.5486
 kinetic energy error for atom=    0.6882 (will be added to EATOM!!)
 
 
 POSCAR: New structure                           
  positions in cartesian coordinates
  No initial velocities read in
 exchange correlation table for  LEXCH =        8
   RHO(1)=    0.500       N(1)  =     2000
   RHO(2)=  100.500       N(2)  =     4000
 


--------------------------------------------------------------------------------------------------------


 ion  position               nearest neighbor table
   1  0.000  0.000  0.000-
 
  LATTYP: Found a simple cubic cell.
 ALAT       =    14.5000000000
  
  Lattice vectors:
  
 A1 = (  14.5000000000,   0.0000000000,   0.0000000000)
 A2 = (   0.0000000000,  14.5000000000,   0.0000000000)
 A3 = (   0.0000000000,   0.0000000000,  14.5000000000)


Analysis of symmetry for initial positions (statically):
=====================================================================
 Subroutine PRICEL returns:
 Original cell was already a primitive cell.
 

 Routine SETGRP: Setting up the symmetry group for a 
 simple cubic supercell.


 Subroutine GETGRP returns: Found 48 space group operations
 (whereof 48 operations were pure point group operations)
 out of a pool of 48 trial point group operations.


The static configuration has the point symmetry O_h .


Analysis of symmetry for dynamics (positions and initial velocities):
=====================================================================
 Subroutine PRICEL returns:
 Original cell was already a primitive cell.
 

 Routine SETGRP: Setting up the symmetry group for a 
 simple cubic supercell.


 Subroutine GETGRP returns: Found 48 space group operations
 (whereof 48 operations were pure point group operations)
 out of a pool of 48 trial point group operations.


The dynamic configuration has the point symmetry O_h .


 Subroutine INISYM returns: Found 48 space group operations
 (whereof 48 operations are pure point group operations),
 and found     1 'primitive' translations

 
 
 KPOINTS: Automatic generation                    

Automatic generation of k-mesh.
Space group operators:
 irot       det(A)        alpha          n_x          n_y          n_z        tau_x        tau_y        tau_z
    1     1.000000     0.000000     1.000000     0.000000     0.000000     0.000000     0.000000     0.000000
    2    -1.000000     0.000000     1.000000     0.000000     0.000000     0.000000     0.000000     0.000000
    3     1.000000   120.000000    -0.577350    -0.577350    -0.577350     0.000000     0.000000     0.000000
    4    -1.000000   120.000000    -0.577350    -0.577350    -0.577350     0.000000     0.000000     0.000000
    5     1.000000   120.000000     0.577350     0.577350     0.577350     0.000000     0.000000     0.000000
    6    -1.000000   120.000000     0.577350     0.577350     0.577350     0.000000     0.000000     0.000000
    7     1.000000    90.000000     0.000000     0.000000    -1.000000     0.000000     0.000000     0.000000
    8    -1.000000    90.000000     0.000000     0.000000    -1.000000     0.000000     0.000000     0.000000
    9     1.000000   180.000000     0.000000     0.707107     0.707107     0.000000     0.000000     0.000000
   10    -1.000000   180.000000     0.000000     0.707107     0.707107     0.000000     0.000000     0.000000
   11     1.000000    90.000000     0.000000     1.000000     0.000000     0.000000     0.000000     0.000000
   12    -1.000000    90.000000     0.000000     1.000000     0.000000     0.000000     0.000000     0.000000
   13     1.000000   180.000000     0.000000     0.000000     1.000000     0.000000     0.000000     0.000000
   14    -1.000000   180.000000     0.000000     0.000000     1.000000     0.000000     0.000000     0.000000
   15     1.000000   120.000000    -0.577350     0.577350     0.577350     0.000000     0.000000     0.000000
   16    -1.000000   120.000000    -0.577350     0.577350     0.577350     0.000000     0.000000     0.000000
   17     1.000000   120.000000    -0.577350     0.577350    -0.577350     0.000000     0.000000     0.000000
   18    -1.000000   120.000000    -0.577350     0.577350    -0.577350     0.000000     0.000000     0.000000
   19     1.000000    90.000000     0.000000     0.000000     1.000000     0.000000     0.000000     0.000000
   20    -1.000000    90.000000     0.000000     0.000000     1.000000     0.000000     0.000000     0.000000
   21     1.000000    90.000000    -1.000000     0.000000     0.000000     0.000000     0.000000     0.000000
   22    -1.000000    90.000000    -1.000000     0.000000     0.000000     0.000000     0.000000     0.000000
   23     1.000000   180.000000     0.707107     0.000000     0.707107     0.000000     0.000000     0.000000
   24    -1.000000   180.000000     0.707107     0.000000     0.707107     0.000000     0.000000     0.000000
   25     1.000000   120.000000     0.577350    -0.577350     0.577350     0.000000     0.000000     0.000000
   26    -1.000000   120.000000     0.577350    -0.577350     0.577350     0.000000     0.000000     0.000000
   27     1.000000   120.000000    -0.577350    -0.577350     0.577350     0.000000     0.000000     0.000000
   28    -1.000000   120.000000    -0.577350    -0.577350     0.577350     0.000000     0.000000     0.000000
   29     1.000000   180.000000     1.000000     0.000000     0.000000     0.000000     0.000000     0.000000
   30    -1.000000   180.000000     1.000000     0.000000     0.000000     0.000000     0.000000     0.000000
   31     1.000000    90.000000     0.000000    -1.000000     0.000000     0.000000     0.000000     0.000000
   32    -1.000000    90.000000     0.000000    -1.000000     0.000000     0.000000     0.000000     0.000000
   33     1.000000   180.000000     0.707107     0.707107     0.000000     0.000000     0.000000     0.000000
   34    -1.000000   180.000000     0.707107     0.707107     0.000000     0.000000     0.000000     0.000000
   35     1.000000    90.000000     1.000000     0.000000     0.000000     0.000000     0.000000     0.000000
   36    -1.000000    90.000000     1.000000     0.000000     0.000000     0.000000     0.000000     0.000000
   37     1.000000   120.000000     0.577350    -0.577350    -0.577350     0.000000     0.000000     0.000000
   38    -1.000000   120.000000     0.577350    -0.577350    -0.577350     0.000000     0.000000     0.000000
   39     1.000000   180.000000     0.000000     1.000000     0.000000     0.000000     0.000000     0.000000
   40    -1.000000   180.000000     0.000000     1.000000     0.000000     0.000000     0.000000     0.000000
   41     1.000000   120.000000     0.577350     0.577350    -0.577350     0.000000     0.000000     0.000000
   42    -1.000000   120.000000     0.577350     0.577350    -0.577350     0.000000     0.000000     0.000000
   43     1.000000   180.000000     0.000000    -0.707107     0.707107     0.000000     0.000000     0.000000
   44    -1.000000   180.000000     0.000000    -0.707107     0.707107     0.000000     0.000000     0.000000
   45     1.000000   180.000000     0.707107    -0.707107     0.000000     0.000000     0.000000     0.000000
   46    -1.000000   180.000000     0.707107    -0.707107     0.000000     0.000000     0.000000     0.000000
   47     1.000000   180.000000     0.707107     0.000000    -0.707107     0.000000     0.000000     0.000000
   48    -1.000000   180.000000     0.707107     0.000000    -0.707107     0.000000     0.000000     0.000000
 
 Subroutine IBZKPT returns following result:
 ===========================================
 
 Found      4 irreducible k-points:
 
 Following reciprocal coordinates:
            Coordinates               Weight
  0.000000  0.000000  0.000000      1.000000
  0.500000  0.000000  0.000000      3.000000
  0.500000  0.500000  0.000000      3.000000
  0.500000  0.500000  0.500000      1.000000
 
 Following cartesian coordinates:
            Coordinates               Weight
  0.000000  0.000000  0.000000      1.000000
  0.034483  0.000000  0.000000      3.000000
  0.034483  0.034483  0.000000      3.000000
  0.034483  0.034483  0.034483      1.000000
 


--------------------------------------------------------------------------------------------------------




 Dimension of arrays:
   k-points           NKPTS =      4   k-points in BZ     NKDIM =      4   number of bands    NBANDS=      6
   number of dos      NEDOS =    301   number of ions     NIONS =      1
   non local maximal  LDIM  =      4   non local SUM 2l+1 LMDIM =      8
   total plane-waves  NPLWV = 262144
   max r-space proj   IRMAX =   3591   max aug-charges    IRDMAX=   1258
   dimension x,y,z NGX =    64 NGY =   64 NGZ =   64
   dimension x,y,z NGXF=   128 NGYF=  128 NGZF=  128
   support grid    NGXF=   128 NGYF=  128 NGZF=  128
   ions per type =               1
   NGX,Y,Z   is equivalent  to a cutoff of   7.34,  7.34,  7.34 a.u.
   NGXF,Y,Z  is equivalent  to a cutoff of  14.68, 14.68, 14.68 a.u.

 SYSTEM =  NiAl                                    
 POSCAR =  New structure                           

 Startparameter for this run:
   NWRITE =      2    write-flag & timer
   PREC   = normal    normal or accurate (medium, high low for compatibility)
   ISTART =      0    job   : 0-new  1-cont  2-samecut
   ICHARG =      2    charge: 1-file 2-atom 10-const
   ISPIN  =      1    spin polarized calculation?
   LNONCOLLINEAR =      F non collinear calculations
   LSORBIT =      F    spin-orbit coupling
   INIWAV =      1    electr: 0-lowe 1-rand  2-diag
   LASPH  =      F    aspherical Exc in radial PAW
   METAGGA=      F    non-selfconsistent MetaGGA calc.

 Electronic Relaxation 1
   ENCUT  =  300.0 eV  22.05 Ry    4.70 a.u.  20.48 20.48 20.48*2*pi/ulx,y,z
   ENINI  =  300.0     initial cutoff
   ENAUG  =  627.1 eV  augmentation charge cutoff
   NELM   =     60;   NELMIN=  6; NELMDL= -5     # of ELM steps 
   EDIFF  = 0.5E-05   stopping-criterion for ELM
   LREAL  =      T    real-space projection
   NLSPLINE    = F    spline interpolate recip. space projectors
   LCOMPAT=      F    compatible to vasp.4.4
   GGA_COMPAT  = T    GGA compatible to vasp.4.4-vasp.4.6
   LMAXPAW     = -100 max onsite density
   LMAXMIX     =    2 max onsite mixed and CHGCAR
   VOSKOWN=      0    Vosko Wilk Nusair interpolation
   ROPT   =   -0.00050
 Ionic relaxation
   EDIFFG = 0.5E-04   stopping-criterion for IOM
   NSW    =      0    number of steps for IOM
   NBLOCK =      1;   KBLOCK =      1    inner block; outer block 
   IBRION =     -1    ionic relax: 0-MD 1-quasi-New 2-CG
   NFREE  =      0    steps in history (QN), initial steepest desc. (CG)
   ISIF   =      2    stress and relaxation
   IWAVPR =     10    prediction:  0-non 1-charg 2-wave 3-comb
   ISYM   =      2    0-nonsym 1-usesym 2-fastsym
   LCORR  =      T    Harris-Foulkes like correction to forces

   POTIM  = 0.5000    time-step for ionic-motion
   TEIN   =    0.0    initial temperature
   TEBEG  =    0.0;   TEEND  =   0.0 temperature during run
   SMASS  =  -3.00    Nose mass-parameter (am)
   estimated Nose-frequenzy (Omega)   =  0.10E-29 period in steps =****** mass=  -0.480E-26a.u.
   SCALEE = 1.0000    scale energy and forces
   NPACO  =    256;   APACO  = 16.0  distance and # of slots for P.C.
   PSTRESS=    0.0 pullay stress

  Mass of Ions in am
   POMASS =  14.00
  Ionic Valenz
   ZVAL   =   5.00
  Atomic Wigner-Seitz radii
   RWIGS  =  -1.00
  virtual crystal weights 
   VCA    =   1.00
   NELECT =       5.0000    total number of electrons
   NUPDOWN=      -1.0000    fix difference up-down

 DOS related values:
   EMIN   =  10.00;   EMAX   =-10.00  energy-range for DOS
   EFERMI =   0.00
   ISMEAR =     0;   SIGMA  =   0.05  broadening in eV -4-tet -1-fermi 0-gaus

 Electronic relaxation 2 (details)
   IALGO  =     38    algorithm
   LDIAG  =      T    sub-space diagonalisation (order eigenvalues)
   LSUBROT=      F    optimize rotation matrix (better conditioning)
   TURBO    =      0    0=normal 1=particle mesh
   IRESTART =      0    0=no restart 2=restart with 2 vectors
   NREBOOT  =      0    no. of reboots
   NMIN     =      0    reboot dimension
   EREF     =   0.00    reference energy to select bands
   IMIX   =      4    mixing-type and parameters
     AMIX     =   0.40;   BMIX     =  1.00
     AMIX_MAG =   1.60;   BMIX_MAG =  1.00
     AMIN     =   0.10
     WC   =   100.;   INIMIX=   1;  MIXPRE=   1;  MAXMIX= -45

 Intra band minimization:
   WEIMIN = 0.0000     energy-eigenvalue tresh-hold
   EBREAK =  0.21E-06  absolut break condition
   DEPER  =   0.30     relativ break condition  

   TIME   =   0.40     timestep for ELM

  volume/ion in A,a.u.               =    3048.62     20573.14
  Fermi-wavevector in a.u.,A,eV,Ry     =   0.193062  0.364834  0.507129  0.037273
  Thomas-Fermi vector in A             =   0.936920
 
 Write flags
   LWAVE        =      F    write WAVECAR
   LDOWNSAMPLE  =      F    k-point downsampling of WAVECAR
   LCHARG       =      F    write CHGCAR
   LVTOT        =      F    write LOCPOT, total local potential
   LVHAR        =      F    write LOCPOT, Hartree potential only
   LELF         =      F    write electronic localiz. function (ELF)
   LORBIT       =      0    0 simple, 1 ext, 2 COOP (PROOUT), +10 PAW based schemes


 Dipole corrections
   LMONO  =      F    monopole corrections only (constant potential shift)
   LDIPOL =      F    correct potential (dipole corrections)
   IDIPOL =      0    1-x, 2-y, 3-z, 4-all directions 
   EPSILON=  1.0000000 bulk dielectric constant

 Exchange correlation treatment:
   GGA     =    --    GGA type
   LEXCH   =     8    internal setting for exchange type
   VOSKOWN=      0    Vosko Wilk Nusair interpolation
   LHFCALC =     F    Hartree Fock is set to
   LHFONE  =     F    Hartree Fock one center treatment
   AEXX    =    0.0000 exact exchange contribution

 Linear response parameters
   LEPSILON=     F    determine dielectric tensor
   LRPA    =     F    only Hartree local field effects (RPA)
   LNABLA  =     F    use nabla operator in PAW spheres
   LVEL    =     F    velocity operator in full k-point grid
   LINTERFAST=   F  fast interpolation
   KINTER  =     0    interpolate to denser k-point grid
   CSHIFT  =0.1000    complex shift for real part using Kramers Kronig
   OMEGAMAX=  -1.0    maximum frequency
   DEG_THRESHOLD= 0.2000000E-02 threshold for treating states as degnerate
   RTIME   =   -0.100 relaxation time in fs
  (WPLASMAI=    0.000 imaginary part of plasma frequency in eV, 0.658/RTIME)
   DFIELD  = 0.0000000 0.0000000 0.0000000 field for delta impulse in time
 
 Orbital magnetization related:
   ORBITALMAG=     F  switch on orbital magnetization
   LCHIMAG   =     F  perturbation theory with respect to B field
   DQ        =  0.001000  dq finite difference perturbation B field
   LLRAUG    =     F  two centre corrections for induced B field



--------------------------------------------------------------------------------------------------------


 Static calculation
 charge density and potential will be updated during run
 non-spin polarized calculation
 Variant of blocked Davidson
 Davidson routine will perform the subspace rotation
 perform sub-space diagonalisation
    after iterative eigenvector-optimisation
 modified Broyden-mixing scheme, WC =      100.0
 initial mixing is a Kerker type mixing with AMIX =  0.4000 and BMIX =      1.0000
 Hartree-type preconditioning will be used
 using additional bands            3
 real space projection scheme for non local part
 use partial core corrections
 calculate Harris-corrections to forces 
   (improved forces if not selfconsistent)
 use gradient corrections 
 use of overlap-Matrix (Vanderbilt PP)
 Gauss-broadening in eV      SIGMA  =   0.05


--------------------------------------------------------------------------------------------------------


  energy-cutoff  :      300.00
  volume of cell :     3048.62
      direct lattice vectors                 reciprocal lattice vectors
    14.500000000  0.000000000  0.000000000     0.068965517  0.000000000  0.000000000
     0.000000000 14.500000000  0.000000000     0.000000000  0.068965517  0.000000000
     0.000000000  0.000000000 14.500000000     0.000000000  0.000000000  0.068965517

  length of vectors
    14.500000000 14.500000000 14.500000000     0.068965517  0.068965517  0.068965517


 
 k-points in units of 2pi/SCALE and weight: Automatic generation                    
   0.00000000  0.00000000  0.00000000       0.125
   0.03448276  0.00000000  0.00000000       0.375
   0.03448276  0.03448276  0.00000000       0.375
   0.03448276  0.03448276  0.03448276       0.125
 
 k-points in reciprocal lattice and weights: Automatic generation                    
   0.00000000  0.00000000  0.00000000       0.125
   0.50000000  0.00000000  0.00000000       0.375
   0.50000000  0.50000000  0.00000000       0.375
   0.50000000  0.50000000  0.50000000       0.125
 
 position of ions in fractional coordinates (direct lattice) 
   0.00000000  0.00000000  0.00000000
 
 position of ions in cartesian coordinates  (Angst):
   0.00000000  0.00000000  0.00000000
 


--------------------------------------------------------------------------------------------------------


 k-point  1 :   0.0000 0.0000 0.0000  plane waves:   36041
 k-point  2 :   0.5000 0.0000 0.0000  plane waves:   36000
 k-point  3 :   0.5000 0.5000 0.0000  plane waves:   35952
 k-point  4 :   0.5000 0.5000 0.5000  plane waves:   35880

 maximum and minimum number of plane-waves per node :     36041    35880

 maximum number of plane-waves:     36041
 maximum index in each direction: 
   IXMAX=   20   IYMAX=   20   IZMAX=   20
   IXMIN=  -20   IYMIN=  -20   IZMIN=  -20


 serial   3D FFT for wavefunctions
 parallel 3D FFT for charge:
    minimum data exchange during FFTs selected (reduces bandwidth)


 total amount of memory used by VASP MPI-rank0    73898. kBytes
=======================================================================

   base      :      30000. kBytes
   nonlr-proj:        298. kBytes
   fftplans  :      13257. kBytes
   grid      :      28033. kBytes
   one-center:          3. kBytes
   wavefun   :       2307. kBytes
 
     INWAV:  cpu time    0.0001: real time    0.0002
 Broyden mixing: mesh for mixing (old mesh)
   NGX = 41   NGY = 41   NGZ = 41
  (NGX  =128   NGY  =128   NGZ  =128)
  gives a total of  68921 points

 initial charge density was supplied:
 charge density of overlapping atoms calculated
 number of electron       5.0000000 magnetization 
 keeping initial charge density in first step


--------------------------------------------------------------------------------------------------------


 Maximum index for non-local projection operator         3407
 Maximum index for augmentation-charges          239 (set IRDMAX)


--------------------------------------------------------------------------------------------------------


 First call to EWALD:  gamma=   0.122
 Maximum number of real-space cells 3x 3x 3
 Maximum number of reciprocal cells 3x 3x 3

    FEWALD:  cpu time    0.0018: real time    0.0599


----------------------------------------- Iteration    1(   1)  ---------------------------------------


    POTLOK:  cpu time    0.1820: real time    0.2401
    SETDIJ:  cpu time    0.0612: real time    0.1037
     EDDAV:  cpu time    0.1774: real time    0.5511
       DOS:  cpu time    0.0040: real time    0.0503
    --------------------------------------------
      LOOP:  cpu time    0.4273: real time    1.0573

 eigenvalue-minimisations  :    48
 total energy-change (2. order) : 0.2812083E+02  (-0.4403805E+02)
 number of electron       5.0000000 magnetization 
 augmentation part        5.0000000 magnetization 

 Free energy of the ion-electron system (eV)
  ---------------------------------------------------
  alpha Z        PSCENC =         0.03534248
  Ewald energy   TEWEN  =       -35.22110346
  -Hartree energ DENC   =      -187.48001222
  -exchange      EXHF   =         0.00000000
  -V(xc)+E(xc)   XCENC  =        17.59184993
  PAW double counting   =       204.93273161     -206.12371570
  entropy T*S    EENTRO =        -0.01152088
  eigenvalues    EBANDS =       -29.46310839
  atomic energy  EATOM  =       263.86036360
  Solvation  Ediel_sol  =         0.00000000
  ---------------------------------------------------
  free energy    TOTEN  =        28.12082698 eV

  energy without entropy =       28.13234786  energy(sigma->0) =       28.12658742


--------------------------------------------------------------------------------------------------------




----------------------------------------- Iteration    1(   2)  ---------------------------------------


     EDDAV:  cpu time    0.1983: real time    0.4499
       DOS:  cpu time    0.0004: real time    0.0004
    --------------------------------------------
      LOOP:  cpu time    0.2021: real time    1.1250

 eigenvalue-minimisations  :    60
 total energy-change (2. order) :-0.1055589E+02  (-0.9707736E+01)
 number of electron       5.0000000 magnetization 
 augmentation part        5.0000000 magnetization 

 Free energy of the ion-electron system (eV)
  ---------------------------------------------------
  alpha Z        PSCENC =         0.03534248
  Ewald energy   TEWEN  =       -35.22110346
  -Hartree energ DENC   =      -187.48001222
  -exchange      EXHF   =         0.00000000
  -V(xc)+E(xc)   XCENC  =        17.59184993
  PAW double counting   =       204.93273161     -206.12371570
  entropy T*S    EENTRO =        -0.00964498
  eigenvalues    EBANDS =       -40.02087205
  atomic energy  EATOM  =       263.86036360
  Solvation  Ediel_sol  =         0.00000000
  ---------------------------------------------------
  free energy    TOTEN  =        17.56493921 eV

  energy without entropy =       17.57458419  energy(sigma->0) =       17.56976170


--------------------------------------------------------------------------------------------------------




----------------------------------------- Iteration    1(   3)  ---------------------------------------


     EDDAV:  cpu time    0.2367: real time    0.4619
       DOS:  cpu time    0.0004: real time    0.0004
    --------------------------------------------
      LOOP:  cpu time    0.2407: real time    1.0703

 eigenvalue-minimisations  :    84
 total energy-change (2. order) :-0.1493615E+02  (-0.1488451E+02)
 number of electron       5.0000000 magnetization 
 augmentation part        5.0000000 magnetization 

 Free energy of the ion-electron system (eV)
  ---------------------------------------------------
  alpha Z        PSCENC =         0.03534248
  Ewald energy   TEWEN  =       -35.22110346
  -Hartree energ DENC   =      -187.48001222
  -exchange      EXHF   =         0.00000000
  -V(xc)+E(xc)   XCENC  =        17.59184993
  PAW double counting   =       204.93273161     -206.12371570
  entropy T*S    EENTRO =        -0.00002984
  eigenvalues    EBANDS =       -54.96663252
  atomic energy  EATOM  =       263.86036360
  Solvation  Ediel_sol  =         0.00000000
  ---------------------------------------------------
  free energy    TOTEN  =         2.62879388 eV

  energy without entropy =        2.62882372  energy(sigma->0) =        2.62880880


--------------------------------------------------------------------------------------------------------




----------------------------------------- Iteration    1(   4)  ---------------------------------------


     EDDAV:  cpu time    0.1758: real time    0.3875
       DOS:  cpu time    0.0004: real time    0.0004
    --------------------------------------------
      LOOP:  cpu time    0.1801: real time    1.7578

 eigenvalue-minimisations  :    48
 total energy-change (2. order) :-0.2660714E+01  (-0.2622988E+01)
 number of electron       5.0000000 magnetization 
 augmentation part        5.0000000 magnetization 

 Free energy of the ion-electron system (eV)
  ---------------------------------------------------
  alpha Z        PSCENC =         0.03534248
  Ewald energy   TEWEN  =       -35.22110346
  -Hartree energ DENC   =      -187.48001222
  -exchange      EXHF   =         0.00000000
  -V(xc)+E(xc)   XCENC  =        17.59184993
  PAW double counting   =       204.93273161     -206.12371570
  entropy T*S    EENTRO =        -0.05060859
  eigenvalues    EBANDS =       -57.57676779
  atomic energy  EATOM  =       263.86036360
  Solvation  Ediel_sol  =         0.00000000
  ---------------------------------------------------
  free energy    TOTEN  =        -0.03192013 eV

  energy without entropy =        0.01868846  energy(sigma->0) =       -0.00661584


--------------------------------------------------------------------------------------------------------




----------------------------------------- Iteration    1(   5)  ---------------------------------------


     EDDAV:  cpu time    0.1837: real time    0.4440
       DOS:  cpu time    0.0004: real time    0.0004
    CHARGE:  cpu time    0.0618: real time    0.0994
    MIXING:  cpu time    0.0091: real time    0.0601
    --------------------------------------------
      LOOP:  cpu time    0.2590: real time    1.6426

 eigenvalue-minimisations  :    48
 total energy-change (2. order) :-0.8232630E-01  (-0.5009824E-01)
 number of electron       5.0000016 magnetization 
 augmentation part        0.0980370 magnetization 

 Broyden mixing:
  rms(total) = 0.10899E+00    rms(broyden)= 0.10707E+00
  rms(prec ) = 0.11177E+00
  weight for this iteration     100.00

 Free energy of the ion-electron system (eV)
  ---------------------------------------------------
  alpha Z        PSCENC =         0.03534248
  Ewald energy   TEWEN  =       -35.22110346
  -Hartree energ DENC   =      -187.48001222
  -exchange      EXHF   =         0.00000000
  -V(xc)+E(xc)   XCENC  =        17.59184993
  PAW double counting   =       204.93273161     -206.12371570
  entropy T*S    EENTRO =        -0.08455652
  eigenvalues    EBANDS =       -57.62514615
  atomic energy  EATOM  =       263.86036360
  Solvation  Ediel_sol  =         0.00000000
  ---------------------------------------------------
  free energy    TOTEN  =        -0.11424643 eV

  energy without entropy =       -0.02968991  energy(sigma->0) =       -0.07196817


--------------------------------------------------------------------------------------------------------




----------------------------------------- Iteration    1(   6)  ---------------------------------------


    POTLOK:  cpu time    0.1725: real time    0.1730
    SETDIJ:  cpu time    0.0016: real time    0.0206
     EDDAV:  cpu time    0.2007: real time    0.4793
       DOS:  cpu time    0.0004: real time    0.0004
    CHARGE:  cpu time    0.0612: real time    0.0616
    MIXING:  cpu time    0.0088: real time    0.0177
    --------------------------------------------
      LOOP:  cpu time    0.4501: real time    2.4092

 eigenvalue-minimisations  :    60
 total energy-change (2. order) :-0.2343919E-03  (-0.7508794E-02)
 number of electron       5.0000016 magnetization 
 augmentation part        0.1014496 magnetization 

 Broyden mixing:
  rms(total) = 0.52588E-01    rms(broyden)= 0.52458E-01
  rms(prec ) = 0.53449E-01
  weight for this iteration     100.00

 eigenvalues of (default mixing * dielectric matrix)
  average eigenvalue GAMMA=   1.7859
  1.7859

 Free energy of the ion-electron system (eV)
  ---------------------------------------------------
  alpha Z        PSCENC =         0.03534248
  Ewald energy   TEWEN  =       -35.22110346
  -Hartree energ DENC   =      -186.61406735
  -exchange      EXHF   =         0.00000000
  -V(xc)+E(xc)   XCENC  =        17.53051670
  PAW double counting   =       204.63308432     -205.82829882
  entropy T*S    EENTRO =        -0.08456281
  eigenvalues    EBANDS =       -58.42575549
  atomic energy  EATOM  =       263.86036360
  Solvation  Ediel_sol  =         0.00000000
  ---------------------------------------------------
  free energy    TOTEN  =        -0.11448082 eV

  energy without entropy =       -0.02991801  energy(sigma->0) =       -0.07219941


--------------------------------------------------------------------------------------------------------




----------------------------------------- Iteration    1(   7)  ---------------------------------------


    POTLOK:  cpu time    0.1682: real time    0.1684
    SETDIJ:  cpu time    0.0016: real time    0.0095
     EDDAV:  cpu time    0.1707: real time    0.3983
       DOS:  cpu time    0.0003: real time    0.0003
    CHARGE:  cpu time    0.0609: real time    0.0614
    MIXING:  cpu time    0.0089: real time    0.0121
    --------------------------------------------
      LOOP:  cpu time    0.4153: real time    1.7115

 eigenvalue-minimisations  :    48
 total energy-change (2. order) :-0.5391084E-02  (-0.3703281E-03)
 number of electron       5.0000016 magnetization 
 augmentation part        0.1022167 magnetization 

 Broyden mixing:
  rms(total) = 0.14789E-01    rms(broyden)= 0.14774E-01
  rms(prec ) = 0.15042E-01
  weight for this iteration     100.00

 eigenvalues of (default mixing * dielectric matrix)
  average eigenvalue GAMMA=   1.8232
  1.1863  2.4602

 Free energy of the ion-electron system (eV)
  ---------------------------------------------------
  alpha Z        PSCENC =         0.03534248
  Ewald energy   TEWEN  =       -35.22110346
  -Hartree energ DENC   =      -186.37720432
  -exchange      EXHF   =         0.00000000
  -V(xc)+E(xc)   XCENC  =        17.51424056
  PAW double counting   =       204.44658630     -205.65324451
  entropy T*S    EENTRO =        -0.08456125
  eigenvalues    EBANDS =       -58.64029132
  atomic energy  EATOM  =       263.86036360
  Solvation  Ediel_sol  =         0.00000000
  ---------------------------------------------------
  free energy    TOTEN  =        -0.11987190 eV

  energy without entropy =       -0.03531066  energy(sigma->0) =       -0.07759128


--------------------------------------------------------------------------------------------------------




----------------------------------------- Iteration    1(   8)  ---------------------------------------


    POTLOK:  cpu time    0.1619: real time    0.1620
    SETDIJ:  cpu time    0.0016: real time    0.0348
     EDDAV:  cpu time    0.1617: real time    0.3748
       DOS:  cpu time    0.0004: real time    0.0004
    CHARGE:  cpu time    0.0613: real time    0.0617
    MIXING:  cpu time    0.0091: real time    0.0091
    --------------------------------------------
      LOOP:  cpu time    0.4009: real time    1.6860

 eigenvalue-minimisations  :    48
 total energy-change (2. order) :-0.1056988E-02  (-0.2138466E-04)
 number of electron       5.0000016 magnetization 
 augmentation part        0.1021869 magnetization 

 Broyden mixing:
  rms(total) = 0.17844E-02    rms(broyden)= 0.17772E-02
  rms(prec ) = 0.20319E-02
  weight for this iteration     100.00

 eigenvalues of (default mixing * dielectric matrix)
  average eigenvalue GAMMA=   1.6547
  2.5268  0.9704  1.4668

 Free energy of the ion-electron system (eV)
  ---------------------------------------------------
  alpha Z        PSCENC =         0.03534248
  Ewald energy   TEWEN  =       -35.22110346
  -Hartree energ DENC   =      -186.40611644
  -exchange      EXHF   =         0.00000000
  -V(xc)+E(xc)   XCENC  =        17.51826173
  PAW double counting   =       204.17089300     -205.38458949
  entropy T*S    EENTRO =        -0.08456112
  eigenvalues    EBANDS =       -58.60941921
  atomic energy  EATOM  =       263.86036360
  Solvation  Ediel_sol  =         0.00000000
  ---------------------------------------------------
  free energy    TOTEN  =        -0.12092889 eV

  energy without entropy =       -0.03636777  energy(sigma->0) =       -0.07864833


--------------------------------------------------------------------------------------------------------




----------------------------------------- Iteration    1(   9)  ---------------------------------------


    POTLOK:  cpu time    0.1625: real time    0.1627
    SETDIJ:  cpu time    0.0015: real time    0.0135
     EDDAV:  cpu time    0.1747: real time    0.3901
       DOS:  cpu time    0.0004: real time    0.0004
    --------------------------------------------
      LOOP:  cpu time    0.3437: real time    1.4961

 eigenvalue-minimisations  :    48
 total energy-change (2. order) :-0.1119111E-05  (-0.3548206E-05)
 number of electron       5.0000016 magnetization 
 augmentation part        0.1021869 magnetization 

 Free energy of the ion-electron system (eV)
  ---------------------------------------------------
  alpha Z        PSCENC =         0.03534248
  Ewald energy   TEWEN  =       -35.22110346
  -Hartree energ DENC   =      -186.44693436
  -exchange      EXHF   =         0.00000000
  -V(xc)+E(xc)   XCENC  =        17.52163028
  PAW double counting   =       204.11497579     -205.32943055
  entropy T*S    EENTRO =        -0.08456121
  eigenvalues    EBANDS =       -58.57121258
  atomic energy  EATOM  =       263.86036360
  Solvation  Ediel_sol  =         0.00000000
  ---------------------------------------------------
  free energy    TOTEN  =        -0.12093001 eV

  energy without entropy =       -0.03636880  energy(sigma->0) =       -0.07864940


--------------------------------------------------------------------------------------------------------




 average (electrostatic) potential at core
  the test charge radii are     0.7089
  (the norm of the test charge is              1.0000)
       1 -76.7242
 
 
 
 E-fermi :  -7.0330     XC(G=0):  -0.1930     alpha+bet : -0.0285


 k-point     1 :       0.0000    0.0000    0.0000
  band No.  band energies     occupation 
      1     -18.7361      2.00000
      2      -7.0346      1.03727
      3      -7.0346      1.03727
      4      -7.0346      1.03727
      5      -0.2432      0.00000
      6       0.3126      0.00000

 k-point     2 :       0.5000    0.0000    0.0000
  band No.  band energies     occupation 
      1     -18.7361      2.00000
      2      -7.0344      1.03168
      3      -7.0344      1.03168
      4      -7.0322      0.98292
      5      -0.1774      0.00000
      6       0.1245      0.00000

 k-point     3 :       0.5000    0.5000    0.0000
  band No.  band energies     occupation 
      1     -18.7361      2.00000
      2      -7.0339      1.02115
      3      -7.0317      0.97219
      4      -7.0317      0.97219
      5      -0.1282      0.00000
      6       0.2885      0.00000

 k-point     4 :       0.5000    0.5000    0.5000
  band No.  band energies     occupation 
      1     -18.7360      2.00000
      2      -7.0308      0.95093
      3      -7.0308      0.95093
      4      -7.0308      0.95093
      5      -0.0887      0.00000
      6       0.4225      0.00000


--------------------------------------------------------------------------------------------------------


 soft charge-density along one line, spin component           1
         0         1         2         3         4         5         6         7         8         9
 total charge-density along one line
 
 pseudopotential strength for first ion, spin component:           1
 14.284  17.160  -0.000  -0.000   0.000  -0.000  -0.000   0.000
 17.160  20.617  -0.000  -0.000   0.000  -0.000  -0.000   0.000
 -0.000  -0.000  -7.682   0.000   0.000 -10.725   0.000   0.000
 -0.000  -0.000   0.000  -7.682   0.000   0.000 -10.725   0.000
  0.000   0.000   0.000   0.000  -7.682   0.000   0.000 -10.725
 -0.000  -0.000 -10.725   0.000   0.000 -14.338   0.000   0.000
 -0.000  -0.000   0.000 -10.725   0.000   0.000 -14.338   0.000
  0.000   0.000   0.000   0.000 -10.725   0.000   0.000 -14.338
 total augmentation occupancy for first ion, spin component:           1
  3.552  -0.727   0.000   0.000   0.000   0.000   0.000   0.000
 -0.727   0.149   0.000   0.000   0.000   0.000   0.000   0.000
  0.000   0.000   0.741   0.000   0.000   0.073   0.000   0.000
  0.000   0.000   0.000   0.741   0.000   0.000   0.073   0.000
  0.000   0.000   0.000   0.000   0.741   0.000   0.000   0.073
  0.000   0.000   0.073   0.000   0.000   0.007   0.000   0.000
  0.000   0.000   0.000   0.073   0.000   0.000   0.007   0.000
  0.000   0.000   0.000   0.000   0.073   0.000   0.000   0.007


------------------------ aborting loop because EDIFF is reached ----------------------------------------


    CHARGE:  cpu time    0.0632: real time    0.0639
    FORLOC:  cpu time    0.0080: real time    0.0080
    FORNL :  cpu time    0.0605: real time    0.4126
    STRESS:  cpu time    0.2561: real time    1.2169
    FORCOR:  cpu time    0.2024: real time    0.2464
    FORHAR:  cpu time    0.0457: real time    0.0657
    MIXING:  cpu time    0.0095: real time    0.0096
    OFIELD:  cpu time    0.0002: real time    0.0152

  FORCE on cell =-STRESS in cart. coord.  units (eV):
  Direction    XX          YY          ZZ          XY          YZ          ZX
  --------------------------------------------------------------------------------------
  Alpha Z     0.03534     0.03534     0.03534
  Ewald     -11.74037   -11.74037   -11.74037     0.00000     0.00000     0.00000
  Hartree    62.15057    62.15057    62.15057    -0.00000    -0.00000    -0.00000
  E(xc)     -19.04734   -19.04734   -19.04734    -0.00000     0.00000     0.00000
  Local    -116.46913  -116.46913  -116.46913     0.00000    -0.00000    -0.00000
  n-local    -5.44321    -5.56937    -5.69612    -0.00001     0.00000    -0.00001
  augment     0.51879     0.51879     0.51879     0.00000    -0.00000     0.00000
  Kinetic    87.12674    87.58080    88.03701     0.00004    -0.00001    -0.00001
  Fock        0.00000     0.00000     0.00000     0.00000     0.00000     0.00000
  -------------------------------------------------------------------------------------
  Total      -2.54019    -2.54019    -2.54019    -0.00000     0.00000    -0.00000
  in kB      -1.33497    -1.33497    -1.33497    -0.00000     0.00000    -0.00000
  external pressure =       -1.33 kB  Pullay stress =        0.00 kB


 VOLUME and BASIS-vectors are now :
 -----------------------------------------------------------------------------
  energy-cutoff  :      300.00
  volume of cell :     3048.62
      direct lattice vectors                 reciprocal lattice vectors
    14.500000000  0.000000000  0.000000000     0.068965517  0.000000000  0.000000000
     0.000000000 14.500000000  0.000000000     0.000000000  0.068965517  0.000000000
     0.000000000  0.000000000 14.500000000     0.000000000  0.000000000  0.068965517

  length of vectors
    14.500000000 14.500000000 14.500000000     0.068965517  0.068965517  0.068965517


 FORCES acting on ions
    electron-ion (+dipol)            ewald-force                    non-local-force                 convergence-correction
 -----------------------------------------------------------------------------------------------
   0.129E-15 -.938E-16 -.207E-14   0.106E-16 0.130E-16 0.173E-17   -.163E-22 -.165E-22 -.161E-22   -.184E-13 -.208E-13 -.990E-14
 -----------------------------------------------------------------------------------------------
   0.129E-15 -.938E-16 -.207E-14   0.106E-16 0.130E-16 0.173E-17   -.163E-22 -.165E-22 -.161E-22   -.184E-13 -.208E-13 -.990E-14
 
 
 POSITION                                       TOTAL-FORCE (eV/Angst)
 -----------------------------------------------------------------------------------
      0.00000      0.00000      0.00000        -0.000000      0.000000      0.000000
 -----------------------------------------------------------------------------------
    total drift:                               -0.000000     -0.000000     -0.000000


--------------------------------------------------------------------------------------------------------



  FREE ENERGIE OF THE ION-ELECTRON SYSTEM (eV)
  ---------------------------------------------------
  free  energy   TOTEN  =        -0.12093001 eV

  energy  without entropy=       -0.03636880  energy(sigma->0) =       -0.07864940
 


--------------------------------------------------------------------------------------------------------


    POTLOK:  cpu time    0.1688: real time    1.4448


--------------------------------------------------------------------------------------------------------


     LOOP+:  cpu time    3.7468: real time   19.8445
    4ORBIT:  cpu time    0.0001: real time    0.0208

 total amount of memory used by VASP MPI-rank0    73898. kBytes
=======================================================================

   base      :      30000. kBytes
   nonlr-proj:        298. kBytes
   fftplans  :      13257. kBytes
   grid      :      28033. kBytes
   one-center:          3. kBytes
   wavefun   :       2307. kBytes
 
  
  
 General timing and accounting informations for this job:
 ========================================================
  
                  Total CPU time used (sec):        5.335
                            User time (sec):        1.798
                          System time (sec):        3.537
                         Elapsed time (sec):       25.694
  
                   Maximum memory used (kb):      349160.
                   Average memory used (kb):           0.
  
                          Minor page faults:       246221
                          Major page faults:           39
                 Voluntary context switches:         7203
