 254 254   0   0
  0.2268316E+02  0.1514622E-08  0.1514622E-08  0.2900000E-08  0.5000000E-15
  1.000000000000000E-004
  CAR 
 NiAl                                    
      5.96963031    -22.59371795  301     -0.58069690      1.00000000
    -22.594  0.0000E+00  0.0000E+00
    -22.499  0.0000E+00  0.0000E+00
    -22.403  0.0000E+00  0.0000E+00
    -22.308  0.0000E+00  0.0000E+00
    -22.213  0.0000E+00  0.0000E+00
    -22.118  0.0000E+00  0.0000E+00
    -22.022  0.0000E+00  0.0000E+00
    -21.927  0.0000E+00  0.0000E+00
    -21.832  0.0000E+00  0.0000E+00
    -21.737  0.0000E+00  0.0000E+00
    -21.642  0.0000E+00  0.0000E+00
    -21.546  0.1297E-10  0.1235E-11
    -21.451  0.1094E-03  0.1041E-04
    -21.356  0.9059E+00  0.8626E-01
    -21.261  0.1665E+02  0.1672E+01
    -21.166  0.3446E+01  0.2000E+01
    -21.070  0.2543E-02  0.2000E+01
    -20.975  0.2072E-08  0.2000E+01
    -20.880  0.0000E+00  0.2000E+01
    -20.785  0.0000E+00  0.2000E+01
    -20.689  0.0000E+00  0.2000E+01
    -20.594  0.0000E+00  0.2000E+01
    -20.499  0.0000E+00  0.2000E+01
    -20.404  0.0000E+00  0.2000E+01
    -20.309  0.0000E+00  0.2000E+01
    -20.213  0.0000E+00  0.2000E+01
    -20.118  0.0000E+00  0.2000E+01
    -20.023  0.0000E+00  0.2000E+01
    -19.928  0.0000E+00  0.2000E+01
    -19.833  0.0000E+00  0.2000E+01
    -19.737  0.0000E+00  0.2000E+01
    -19.642  0.0000E+00  0.2000E+01
    -19.547  0.0000E+00  0.2000E+01
    -19.452  0.0000E+00  0.2000E+01
    -19.357  0.0000E+00  0.2000E+01
    -19.261  0.0000E+00  0.2000E+01
    -19.166  0.0000E+00  0.2000E+01
    -19.071  0.0000E+00  0.2000E+01
    -18.976  0.0000E+00  0.2000E+01
    -18.880  0.0000E+00  0.2000E+01
    -18.785  0.0000E+00  0.2000E+01
    -18.690  0.0000E+00  0.2000E+01
    -18.595  0.0000E+00  0.2000E+01
    -18.500  0.0000E+00  0.2000E+01
    -18.404  0.0000E+00  0.2000E+01
    -18.309  0.0000E+00  0.2000E+01
    -18.214  0.0000E+00  0.2000E+01
    -18.119  0.0000E+00  0.2000E+01
    -18.024  0.0000E+00  0.2000E+01
    -17.928  0.0000E+00  0.2000E+01
    -17.833  0.0000E+00  0.2000E+01
    -17.738  0.0000E+00  0.2000E+01
    -17.643  0.0000E+00  0.2000E+01
    -17.548  0.0000E+00  0.2000E+01
    -17.452  0.0000E+00  0.2000E+01
    -17.357  0.0000E+00  0.2000E+01
    -17.262  0.0000E+00  0.2000E+01
    -17.167  0.0000E+00  0.2000E+01
    -17.071  0.0000E+00  0.2000E+01
    -16.976  0.0000E+00  0.2000E+01
    -16.881  0.0000E+00  0.2000E+01
    -16.786  0.0000E+00  0.2000E+01
    -16.691  0.0000E+00  0.2000E+01
    -16.595  0.0000E+00  0.2000E+01
    -16.500  0.0000E+00  0.2000E+01
    -16.405  0.0000E+00  0.2000E+01
    -16.310  0.0000E+00  0.2000E+01
    -16.215  0.0000E+00  0.2000E+01
    -16.119  0.0000E+00  0.2000E+01
    -16.024  0.0000E+00  0.2000E+01
    -15.929  0.0000E+00  0.2000E+01
    -15.834  0.0000E+00  0.2000E+01
    -15.739  0.0000E+00  0.2000E+01
    -15.643  0.0000E+00  0.2000E+01
    -15.548  0.0000E+00  0.2000E+01
    -15.453  0.0000E+00  0.2000E+01
    -15.358  0.0000E+00  0.2000E+01
    -15.262  0.0000E+00  0.2000E+01
    -15.167  0.0000E+00  0.2000E+01
    -15.072  0.0000E+00  0.2000E+01
    -14.977  0.0000E+00  0.2000E+01
    -14.882  0.0000E+00  0.2000E+01
    -14.786  0.0000E+00  0.2000E+01
    -14.691  0.0000E+00  0.2000E+01
    -14.596  0.0000E+00  0.2000E+01
    -14.501  0.0000E+00  0.2000E+01
    -14.406  0.0000E+00  0.2000E+01
    -14.310  0.0000E+00  0.2000E+01
    -14.215  0.0000E+00  0.2000E+01
    -14.120  0.0000E+00  0.2000E+01
    -14.025  0.0000E+00  0.2000E+01
    -13.930  0.0000E+00  0.2000E+01
    -13.834  0.0000E+00  0.2000E+01
    -13.739  0.0000E+00  0.2000E+01
    -13.644  0.0000E+00  0.2000E+01
    -13.549  0.0000E+00  0.2000E+01
    -13.453  0.0000E+00  0.2000E+01
    -13.358  0.0000E+00  0.2000E+01
    -13.263  0.0000E+00  0.2000E+01
    -13.168  0.0000E+00  0.2000E+01
    -13.073  0.0000E+00  0.2000E+01
    -12.977  0.0000E+00  0.2000E+01
    -12.882  0.0000E+00  0.2000E+01
    -12.787  0.0000E+00  0.2000E+01
    -12.692  0.0000E+00  0.2000E+01
    -12.597  0.0000E+00  0.2000E+01
    -12.501  0.0000E+00  0.2000E+01
    -12.406  0.0000E+00  0.2000E+01
    -12.311  0.0000E+00  0.2000E+01
    -12.216  0.0000E+00  0.2000E+01
    -12.120  0.0000E+00  0.2000E+01
    -12.025  0.0000E+00  0.2000E+01
    -11.930  0.0000E+00  0.2000E+01
    -11.835  0.0000E+00  0.2000E+01
    -11.740  0.0000E+00  0.2000E+01
    -11.644  0.0000E+00  0.2000E+01
    -11.549  0.0000E+00  0.2000E+01
    -11.454  0.0000E+00  0.2000E+01
    -11.359  0.0000E+00  0.2000E+01
    -11.264  0.0000E+00  0.2000E+01
    -11.168  0.0000E+00  0.2000E+01
    -11.073  0.0000E+00  0.2000E+01
    -10.978  0.0000E+00  0.2000E+01
    -10.883  0.0000E+00  0.2000E+01
    -10.788  0.0000E+00  0.2000E+01
    -10.692  0.0000E+00  0.2000E+01
    -10.597  0.0000E+00  0.2000E+01
    -10.502  0.1035E-11  0.2000E+01
    -10.407  0.2138E-04  0.2000E+01
    -10.311  0.4169E+00  0.2040E+01
    -10.216  0.1508E+02  0.3475E+01
    -10.121  0.5502E+01  0.3999E+01
    -10.026  0.9152E-02  0.4000E+01
     -9.931  0.1809E-07  0.4000E+01
     -9.835  0.0000E+00  0.4000E+01
     -9.740  0.0000E+00  0.4000E+01
     -9.645  0.0000E+00  0.4000E+01
     -9.550  0.0000E+00  0.4000E+01
     -9.455  0.0000E+00  0.4000E+01
     -9.359  0.2915E-15  0.4000E+01
     -9.264  0.6220E-07  0.4000E+01
     -9.169  0.1013E-01  0.4001E+01
     -9.074  0.2206E+01  0.4211E+01
     -8.979  0.3003E+01  0.4497E+01
     -8.883  0.2754E+01  0.4759E+01
     -8.788  0.2589E+02  0.7224E+01
     -8.693  0.2893E+01  0.7500E+01
     -8.598  0.2296E+00  0.7522E+01
     -8.502  0.4176E+01  0.7919E+01
     -8.407  0.8199E+01  0.8700E+01
     -8.312  0.3856E+02  0.1237E+02
     -8.217  0.1868E+02  0.1415E+02
     -8.122  0.2556E+02  0.1658E+02
     -8.026  0.4373E+01  0.1700E+02
     -7.931  0.1182E+01  0.1711E+02
     -7.836  0.2463E+02  0.1946E+02
     -7.741  0.6956E+01  0.2012E+02
     -7.646  0.2261E+02  0.2227E+02
     -7.550  0.2500E+02  0.2465E+02
     -7.455  0.7516E+02  0.3181E+02
     -7.360  0.7265E+01  0.3250E+02
     -7.265  0.3605E-02  0.3250E+02
     -7.170  0.2162E+01  0.3271E+02
     -7.074  0.4863E+02  0.3734E+02
     -6.979  0.7170E+02  0.4416E+02
     -6.884  0.1410E+02  0.4550E+02
     -6.789  0.2060E+02  0.4747E+02
     -6.693  0.8072E+01  0.4823E+02
     -6.598  0.2837E+02  0.5094E+02
     -6.503  0.3137E+02  0.5392E+02
     -6.408  0.3788E+02  0.5753E+02
     -6.313  0.7306E+02  0.6448E+02
     -6.217  0.4667E+02  0.6893E+02
     -6.122  0.1494E+02  0.7035E+02
     -6.027  0.5095E+02  0.7520E+02
     -5.932  0.9011E+02  0.8378E+02
     -5.837  0.6686E+02  0.9015E+02
     -5.741  0.3652E+02  0.9362E+02
     -5.646  0.8680E+01  0.9445E+02
     -5.551  0.2469E+02  0.9680E+02
     -5.456  0.6716E+02  0.1032E+03
     -5.360  0.1702E+03  0.1194E+03
     -5.265  0.5845E+02  0.1250E+03
     -5.170  0.6430E+02  0.1311E+03
     -5.075  0.1177E+03  0.1423E+03
     -4.980  0.1088E+03  0.1526E+03
     -4.884  0.5669E+02  0.1580E+03
     -4.789  0.6494E+02  0.1642E+03
     -4.694  0.2939E+03  0.1922E+03
     -4.599  0.1393E+03  0.2055E+03
     -4.504  0.2499E+03  0.2293E+03
     -4.408  0.2336E+03  0.2515E+03
     -4.313  0.3230E+03  0.2823E+03
     -4.218  0.2203E+03  0.3032E+03
     -4.123  0.2830E+03  0.3302E+03
     -4.028  0.2873E+03  0.3575E+03
     -3.932  0.4530E+03  0.4007E+03
     -3.837  0.5371E+03  0.4518E+03
     -3.742  0.4436E+03  0.4940E+03
     -3.647  0.4588E+03  0.5377E+03
     -3.551  0.4557E+03  0.5811E+03
     -3.456  0.3715E+03  0.6165E+03
     -3.361  0.3568E+03  0.6505E+03
     -3.266  0.3587E+03  0.6846E+03
     -3.171  0.5302E+03  0.7351E+03
     -3.075  0.4901E+03  0.7818E+03
     -2.980  0.3490E+03  0.8150E+03
     -2.885  0.6027E+03  0.8724E+03
     -2.790  0.5186E+03  0.9217E+03
     -2.695  0.5060E+03  0.9699E+03
     -2.599  0.5381E+03  0.1021E+04
     -2.504  0.6591E+03  0.1084E+04
     -2.409  0.7095E+03  0.1151E+04
     -2.314  0.8167E+03  0.1229E+04
     -2.219  0.9414E+03  0.1319E+04
     -2.123  0.7740E+03  0.1393E+04
     -2.028  0.8992E+03  0.1478E+04
     -1.933  0.7855E+03  0.1553E+04
     -1.838  0.5437E+03  0.1605E+04
     -1.742  0.6184E+03  0.1664E+04
     -1.647  0.5298E+03  0.1714E+04
     -1.552  0.5582E+03  0.1767E+04
     -1.457  0.7171E+03  0.1835E+04
     -1.362  0.8043E+03  0.1912E+04
     -1.266  0.5581E+03  0.1965E+04
     -1.171  0.5270E+03  0.2015E+04
     -1.076  0.7908E+03  0.2091E+04
     -0.981  0.8112E+03  0.2168E+04
     -0.886  0.7881E+03  0.2243E+04
     -0.790  0.6401E+03  0.2304E+04
     -0.695  0.9170E+03  0.2391E+04
     -0.600  0.1218E+04  0.2507E+04
     -0.505  0.9283E+03  0.2596E+04
     -0.410  0.4972E+03  0.2643E+04
     -0.314  0.2253E+03  0.2664E+04
     -0.219  0.1164E+03  0.2675E+04
     -0.124  0.1494E+03  0.2690E+04
     -0.029  0.1654E+03  0.2705E+04
      0.067  0.1044E+03  0.2715E+04
      0.162  0.3530E+02  0.2719E+04
      0.257  0.5864E+02  0.2724E+04
      0.352  0.1782E+02  0.2726E+04
      0.447  0.1392E+03  0.2739E+04
      0.543  0.7364E+02  0.2746E+04
      0.638  0.1094E+03  0.2757E+04
      0.733  0.6350E+02  0.2763E+04
      0.828  0.9097E+02  0.2771E+04
      0.923  0.1592E+03  0.2787E+04
      1.019  0.1513E+03  0.2801E+04
      1.114  0.1760E+02  0.2803E+04
      1.209  0.2724E+02  0.2805E+04
      1.304  0.1150E+03  0.2816E+04
      1.399  0.7523E+02  0.2823E+04
      1.495  0.3226E+02  0.2826E+04
      1.590  0.7811E+02  0.2834E+04
      1.685  0.9933E+02  0.2843E+04
      1.780  0.8927E+02  0.2852E+04
      1.876  0.7070E+02  0.2858E+04
      1.971  0.1142E+03  0.2869E+04
      2.066  0.4659E+02  0.2874E+04
      2.161  0.5536E+02  0.2879E+04
      2.256  0.1022E+03  0.2889E+04
      2.352  0.1161E+03  0.2900E+04
      2.447  0.5865E+02  0.2905E+04
      2.542  0.2545E+02  0.2908E+04
      2.637  0.7807E+02  0.2915E+04
      2.732  0.2307E+02  0.2917E+04
      2.828  0.7025E+01  0.2918E+04
      2.923  0.5718E+02  0.2924E+04
      3.018  0.1061E+03  0.2934E+04
      3.113  0.2263E+03  0.2955E+04
      3.209  0.1010E+03  0.2965E+04
      3.304  0.2396E+02  0.2967E+04
      3.399  0.1764E+02  0.2969E+04
      3.494  0.1038E+03  0.2979E+04
      3.589  0.5017E+02  0.2983E+04
      3.685  0.3245E+02  0.2987E+04
      3.780  0.8614E+02  0.2995E+04
      3.875  0.1123E+02  0.2996E+04
      3.970  0.2911E+02  0.2999E+04
      4.065  0.1003E+02  0.3000E+04
      4.161  0.7478E+02  0.3007E+04
      4.256  0.4954E+02  0.3011E+04
      4.351  0.3304E+02  0.3015E+04
      4.446  0.1006E+03  0.3024E+04
      4.541  0.5908E+02  0.3030E+04
      4.637  0.3531E+02  0.3033E+04
      4.732  0.2966E+02  0.3036E+04
      4.827  0.5649E+00  0.3036E+04
      4.922  0.5578E-04  0.3036E+04
      5.018  0.6526E-11  0.3036E+04
      5.113  0.0000E+00  0.3036E+04
      5.208  0.0000E+00  0.3036E+04
      5.303  0.0000E+00  0.3036E+04
      5.398  0.0000E+00  0.3036E+04
      5.494  0.0000E+00  0.3036E+04
      5.589  0.0000E+00  0.3036E+04
      5.684  0.0000E+00  0.3036E+04
      5.779  0.0000E+00  0.3036E+04
      5.874  0.0000E+00  0.3036E+04
      5.970  0.0000E+00  0.3036E+04
