  254  254    1    1
  0.2268316E+02  0.1514622E-08  0.1514622E-08  0.2900000E-08  0.5000000E-15
  1.000000000000000E-004
  CAR 
 NiAl                                    
   2530      4   1518
 
  0.0000000E+00  0.0000000E+00  0.0000000E+00  0.2500000E+00
    1      -21.295308   1.000000
    2      -10.238639   1.000000
    3       -9.066779   1.000000
    4       -8.537186   1.000000
    5       -8.160227   1.000000
    6       -8.160077   1.000000
    7       -8.160012   1.000000
    8       -8.159990   1.000000
    9       -8.159889   1.000000
   10       -8.159783   1.000000
   11       -7.710665   1.000000
   12       -7.654272   1.000000
   13       -7.654237   1.000000
   14       -7.654200   1.000000
   15       -7.654114   1.000000
   16       -7.654053   1.000000
   17       -7.654039   1.000000
   18       -6.868947   1.000000
   19       -6.868926   1.000000
   20       -6.868856   1.000000
   21       -6.868755   1.000000
   22       -6.868702   1.000000
   23       -6.868668   1.000000
   24       -6.685900   1.000000
   25       -6.524563   1.000000
   26       -6.524470   1.000000
   27       -6.524412   1.000000
   28       -6.524381   1.000000
   29       -6.524323   1.000000
   30       -6.524237   1.000000
   31       -6.104146   1.000000
   32       -6.104121   1.000000
   33       -6.104087   1.000000
   34       -6.104021   1.000000
   35       -6.104009   1.000000
   36       -6.103923   1.000000
   37       -5.903331   1.000000
   38       -5.903299   1.000000
   39       -5.903264   1.000000
   40       -5.903227   1.000000
   41       -5.903187   1.000000
   42       -5.903169   1.000000
   43       -5.902994   1.000000
   44       -5.902989   1.000000
   45       -5.902928   1.000000
   46       -5.902853   1.000000
   47       -5.902809   1.000000
   48       -5.902800   1.000000
   49       -5.789543   1.000000
   50       -5.784402   1.000000
   51       -5.675551   1.000000
   52       -5.571641   1.000000
   53       -5.571629   1.000000
   54       -5.571592   1.000000
   55       -5.571569   1.000000
   56       -5.571535   1.000000
   57       -5.571517   1.000000
   58       -5.477118   1.000000
   59       -5.477116   1.000000
   60       -5.477069   1.000000
   61       -5.477000   1.000000
   62       -5.476971   1.000000
   63       -5.476923   1.000000
   64       -5.434707   1.000000
   65       -5.124008   1.000000
   66       -5.123973   1.000000
   67       -5.123955   1.000000
   68       -5.123948   1.000000
   69       -5.123921   1.000000
   70       -5.123888   1.000000
   71       -5.040895   1.000000
   72       -4.967011   1.000000
   73       -4.966975   1.000000
   74       -4.966879   1.000000
   75       -4.966816   1.000000
   76       -4.966734   1.000000
   77       -4.966690   1.000000
   78       -4.868685   1.000000
   79       -4.793930   1.000000
   80       -4.793914   1.000000
   81       -4.793857   1.000000
   82       -4.754852   1.000000
   83       -4.754814   1.000000
   84       -4.754768   1.000000
   85       -4.754729   1.000000
   86       -4.754709   1.000000
   87       -4.754633   1.000000
   88       -4.671065   1.000000
   89       -4.671036   1.000000
   90       -4.671007   1.000000
   91       -4.670968   1.000000
   92       -4.670925   1.000000
   93       -4.670884   1.000000
   94       -4.652882   1.000000
   95       -4.652839   1.000000
   96       -4.652777   1.000000
   97       -4.560310   1.000000
   98       -4.560262   1.000000
   99       -4.560208   1.000000
  100       -4.560190   1.000000
  101       -4.560155   1.000000
  102       -4.560073   1.000000
  103       -4.560040   1.000000
  104       -4.560020   1.000000
  105       -4.559983   1.000000
  106       -4.559944   1.000000
  107       -4.559866   1.000000
  108       -4.559843   1.000000
  109       -4.517791   1.000000
  110       -4.517768   1.000000
  111       -4.517700   1.000000
  112       -4.447259   1.000000
  113       -4.447222   1.000000
  114       -4.447147   1.000000
  115       -4.412782   1.000000
  116       -4.412735   1.000000
  117       -4.412643   1.000000
  118       -4.412539   1.000000
  119       -4.412514   1.000000
  120       -4.412463   1.000000
  121       -4.356622   1.000000
  122       -4.356571   1.000000
  123       -4.356506   1.000000
  124       -4.356488   1.000000
  125       -4.356465   1.000000
  126       -4.356399   1.000000
  127       -4.356363   1.000000
  128       -4.356341   1.000000
  129       -4.356319   1.000000
  130       -4.356286   1.000000
  131       -4.356267   1.000000
  132       -4.356215   1.000000
  133       -4.345830   1.000000
  134       -4.345728   1.000000
  135       -4.345637   1.000000
  136       -4.345576   1.000000
  137       -4.345560   1.000000
  138       -4.345531   1.000000
  139       -4.345511   1.000000
  140       -4.345491   1.000000
  141       -4.345464   1.000000
  142       -4.345451   1.000000
  143       -4.345368   1.000000
  144       -4.345316   1.000000
  145       -4.299502   1.000000
  146       -4.299374   1.000000
  147       -4.299289   1.000000
  148       -4.299171   1.000000
  149       -4.299110   1.000000
  150       -4.298973   1.000000
  151       -4.263235   1.000000
  152       -4.263223   1.000000
  153       -4.263170   1.000000
  154       -4.263117   1.000000
  155       -4.263072   1.000000
  156       -4.263037   1.000000
  157       -4.242525   1.000000
  158       -4.242490   1.000000
  159       -4.242381   1.000000
  160       -4.204476   1.000000
  161       -4.204437   1.000000
  162       -4.204374   1.000000
  163       -4.204351   1.000000
  164       -4.204322   1.000000
  165       -4.204302   1.000000
  166       -4.204240   1.000000
  167       -4.204211   1.000000
  168       -4.204202   1.000000
  169       -4.204193   1.000000
  170       -4.204140   1.000000
  171       -4.204079   1.000000
  172       -4.141665   1.000000
  173       -4.141660   1.000000
  174       -4.141483   1.000000
  175       -4.113144   1.000000
  176       -4.113116   1.000000
  177       -4.113077   1.000000
  178       -4.113009   1.000000
  179       -4.112994   1.000000
  180       -4.112906   1.000000
  181       -4.034281   1.000000
  182       -4.034265   1.000000
  183       -4.034148   1.000000
  184       -4.006638   1.000000
  185       -4.006567   1.000000
  186       -4.006541   1.000000
  187       -4.006503   1.000000
  188       -4.006461   1.000000
  189       -4.006439   1.000000
  190       -4.006422   1.000000
  191       -4.006382   1.000000
  192       -4.006350   1.000000
  193       -4.006327   1.000000
  194       -4.006321   1.000000
  195       -4.006286   1.000000
  196       -3.972390   1.000000
  197       -3.972376   1.000000
  198       -3.972232   1.000000
  199       -3.908876   1.000000
  200       -3.908841   1.000000
  201       -3.908691   1.000000
  202       -3.907331   1.000000
  203       -3.907321   1.000000
  204       -3.907249   1.000000
  205       -3.907228   1.000000
  206       -3.907134   1.000000
  207       -3.907105   1.000000
  208       -3.862109   1.000000
  209       -3.861894   1.000000
  210       -3.861822   1.000000
  211       -3.861811   1.000000
  212       -3.861787   1.000000
  213       -3.861710   1.000000
  214       -3.861678   1.000000
  215       -3.861640   1.000000
  216       -3.861582   1.000000
  217       -3.861521   1.000000
  218       -3.861432   1.000000
  219       -3.861339   1.000000
  220       -3.850331   1.000000
  221       -3.850298   1.000000
  222       -3.850209   1.000000
  223       -3.850170   1.000000
  224       -3.850143   1.000000
  225       -3.849984   1.000000
  226       -3.767277   1.000000
  227       -3.767240   1.000000
  228       -3.767142   1.000000
  229       -3.767123   1.000000
  230       -3.767095   1.000000
  231       -3.767064   1.000000
  232       -3.767028   1.000000
  233       -3.767006   1.000000
  234       -3.766978   1.000000
  235       -3.766973   1.000000
  236       -3.766876   1.000000
  237       -3.766827   1.000000
  238       -3.735815   1.000000
  239       -3.735698   1.000000
  240       -3.735668   1.000000
  241       -3.735600   1.000000
  242       -3.735544   1.000000
  243       -3.735492   1.000000
  244       -3.720099   1.000000
  245       -3.719883   1.000000
  246       -3.719414   1.000000
  247       -3.719379   1.000000
  248       -3.715796   1.000000
  249       -3.715792   1.000000
  250       -3.715691   1.000000
  251       -3.715673   1.000000
  252       -3.715660   1.000000
  253       -3.715614   1.000000
  254       -3.710155   1.000000
  255       -3.710029   1.000000
  256       -3.669611   1.000000
  257       -3.669574   1.000000
  258       -3.669532   1.000000
  259       -3.669484   1.000000
  260       -3.669446   1.000000
  261       -3.669430   1.000000
  262       -3.669379   1.000000
  263       -3.669375   1.000000
  264       -3.669299   1.000000
  265       -3.669264   1.000000
  266       -3.669236   1.000000
  267       -3.669154   1.000000
  268       -3.659400   1.000000
  269       -3.659393   1.000000
  270       -3.659290   1.000000
  271       -3.610562   1.000000
  272       -3.610549   1.000000
  273       -3.610480   1.000000
  274       -3.610468   1.000000
  275       -3.610373   1.000000
  276       -3.610242   1.000000
  277       -3.603755   1.000000
  278       -3.603582   1.000000
  279       -3.603170   1.000000
  280       -3.603132   1.000000
  281       -3.583502   1.000000
  282       -3.583498   1.000000
  283       -3.567944   1.000000
  284       -3.567712   1.000000
  285       -3.567685   1.000000
  286       -3.567591   1.000000
  287       -3.567561   1.000000
  288       -3.567340   1.000000
  289       -3.556878   1.000000
  290       -3.556845   1.000000
  291       -3.556612   1.000000
  292       -3.556576   1.000000
  293       -3.551687   1.000000
  294       -3.551665   1.000000
  295       -3.485941   1.000000
  296       -3.485925   1.000000
  297       -3.485843   1.000000
  298       -3.485831   1.000000
  299       -3.480505   1.000000
  300       -3.480354   1.000000
  301       -3.480288   1.000000
  302       -3.480286   1.000000
  303       -3.480270   1.000000
  304       -3.480229   1.000000
  305       -3.480185   1.000000
  306       -3.480167   1.000000
  307       -3.480134   1.000000
  308       -3.480116   1.000000
  309       -3.480077   1.000000
  310       -3.479940   1.000000
  311       -3.433590   1.000000
  312       -3.433532   1.000000
  313       -3.433417   1.000000
  314       -3.433376   1.000000
  315       -3.433281   1.000000
  316       -3.433193   1.000000
  317       -3.398026   1.000000
  318       -3.397956   1.000000
  319       -3.397811   1.000000
  320       -3.397688   1.000000
  321       -3.397653   1.000000
  322       -3.397581   1.000000
  323       -3.394531   1.000000
  324       -3.394496   1.000000
  325       -3.394416   1.000000
  326       -3.394389   1.000000
  327       -3.394359   1.000000
  328       -3.394341   1.000000
  329       -3.394273   1.000000
  330       -3.394236   1.000000
  331       -3.394166   1.000000
  332       -3.394128   1.000000
  333       -3.394093   1.000000
  334       -3.394015   1.000000
  335       -3.378101   1.000000
  336       -3.378045   1.000000
  337       -3.377955   1.000000
  338       -3.377917   1.000000
  339       -3.377881   1.000000
  340       -3.377798   1.000000
  341       -3.283642   1.000000
  342       -3.283630   1.000000
  343       -3.283618   1.000000
  344       -3.257955   1.000000
  345       -3.257871   1.000000
  346       -3.257822   1.000000
  347       -3.257751   1.000000
  348       -3.257711   1.000000
  349       -3.257612   1.000000
  350       -3.218222   1.000000
  351       -3.218174   1.000000
  352       -3.204678   1.000000
  353       -3.204597   1.000000
  354       -3.204569   1.000000
  355       -3.204508   1.000000
  356       -3.204494   1.000000
  357       -3.204418   1.000000
  358       -3.204415   1.000000
  359       -3.204380   1.000000
  360       -3.204321   1.000000
  361       -3.204294   1.000000
  362       -3.204239   1.000000
  363       -3.204226   1.000000
  364       -3.177699   1.000000
  365       -3.177656   1.000000
  366       -3.140181   1.000000
  367       -3.140139   1.000000
  368       -3.140103   1.000000
  369       -3.140083   1.000000
  370       -3.140070   1.000000
  371       -3.140001   1.000000
  372       -3.134383   1.000000
  373       -3.134331   1.000000
  374       -3.134273   1.000000
  375       -3.134225   1.000000
  376       -3.134141   1.000000
  377       -3.134068   1.000000
  378       -3.130406   1.000000
  379       -3.130320   1.000000
  380       -3.130284   1.000000
  381       -3.130225   1.000000
  382       -3.130160   1.000000
  383       -3.130035   1.000000
  384       -3.064166   1.000000
  385       -3.064145   1.000000
  386       -3.064082   1.000000
  387       -3.064046   1.000000
  388       -3.064036   1.000000
  389       -3.064003   1.000000
  390       -3.063957   1.000000
  391       -3.063937   1.000000
  392       -3.063888   1.000000
  393       -3.063847   1.000000
  394       -3.063776   1.000000
  395       -3.063763   1.000000
  396       -3.026921   1.000000
  397       -3.026779   1.000000
  398       -3.026720   1.000000
  399       -3.026646   1.000000
  400       -3.026582   1.000000
  401       -3.026445   1.000000
  402       -2.955007   1.000000
  403       -2.954918   1.000000
  404       -2.954882   1.000000
  405       -2.954845   1.000000
  406       -2.954837   1.000000
  407       -2.954755   1.000000
  408       -2.943467   1.000000
  409       -2.943341   1.000000
  410       -2.943279   1.000000
  411       -2.943206   1.000000
  412       -2.943135   1.000000
  413       -2.943043   1.000000
  414       -2.927088   1.000000
  415       -2.927082   1.000000
  416       -2.927070   1.000000
  417       -2.927042   1.000000
  418       -2.926974   1.000000
  419       -2.926968   1.000000
  420       -2.904528   1.000000
  421       -2.904444   1.000000
  422       -2.904398   1.000000
  423       -2.904349   1.000000
  424       -2.904283   1.000000
  425       -2.904219   1.000000
  426       -2.882971   1.000000
  427       -2.882916   1.000000
  428       -2.882890   1.000000
  429       -2.882858   1.000000
  430       -2.882821   1.000000
  431       -2.882770   1.000000
  432       -2.882727   1.000000
  433       -2.882716   1.000000
  434       -2.882641   1.000000
  435       -2.882633   1.000000
  436       -2.882572   1.000000
  437       -2.882550   1.000000
  438       -2.880258   1.000000
  439       -2.880234   1.000000
  440       -2.880205   1.000000
  441       -2.880174   1.000000
  442       -2.880152   1.000000
  443       -2.880106   1.000000
  444       -2.819718   1.000000
  445       -2.819692   1.000000
  446       -2.819633   1.000000
  447       -2.816123   1.000000
  448       -2.816114   1.000000
  449       -2.816053   1.000000
  450       -2.816006   1.000000
  451       -2.815973   1.000000
  452       -2.815873   1.000000
  453       -2.809913   1.000000
  454       -2.809870   1.000000
  455       -2.809783   1.000000
  456       -2.809750   1.000000
  457       -2.809713   1.000000
  458       -2.809697   1.000000
  459       -2.809645   1.000000
  460       -2.809629   1.000000
  461       -2.809623   1.000000
  462       -2.809602   1.000000
  463       -2.809560   1.000000
  464       -2.809509   1.000000
  465       -2.758351   1.000000
  466       -2.758307   1.000000
  467       -2.757919   1.000000
  468       -2.757898   1.000000
  469       -2.725383   1.000000
  470       -2.725295   1.000000
  471       -2.725238   1.000000
  472       -2.725180   1.000000
  473       -2.725152   1.000000
  474       -2.725113   1.000000
  475       -2.722463   1.000000
  476       -2.722375   1.000000
  477       -2.722280   1.000000
  478       -2.722251   1.000000
  479       -2.722140   1.000000
  480       -2.722085   1.000000
  481       -2.717320   1.000000
  482       -2.717236   1.000000
  483       -2.717173   1.000000
  484       -2.717081   1.000000
  485       -2.717068   1.000000
  486       -2.717052   1.000000
  487       -2.702252   1.000000
  488       -2.702202   1.000000
  489       -2.702161   1.000000
  490       -2.702120   1.000000
  491       -2.702082   1.000000
  492       -2.702071   1.000000
  493       -2.702033   1.000000
  494       -2.701998   1.000000
  495       -2.701973   1.000000
  496       -2.701964   1.000000
  497       -2.701891   1.000000
  498       -2.701851   1.000000
  499       -2.695391   1.000000
  500       -2.695374   1.000000
  501       -2.665691   1.000000
  502       -2.665647   1.000000
  503       -2.665611   1.000000
  504       -2.665541   1.000000
  505       -2.665451   1.000000
  506       -2.665404   1.000000
  507       -2.632164   1.000000
  508       -2.632131   1.000000
  509       -2.632095   1.000000
  510       -2.632089   1.000000
  511       -2.632051   1.000000
  512       -2.632043   1.000000
  513       -2.627990   1.000000
  514       -2.598247   1.000000
  515       -2.598227   1.000000
  516       -2.597762   1.000000
  517       -2.597748   1.000000
  518       -2.592467   1.000000
  519       -2.592369   1.000000
  520       -2.592313   1.000000
  521       -2.592275   1.000000
  522       -2.592180   1.000000
  523       -2.592082   1.000000
  524       -2.586673   1.000000
  525       -2.540299   1.000000
  526       -2.540284   1.000000
  527       -2.540176   1.000000
  528       -2.540156   1.000000
  529       -2.540131   1.000000
  530       -2.540100   1.000000
  531       -2.540068   1.000000
  532       -2.540040   1.000000
  533       -2.540003   1.000000
  534       -2.539930   1.000000
  535       -2.539928   1.000000
  536       -2.539862   1.000000
  537       -2.529346   1.000000
  538       -2.529320   1.000000
  539       -2.529252   1.000000
  540       -2.529203   1.000000
  541       -2.529131   1.000000
  542       -2.529091   1.000000
  543       -2.527182   1.000000
  544       -2.527143   1.000000
  545       -2.527016   1.000000
  546       -2.502418   1.000000
  547       -2.502367   1.000000
  548       -2.502318   1.000000
  549       -2.491874   1.000000
  550       -2.491849   1.000000
  551       -2.491778   1.000000
  552       -2.491765   1.000000
  553       -2.491675   1.000000
  554       -2.491631   1.000000
  555       -2.474043   1.000000
  556       -2.473981   1.000000
  557       -2.473969   1.000000
  558       -2.473907   1.000000
  559       -2.473848   1.000000
  560       -2.473814   1.000000
  561       -2.462907   1.000000
  562       -2.462870   1.000000
  563       -2.462849   1.000000
  564       -2.462796   1.000000
  565       -2.462749   1.000000
  566       -2.462739   1.000000
  567       -2.462701   1.000000
  568       -2.462651   1.000000
  569       -2.462643   1.000000
  570       -2.462594   1.000000
  571       -2.462551   1.000000
  572       -2.462495   1.000000
  573       -2.458719   1.000000
  574       -2.458498   1.000000
  575       -2.438074   1.000000
  576       -2.437923   1.000000
  577       -2.416975   1.000000
  578       -2.416926   1.000000
  579       -2.416901   1.000000
  580       -2.416810   1.000000
  581       -2.416773   1.000000
  582       -2.416725   1.000000
  583       -2.416527   1.000000
  584       -2.416466   1.000000
  585       -2.416410   1.000000
  586       -2.416317   1.000000
  587       -2.416260   1.000000
  588       -2.416166   1.000000
  589       -2.391627   1.000000
  590       -2.391568   1.000000
  591       -2.391553   1.000000
  592       -2.391472   1.000000
  593       -2.391409   1.000000
  594       -2.391369   1.000000
  595       -2.386884   1.000000
  596       -2.373777   1.000000
  597       -2.373750   1.000000
  598       -2.373587   1.000000
  599       -2.372358   1.000000
  600       -2.372224   1.000000
  601       -2.372151   1.000000
  602       -2.372076   1.000000
  603       -2.371955   1.000000
  604       -2.371889   1.000000
  605       -2.367742   1.000000
  606       -2.367635   1.000000
  607       -2.367615   1.000000
  608       -2.367472   1.000000
  609       -2.367413   1.000000
  610       -2.367341   1.000000
  611       -2.361457   1.000000
  612       -2.361235   1.000000
  613       -2.303702   1.000000
  614       -2.303596   1.000000
  615       -2.303568   1.000000
  616       -2.303471   1.000000
  617       -2.303371   1.000000
  618       -2.303279   1.000000
  619       -2.302706   1.000000
  620       -2.295673   1.000000
  621       -2.295504   1.000000
  622       -2.295327   1.000000
  623       -2.295211   1.000000
  624       -2.295168   1.000000
  625       -2.270141   1.000000
  626       -2.270087   1.000000
  627       -2.270036   1.000000
  628       -2.270001   1.000000
  629       -2.269970   1.000000
  630       -2.269833   1.000000
  631       -2.268556   1.000000
  632       -2.268394   1.000000
  633       -2.268279   1.000000
  634       -2.268206   1.000000
  635       -2.268152   1.000000
  636       -2.268033   1.000000
  637       -2.248131   1.000000
  638       -2.248100   1.000000
  639       -2.248031   1.000000
  640       -2.244678   1.000000
  641       -2.244616   1.000000
  642       -2.244556   1.000000
  643       -2.235220   1.000000
  644       -2.235004   1.000000
  645       -2.214160   1.000000
  646       -2.214131   1.000000
  647       -2.214107   1.000000
  648       -2.214079   1.000000
  649       -2.214051   1.000000
  650       -2.214013   1.000000
  651       -2.213989   1.000000
  652       -2.213965   1.000000
  653       -2.213942   1.000000
  654       -2.213911   1.000000
  655       -2.213902   1.000000
  656       -2.213868   1.000000
  657       -2.203004   1.000000
  658       -2.202982   1.000000
  659       -2.202900   1.000000
  660       -2.202879   1.000000
  661       -2.202857   1.000000
  662       -2.202757   1.000000
  663       -2.200992   1.000000
  664       -2.200969   1.000000
  665       -2.200885   1.000000
  666       -2.200826   1.000000
  667       -2.200711   1.000000
  668       -2.200662   1.000000
  669       -2.196185   1.000000
  670       -2.196182   1.000000
  671       -2.195545   1.000000
  672       -2.195533   1.000000
  673       -2.160516   1.000000
  674       -2.160467   1.000000
  675       -2.160402   1.000000
  676       -2.160386   1.000000
  677       -2.160263   1.000000
  678       -2.160185   1.000000
  679       -2.149985   1.000000
  680       -2.149888   1.000000
  681       -2.149866   1.000000
  682       -2.149773   1.000000
  683       -2.149724   1.000000
  684       -2.149582   1.000000
  685       -2.137983   1.000000
  686       -2.107414   1.000000
  687       -2.107328   1.000000
  688       -2.107280   1.000000
  689       -2.107227   1.000000
  690       -2.107170   1.000000
  691       -2.107102   1.000000
  692       -2.107063   1.000000
  693       -2.107010   1.000000
  694       -2.106948   1.000000
  695       -2.106898   1.000000
  696       -2.106871   1.000000
  697       -2.106792   1.000000
  698       -2.104859   1.000000
  699       -2.104666   1.000000
  700       -2.097559   1.000000
  701       -2.097438   1.000000
  702       -2.097385   1.000000
  703       -2.097229   1.000000
  704       -2.097216   1.000000
  705       -2.097104   1.000000
  706       -2.096457   1.000000
  707       -2.096268   1.000000
  708       -2.095261   1.000000
  709       -2.095142   1.000000
  710       -2.095125   1.000000
  711       -2.095108   1.000000
  712       -2.095085   1.000000
  713       -2.095034   1.000000
  714       -2.094979   1.000000
  715       -2.094904   1.000000
  716       -2.094495   1.000000
  717       -2.094490   1.000000
  718       -2.076707   1.000000
  719       -2.076689   1.000000
  720       -2.076520   1.000000
  721       -2.076373   1.000000
  722       -2.076342   1.000000
  723       -2.076226   1.000000
  724       -2.020752   1.000000
  725       -2.020716   1.000000
  726       -2.020687   1.000000
  727       -2.020675   1.000000
  728       -2.020610   1.000000
  729       -2.020564   1.000000
  730       -2.016177   1.000000
  731       -2.016105   1.000000
  732       -2.016066   1.000000
  733       -2.016058   1.000000
  734       -2.016021   1.000000
  735       -2.015965   1.000000
  736       -2.015946   1.000000
  737       -2.015920   1.000000
  738       -2.015902   1.000000
  739       -2.015880   1.000000
  740       -2.015766   1.000000
  741       -2.015749   1.000000
  742       -1.980442   1.000000
  743       -1.980314   1.000000
  744       -1.980199   1.000000
  745       -1.980102   1.000000
  746       -1.980053   1.000000
  747       -1.979979   1.000000
  748       -1.974384   1.000000
  749       -1.974333   1.000000
  750       -1.974288   1.000000
  751       -1.974251   1.000000
  752       -1.974176   1.000000
  753       -1.974137   1.000000
  754       -1.923683   1.000000
  755       -1.923621   1.000000
  756       -1.923583   1.000000
  757       -1.923537   1.000000
  758       -1.923518   1.000000
  759       -1.923436   1.000000
  760       -1.917591   1.000000
  761       -1.917582   1.000000
  762       -1.917508   1.000000
  763       -1.917467   1.000000
  764       -1.917428   1.000000
  765       -1.917395   1.000000
  766       -1.917358   1.000000
  767       -1.917300   1.000000
  768       -1.917262   1.000000
  769       -1.917218   1.000000
  770       -1.917174   1.000000
  771       -1.917088   1.000000
  772       -1.916176   1.000000
  773       -1.916076   1.000000
  774       -1.916009   1.000000
  775       -1.915997   1.000000
  776       -1.915932   1.000000
  777       -1.915843   1.000000
  778       -1.886436   1.000000
  779       -1.886390   1.000000
  780       -1.886320   1.000000
  781       -1.878915   1.000000
  782       -1.878778   1.000000
  783       -1.878659   1.000000
  784       -1.878622   1.000000
  785       -1.878548   1.000000
  786       -1.878432   1.000000
  787       -1.858225   1.000000
  788       -1.858113   1.000000
  789       -1.857999   1.000000
  790       -1.857981   1.000000
  791       -1.857884   1.000000
  792       -1.857814   1.000000
  793       -1.834608   1.000000
  794       -1.834543   1.000000
  795       -1.834531   1.000000
  796       -1.834489   1.000000
  797       -1.834422   1.000000
  798       -1.834354   1.000000
  799       -1.824971   1.000000
  800       -1.824941   1.000000
  801       -1.824926   1.000000
  802       -1.824913   1.000000
  803       -1.824857   1.000000
  804       -1.824821   1.000000
  805       -1.797143   1.000000
  806       -1.797080   1.000000
  807       -1.797002   1.000000
  808       -1.796959   1.000000
  809       -1.796942   1.000000
  810       -1.796892   1.000000
  811       -1.796851   1.000000
  812       -1.796825   1.000000
  813       -1.796793   1.000000
  814       -1.796744   1.000000
  815       -1.796676   1.000000
  816       -1.796589   1.000000
  817       -1.756447   1.000000
  818       -1.756423   1.000000
  819       -1.756390   1.000000
  820       -1.756373   1.000000
  821       -1.756328   1.000000
  822       -1.756271   1.000000
  823       -1.756216   1.000000
  824       -1.756170   1.000000
  825       -1.756117   1.000000
  826       -1.756085   1.000000
  827       -1.756048   1.000000
  828       -1.756013   1.000000
  829       -1.749969   1.000000
  830       -1.749844   1.000000
  831       -1.749692   1.000000
  832       -1.749649   1.000000
  833       -1.749639   1.000000
  834       -1.749504   1.000000
  835       -1.747500   1.000000
  836       -1.747278   1.000000
  837       -1.747234   1.000000
  838       -1.747212   1.000000
  839       -1.747199   1.000000
  840       -1.747093   1.000000
  841       -1.742024   1.000000
  842       -1.741878   1.000000
  843       -1.741854   1.000000
  844       -1.741769   1.000000
  845       -1.741744   1.000000
  846       -1.741663   1.000000
  847       -1.727340   1.000000
  848       -1.727323   1.000000
  849       -1.727276   1.000000
  850       -1.727208   1.000000
  851       -1.727180   1.000000
  852       -1.727083   1.000000
  853       -1.713767   1.000000
  854       -1.713720   1.000000
  855       -1.713675   1.000000
  856       -1.685609   1.000000
  857       -1.685587   1.000000
  858       -1.685578   1.000000
  859       -1.685564   1.000000
  860       -1.685557   1.000000
  861       -1.685523   1.000000
  862       -1.670969   1.000000
  863       -1.670936   1.000000
  864       -1.670910   1.000000
  865       -1.669077   1.000000
  866       -1.669040   1.000000
  867       -1.669012   1.000000
  868       -1.668956   1.000000
  869       -1.668894   1.000000
  870       -1.668833   1.000000
  871       -1.620106   1.000000
  872       -1.620066   1.000000
  873       -1.620028   1.000000
  874       -1.620014   1.000000
  875       -1.619980   1.000000
  876       -1.619956   1.000000
  877       -1.619929   1.000000
  878       -1.619899   1.000000
  879       -1.619870   1.000000
  880       -1.619815   1.000000
  881       -1.619780   1.000000
  882       -1.619737   1.000000
  883       -1.605393   1.000000
  884       -1.605304   1.000000
  885       -1.605189   1.000000
  886       -1.605141   1.000000
  887       -1.605004   1.000000
  888       -1.604927   1.000000
  889       -1.575436   1.000000
  890       -1.571214   1.000000
  891       -1.571107   1.000000
  892       -1.571045   1.000000
  893       -1.570906   1.000000
  894       -1.570849   1.000000
  895       -1.570792   1.000000
  896       -1.502146   1.000000
  897       -1.502073   1.000000
  898       -1.502015   1.000000
  899       -1.501921   1.000000
  900       -1.501851   1.000000
  901       -1.501824   1.000000