 254 254   0   0
  0.2268316E+02  0.1514622E-08  0.1514622E-08  0.2900000E-08  0.5000000E-15
  1.000000000000000E-004
  CAR 
 NiAl                                    
      6.12203223    -25.67571690  301     -0.57587079      1.00000000
    -25.676  0.0000E+00  0.0000E+00
    -25.570  0.0000E+00  0.0000E+00
    -25.464  0.0000E+00  0.0000E+00
    -25.358  0.0000E+00  0.0000E+00
    -25.252  0.0000E+00  0.0000E+00
    -25.146  0.0000E+00  0.0000E+00
    -25.040  0.0000E+00  0.0000E+00
    -24.934  0.0000E+00  0.0000E+00
    -24.828  0.0000E+00  0.0000E+00
    -24.722  0.0000E+00  0.0000E+00
    -24.616  0.0000E+00  0.0000E+00
    -24.510  0.2435E-13  0.2581E-14
    -24.404  0.8528E-05  0.9039E-06
    -24.298  0.5252E+00  0.5567E-01
    -24.192  0.1572E+02  0.1722E+01
    -24.086  0.2625E+01  0.2000E+01
    -23.980  0.4210E-03  0.2000E+01
    -23.874  0.1360E-10  0.2000E+01
    -23.768  0.0000E+00  0.2000E+01
    -23.662  0.0000E+00  0.2000E+01
    -23.556  0.0000E+00  0.2000E+01
    -23.450  0.0000E+00  0.2000E+01
    -23.344  0.0000E+00  0.2000E+01
    -23.238  0.0000E+00  0.2000E+01
    -23.132  0.0000E+00  0.2000E+01
    -23.026  0.0000E+00  0.2000E+01
    -22.920  0.0000E+00  0.2000E+01
    -22.814  0.0000E+00  0.2000E+01
    -22.708  0.0000E+00  0.2000E+01
    -22.602  0.0000E+00  0.2000E+01
    -22.496  0.0000E+00  0.2000E+01
    -22.390  0.0000E+00  0.2000E+01
    -22.284  0.0000E+00  0.2000E+01
    -22.178  0.0000E+00  0.2000E+01
    -22.072  0.0000E+00  0.2000E+01
    -21.966  0.0000E+00  0.2000E+01
    -21.860  0.0000E+00  0.2000E+01
    -21.754  0.0000E+00  0.2000E+01
    -21.648  0.0000E+00  0.2000E+01
    -21.542  0.0000E+00  0.2000E+01
    -21.436  0.0000E+00  0.2000E+01
    -21.330  0.0000E+00  0.2000E+01
    -21.224  0.0000E+00  0.2000E+01
    -21.118  0.0000E+00  0.2000E+01
    -21.012  0.0000E+00  0.2000E+01
    -20.906  0.0000E+00  0.2000E+01
    -20.800  0.0000E+00  0.2000E+01
    -20.694  0.0000E+00  0.2000E+01
    -20.588  0.0000E+00  0.2000E+01
    -20.482  0.0000E+00  0.2000E+01
    -20.376  0.0000E+00  0.2000E+01
    -20.270  0.0000E+00  0.2000E+01
    -20.164  0.0000E+00  0.2000E+01
    -20.058  0.0000E+00  0.2000E+01
    -19.952  0.0000E+00  0.2000E+01
    -19.846  0.0000E+00  0.2000E+01
    -19.740  0.0000E+00  0.2000E+01
    -19.634  0.0000E+00  0.2000E+01
    -19.528  0.0000E+00  0.2000E+01
    -19.422  0.0000E+00  0.2000E+01
    -19.316  0.0000E+00  0.2000E+01
    -19.210  0.0000E+00  0.2000E+01
    -19.104  0.0000E+00  0.2000E+01
    -18.998  0.0000E+00  0.2000E+01
    -18.892  0.0000E+00  0.2000E+01
    -18.786  0.0000E+00  0.2000E+01
    -18.680  0.0000E+00  0.2000E+01
    -18.574  0.0000E+00  0.2000E+01
    -18.468  0.0000E+00  0.2000E+01
    -18.362  0.0000E+00  0.2000E+01
    -18.256  0.0000E+00  0.2000E+01
    -18.150  0.0000E+00  0.2000E+01
    -18.044  0.0000E+00  0.2000E+01
    -17.938  0.0000E+00  0.2000E+01
    -17.832  0.0000E+00  0.2000E+01
    -17.726  0.0000E+00  0.2000E+01
    -17.620  0.0000E+00  0.2000E+01
    -17.514  0.0000E+00  0.2000E+01
    -17.408  0.0000E+00  0.2000E+01
    -17.302  0.0000E+00  0.2000E+01
    -17.196  0.0000E+00  0.2000E+01
    -17.090  0.0000E+00  0.2000E+01
    -16.984  0.0000E+00  0.2000E+01
    -16.878  0.0000E+00  0.2000E+01
    -16.772  0.0000E+00  0.2000E+01
    -16.666  0.0000E+00  0.2000E+01
    -16.560  0.0000E+00  0.2000E+01
    -16.454  0.0000E+00  0.2000E+01
    -16.348  0.0000E+00  0.2000E+01
    -16.242  0.0000E+00  0.2000E+01
    -16.136  0.0000E+00  0.2000E+01
    -16.030  0.0000E+00  0.2000E+01
    -15.924  0.0000E+00  0.2000E+01
    -15.818  0.0000E+00  0.2000E+01
    -15.712  0.0000E+00  0.2000E+01
    -15.606  0.0000E+00  0.2000E+01
    -15.500  0.0000E+00  0.2000E+01
    -15.394  0.0000E+00  0.2000E+01
    -15.288  0.0000E+00  0.2000E+01
    -15.182  0.0000E+00  0.2000E+01
    -15.076  0.0000E+00  0.2000E+01
    -14.970  0.0000E+00  0.2000E+01
    -14.864  0.0000E+00  0.2000E+01
    -14.758  0.0000E+00  0.2000E+01
    -14.652  0.0000E+00  0.2000E+01
    -14.547  0.0000E+00  0.2000E+01
    -14.441  0.0000E+00  0.2000E+01
    -14.335  0.0000E+00  0.2000E+01
    -14.229  0.0000E+00  0.2000E+01
    -14.123  0.0000E+00  0.2000E+01
    -14.017  0.0000E+00  0.2000E+01
    -13.911  0.0000E+00  0.2000E+01
    -13.805  0.0000E+00  0.2000E+01
    -13.699  0.0000E+00  0.2000E+01
    -13.593  0.0000E+00  0.2000E+01
    -13.487  0.0000E+00  0.2000E+01
    -13.381  0.0000E+00  0.2000E+01
    -13.275  0.0000E+00  0.2000E+01
    -13.169  0.0000E+00  0.2000E+01
    -13.063  0.0000E+00  0.2000E+01
    -12.957  0.0000E+00  0.2000E+01
    -12.851  0.0000E+00  0.2000E+01
    -12.745  0.0000E+00  0.2000E+01
    -12.639  0.0000E+00  0.2000E+01
    -12.533  0.0000E+00  0.2000E+01
    -12.427  0.0000E+00  0.2000E+01
    -12.321  0.0000E+00  0.2000E+01
    -12.215  0.0000E+00  0.2000E+01
    -12.109  0.0000E+00  0.2000E+01
    -12.003  0.0000E+00  0.2000E+01
    -11.897  0.0000E+00  0.2000E+01
    -11.791  0.0000E+00  0.2000E+01
    -11.685  0.0000E+00  0.2000E+01
    -11.579  0.0000E+00  0.2000E+01
    -11.473  0.0000E+00  0.2000E+01
    -11.367  0.0000E+00  0.2000E+01
    -11.261  0.0000E+00  0.2000E+01
    -11.155  0.0000E+00  0.2000E+01
    -11.049  0.0000E+00  0.2000E+01
    -10.943  0.0000E+00  0.2000E+01
    -10.837  0.0000E+00  0.2000E+01
    -10.731  0.0000E+00  0.2000E+01
    -10.625  0.0000E+00  0.2000E+01
    -10.519  0.0000E+00  0.2000E+01
    -10.413  0.0000E+00  0.2000E+01
    -10.307  0.0000E+00  0.2000E+01
    -10.201  0.0000E+00  0.2000E+01
    -10.095  0.0000E+00  0.2000E+01
     -9.989  0.0000E+00  0.2000E+01
     -9.883  0.0000E+00  0.2000E+01
     -9.777  0.0000E+00  0.2000E+01
     -9.671  0.0000E+00  0.2000E+01
     -9.565  0.0000E+00  0.2000E+01
     -9.459  0.4801E-07  0.2000E+01
     -9.353  0.4173E-01  0.2004E+01
     -9.247  0.1053E+02  0.3120E+01
     -9.141  0.8338E+01  0.4004E+01
     -9.035  0.3588E+01  0.4385E+01
     -8.929  0.1156E+01  0.4507E+01
     -8.823  0.1610E+02  0.6214E+01
     -8.717  0.1211E+02  0.7498E+01
     -8.611  0.8283E-01  0.7507E+01
     -8.505  0.3625E+01  0.7891E+01
     -8.399  0.8290E+01  0.8769E+01
     -8.293  0.3890E+02  0.1289E+02
     -8.187  0.1545E+02  0.1453E+02
     -8.081  0.2276E+02  0.1694E+02
     -7.975  0.5664E+00  0.1700E+02
     -7.869  0.1253E+02  0.1833E+02
     -7.763  0.1605E+02  0.2003E+02
     -7.657  0.1621E+02  0.2175E+02
     -7.551  0.2683E+02  0.2459E+02
     -7.445  0.7312E+02  0.3234E+02
     -7.339  0.2667E+02  0.3517E+02
     -7.233  0.1247E+02  0.3649E+02
     -7.127  0.1010E+02  0.3756E+02
     -7.021  0.7641E+02  0.4566E+02
     -6.915  0.2860E+02  0.4869E+02
     -6.809  0.2451E+02  0.5129E+02
     -6.703  0.5535E+01  0.5188E+02
     -6.597  0.2831E+02  0.5488E+02
     -6.491  0.3174E+02  0.5824E+02
     -6.385  0.3778E+02  0.6225E+02
     -6.279  0.7976E+02  0.7070E+02
     -6.173  0.2228E+02  0.7306E+02
     -6.067  0.4103E+02  0.7741E+02
     -5.961  0.6025E+02  0.8380E+02
     -5.855  0.9107E+02  0.9345E+02
     -5.749  0.2225E+02  0.9581E+02
     -5.643  0.5237E+01  0.9637E+02
     -5.537  0.2558E+02  0.9908E+02
     -5.431  0.6884E+02  0.1064E+03
     -5.325  0.1515E+03  0.1224E+03
     -5.219  0.4908E+02  0.1276E+03
     -5.113  0.8498E+02  0.1366E+03
     -5.007  0.1121E+03  0.1485E+03
     -4.901  0.8215E+02  0.1572E+03
     -4.795  0.5178E+02  0.1627E+03
     -4.689  0.2764E+03  0.1920E+03
     -4.583  0.1433E+03  0.2072E+03
     -4.477  0.2491E+03  0.2336E+03
     -4.371  0.2593E+03  0.2611E+03
     -4.265  0.2943E+03  0.2923E+03
     -4.159  0.2649E+03  0.3204E+03
     -4.053  0.2399E+03  0.3458E+03
     -3.947  0.4336E+03  0.3918E+03
     -3.841  0.5243E+03  0.4473E+03
     -3.735  0.4484E+03  0.4948E+03
     -3.629  0.4555E+03  0.5431E+03
     -3.523  0.4405E+03  0.5898E+03
     -3.417  0.3772E+03  0.6298E+03
     -3.311  0.3363E+03  0.6654E+03
     -3.205  0.4434E+03  0.7124E+03
     -3.099  0.5509E+03  0.7708E+03
     -2.993  0.3452E+03  0.8074E+03
     -2.887  0.5684E+03  0.8677E+03
     -2.781  0.5249E+03  0.9233E+03
     -2.675  0.5195E+03  0.9784E+03
     -2.569  0.5409E+03  0.1036E+04
     -2.463  0.6828E+03  0.1108E+04
     -2.357  0.7586E+03  0.1188E+04
     -2.251  0.9083E+03  0.1285E+04
     -2.145  0.8090E+03  0.1371E+04
     -2.039  0.8773E+03  0.1463E+04
     -1.933  0.8121E+03  0.1550E+04
     -1.827  0.5507E+03  0.1608E+04
     -1.721  0.6119E+03  0.1673E+04
     -1.615  0.5181E+03  0.1728E+04
     -1.509  0.5807E+03  0.1789E+04
     -1.403  0.8037E+03  0.1874E+04
     -1.297  0.7067E+03  0.1949E+04
     -1.191  0.4549E+03  0.1998E+04
     -1.085  0.7796E+03  0.2080E+04
     -0.979  0.7941E+03  0.2164E+04
     -0.873  0.7791E+03  0.2247E+04
     -0.767  0.6660E+03  0.2318E+04
     -0.661  0.9957E+03  0.2423E+04
     -0.555  0.1206E+04  0.2551E+04
     -0.450  0.7026E+03  0.2625E+04
     -0.344  0.3189E+03  0.2659E+04
     -0.238  0.1306E+03  0.2673E+04
     -0.132  0.1380E+03  0.2688E+04
     -0.026  0.1634E+03  0.2705E+04
      0.080  0.9895E+02  0.2715E+04
      0.186  0.4390E+02  0.2720E+04
      0.292  0.4128E+02  0.2724E+04
      0.398  0.5460E+02  0.2730E+04
      0.504  0.1200E+03  0.2743E+04
      0.610  0.9531E+02  0.2753E+04
      0.716  0.7823E+02  0.2761E+04
      0.822  0.7889E+02  0.2770E+04
      0.928  0.1297E+03  0.2784E+04
      1.034  0.1309E+03  0.2797E+04
      1.140  0.1513E+02  0.2799E+04
      1.246  0.3549E+02  0.2803E+04
      1.352  0.1398E+03  0.2818E+04
      1.458  0.3067E+02  0.2821E+04
      1.564  0.5361E+02  0.2826E+04
      1.670  0.1045E+03  0.2838E+04
      1.776  0.8817E+02  0.2847E+04
      1.882  0.7613E+02  0.2855E+04
      1.988  0.1087E+03  0.2866E+04
      2.094  0.3622E+02  0.2870E+04
      2.200  0.8511E+02  0.2879E+04
      2.306  0.9993E+02  0.2890E+04
      2.412  0.1074E+03  0.2901E+04
      2.518  0.3966E+02  0.2906E+04
      2.624  0.7416E+02  0.2913E+04
      2.730  0.3727E+02  0.2917E+04
      2.836  0.8104E+01  0.2918E+04
      2.942  0.5795E+02  0.2924E+04
      3.048  0.1330E+03  0.2938E+04
      3.154  0.1981E+03  0.2959E+04
      3.260  0.5838E+02  0.2966E+04
      3.366  0.2425E+02  0.2968E+04
      3.472  0.5318E+02  0.2974E+04
      3.578  0.9002E+02  0.2983E+04
      3.684  0.2184E+02  0.2986E+04
      3.790  0.8672E+02  0.2995E+04
      3.896  0.1116E+02  0.2996E+04
      4.002  0.2619E+02  0.2999E+04
      4.108  0.2107E+02  0.3001E+04
      4.214  0.8534E+02  0.3010E+04
      4.320  0.2330E+02  0.3013E+04
      4.426  0.8674E+02  0.3022E+04
      4.532  0.7451E+02  0.3030E+04
      4.638  0.3497E+02  0.3033E+04
      4.744  0.2431E+02  0.3036E+04
      4.850  0.2994E+00  0.3036E+04
      4.956  0.4280E-05  0.3036E+04
      5.062  0.1205E-13  0.3036E+04
      5.168  0.0000E+00  0.3036E+04
      5.274  0.0000E+00  0.3036E+04
      5.380  0.0000E+00  0.3036E+04
      5.486  0.0000E+00  0.3036E+04
      5.592  0.0000E+00  0.3036E+04
      5.698  0.0000E+00  0.3036E+04
      5.804  0.0000E+00  0.3036E+04
      5.910  0.0000E+00  0.3036E+04
      6.016  0.0000E+00  0.3036E+04
      6.122  0.0000E+00  0.3036E+04
