  254  254    1    1
  0.2268316E+02  0.1514622E-08  0.1514622E-08  0.2900000E-08  0.5000000E-15
  1.000000000000000E-004
  CAR 
 NiAl                                    
   2530      4   1518
 
  0.0000000E+00  0.0000000E+00  0.0000000E+00  0.2500000E+00
    1      -24.230017   1.000000
    2       -9.252169   1.000000
    3       -9.060928   1.000000
    4       -8.532322   1.000000
    5       -8.155204   1.000000
    6       -8.154623   1.000000
    7       -8.154248   1.000000
    8       -8.153857   1.000000
    9       -8.153743   1.000000
   10       -8.153568   1.000000
   11       -7.711328   1.000000
   12       -7.659562   1.000000
   13       -7.648973   1.000000
   14       -7.648800   1.000000
   15       -7.648645   1.000000
   16       -7.648535   1.000000
   17       -7.648273   1.000000
   18       -7.415811   1.000000
   19       -7.327468   1.000000
   20       -6.863254   1.000000
   21       -6.863015   1.000000
   22       -6.862949   1.000000
   23       -6.862762   1.000000
   24       -6.862483   1.000000
   25       -6.855111   1.000000
   26       -6.678570   1.000000
   27       -6.518707   1.000000
   28       -6.518614   1.000000
   29       -6.518542   1.000000
   30       -6.518268   1.000000
   31       -6.518199   1.000000
   32       -6.518172   1.000000
   33       -6.098976   1.000000
   34       -6.098735   1.000000
   35       -6.098593   1.000000
   36       -6.098526   1.000000
   37       -6.098262   1.000000
   38       -6.098184   1.000000
   39       -5.927909   1.000000
   40       -5.897742   1.000000
   41       -5.897535   1.000000
   42       -5.897470   1.000000
   43       -5.897423   1.000000
   44       -5.897400   1.000000
   45       -5.897362   1.000000
   46       -5.897214   1.000000
   47       -5.897186   1.000000
   48       -5.897146   1.000000
   49       -5.897093   1.000000
   50       -5.896902   1.000000
   51       -5.779976   1.000000
   52       -5.656129   1.000000
   53       -5.566199   1.000000
   54       -5.566152   1.000000
   55       -5.566070   1.000000
   56       -5.566053   1.000000
   57       -5.566008   1.000000
   58       -5.565357   1.000000
   59       -5.471608   1.000000
   60       -5.471486   1.000000
   61       -5.471399   1.000000
   62       -5.471225   1.000000
   63       -5.471063   1.000000
   64       -5.468035   1.000000
   65       -5.118494   1.000000
   66       -5.118442   1.000000
   67       -5.118418   1.000000
   68       -5.118354   1.000000
   69       -5.118302   1.000000
   70       -5.117891   1.000000
   71       -5.033733   1.000000
   72       -4.961585   1.000000
   73       -4.961280   1.000000
   74       -4.961230   1.000000
   75       -4.960976   1.000000
   76       -4.960858   1.000000
   77       -4.950720   1.000000
   78       -4.862637   1.000000
   79       -4.788492   1.000000
   80       -4.788481   1.000000
   81       -4.788418   1.000000
   82       -4.749577   1.000000
   83       -4.749508   1.000000
   84       -4.749280   1.000000
   85       -4.749176   1.000000
   86       -4.749111   1.000000
   87       -4.747090   1.000000
   88       -4.665858   1.000000
   89       -4.665826   1.000000
   90       -4.665795   1.000000
   91       -4.665660   1.000000
   92       -4.665621   1.000000
   93       -4.665057   1.000000
   94       -4.647508   1.000000
   95       -4.647488   1.000000
   96       -4.647378   1.000000
   97       -4.555147   1.000000
   98       -4.555023   1.000000
   99       -4.554873   1.000000
  100       -4.554786   1.000000
  101       -4.554670   1.000000
  102       -4.554535   1.000000
  103       -4.554479   1.000000
  104       -4.554312   1.000000
  105       -4.554270   1.000000
  106       -4.554212   1.000000
  107       -4.554096   1.000000
  108       -4.553871   1.000000
  109       -4.512910   1.000000
  110       -4.512864   1.000000
  111       -4.512794   1.000000
  112       -4.442443   1.000000
  113       -4.442407   1.000000
  114       -4.442294   1.000000
  115       -4.407932   1.000000
  116       -4.407660   1.000000
  117       -4.407495   1.000000
  118       -4.407403   1.000000
  119       -4.407111   1.000000
  120       -4.402503   1.000000
  121       -4.351473   1.000000
  122       -4.351322   1.000000
  123       -4.351230   1.000000
  124       -4.351195   1.000000
  125       -4.351032   1.000000
  126       -4.350997   1.000000
  127       -4.350954   1.000000
  128       -4.350938   1.000000
  129       -4.350864   1.000000
  130       -4.350777   1.000000
  131       -4.350734   1.000000
  132       -4.350623   1.000000
  133       -4.340940   1.000000
  134       -4.340716   1.000000
  135       -4.340652   1.000000
  136       -4.340544   1.000000
  137       -4.340420   1.000000
  138       -4.340319   1.000000
  139       -4.340237   1.000000
  140       -4.340148   1.000000
  141       -4.339981   1.000000
  142       -4.339962   1.000000
  143       -4.339783   1.000000
  144       -4.339673   1.000000
  145       -4.294705   1.000000
  146       -4.294254   1.000000
  147       -4.294013   1.000000
  148       -4.293727   1.000000
  149       -4.293577   1.000000
  150       -4.292033   1.000000
  151       -4.258221   1.000000
  152       -4.258182   1.000000
  153       -4.258052   1.000000
  154       -4.257945   1.000000
  155       -4.257898   1.000000
  156       -4.257399   1.000000
  157       -4.237003   1.000000
  158       -4.236980   1.000000
  159       -4.236863   1.000000
  160       -4.199703   1.000000
  161       -4.199648   1.000000
  162       -4.199565   1.000000
  163       -4.199395   1.000000
  164       -4.199308   1.000000
  165       -4.199256   1.000000
  166       -4.199148   1.000000
  167       -4.199128   1.000000
  168       -4.199036   1.000000
  169       -4.198932   1.000000
  170       -4.198894   1.000000
  171       -4.198783   1.000000
  172       -4.136403   1.000000
  173       -4.136382   1.000000
  174       -4.136213   1.000000
  175       -4.108171   1.000000
  176       -4.107963   1.000000
  177       -4.107867   1.000000
  178       -4.107790   1.000000
  179       -4.107571   1.000000
  180       -4.106461   1.000000
  181       -4.029593   1.000000
  182       -4.029499   1.000000
  183       -4.029378   1.000000
  184       -4.001972   1.000000
  185       -4.001859   1.000000
  186       -4.001674   1.000000
  187       -4.001531   1.000000
  188       -4.001492   1.000000
  189       -4.001409   1.000000
  190       -4.001250   1.000000
  191       -4.001225   1.000000
  192       -4.001136   1.000000
  193       -4.001011   1.000000
  194       -4.000904   1.000000
  195       -4.000859   1.000000
  196       -3.967715   1.000000
  197       -3.967694   1.000000
  198       -3.967550   1.000000
  199       -3.904359   1.000000
  200       -3.904276   1.000000
  201       -3.904081   1.000000
  202       -3.902603   1.000000
  203       -3.902423   1.000000
  204       -3.902376   1.000000
  205       -3.902356   1.000000
  206       -3.902200   1.000000
  207       -3.901886   1.000000
  208       -3.857345   1.000000
  209       -3.857066   1.000000
  210       -3.856935   1.000000
  211       -3.856905   1.000000
  212       -3.856720   1.000000
  213       -3.856607   1.000000
  214       -3.856492   1.000000
  215       -3.856343   1.000000
  216       -3.856146   1.000000
  217       -3.856109   1.000000
  218       -3.855968   1.000000
  219       -3.855801   1.000000
  220       -3.845301   1.000000
  221       -3.845273   1.000000
  222       -3.845166   1.000000
  223       -3.845077   1.000000
  224       -3.845036   1.000000
  225       -3.844908   1.000000
  226       -3.762715   1.000000
  227       -3.762669   1.000000
  228       -3.762429   1.000000
  229       -3.762343   1.000000
  230       -3.762239   1.000000
  231       -3.762127   1.000000
  232       -3.762014   1.000000
  233       -3.761940   1.000000
  234       -3.761906   1.000000
  235       -3.761813   1.000000
  236       -3.761714   1.000000
  237       -3.761568   1.000000
  238       -3.730765   1.000000
  239       -3.730675   1.000000
  240       -3.730440   1.000000
  241       -3.730295   1.000000
  242       -3.730215   1.000000
  243       -3.729778   1.000000
  244       -3.714910   1.000000
  245       -3.714653   1.000000
  246       -3.714232   1.000000
  247       -3.714000   1.000000
  248       -3.710965   1.000000
  249       -3.710860   1.000000
  250       -3.710780   1.000000
  251       -3.710703   1.000000
  252       -3.710677   1.000000
  253       -3.710517   1.000000
  254       -3.705174   1.000000
  255       -3.704640   1.000000
  256       -3.665275   1.000000
  257       -3.665176   1.000000
  258       -3.665093   1.000000
  259       -3.665002   1.000000
  260       -3.664926   1.000000
  261       -3.664689   1.000000
  262       -3.664663   1.000000
  263       -3.664601   1.000000
  264       -3.664555   1.000000
  265       -3.664449   1.000000
  266       -3.664302   1.000000
  267       -3.664275   1.000000
  268       -3.654258   1.000000
  269       -3.654206   1.000000
  270       -3.654108   1.000000
  271       -3.605582   1.000000
  272       -3.605542   1.000000
  273       -3.605433   1.000000
  274       -3.605385   1.000000
  275       -3.605267   1.000000
  276       -3.605255   1.000000
  277       -3.598719   1.000000
  278       -3.598518   1.000000
  279       -3.598201   1.000000
  280       -3.597987   1.000000
  281       -3.578861   1.000000
  282       -3.578845   1.000000
  283       -3.563113   1.000000
  284       -3.562861   1.000000
  285       -3.562788   1.000000
  286       -3.562378   1.000000
  287       -3.562201   1.000000
  288       -3.562045   1.000000
  289       -3.551581   1.000000
  290       -3.551526   1.000000
  291       -3.550738   1.000000
  292       -3.550688   1.000000
  293       -3.546908   1.000000
  294       -3.546804   1.000000
  295       -3.481001   1.000000
  296       -3.480963   1.000000
  297       -3.480950   1.000000
  298       -3.480903   1.000000
  299       -3.475738   1.000000
  300       -3.475606   1.000000
  301       -3.475558   1.000000
  302       -3.475314   1.000000
  303       -3.475268   1.000000
  304       -3.475177   1.000000
  305       -3.475014   1.000000
  306       -3.474911   1.000000
  307       -3.474807   1.000000
  308       -3.474669   1.000000
  309       -3.474500   1.000000
  310       -3.474407   1.000000
  311       -3.428849   1.000000
  312       -3.428661   1.000000
  313       -3.428489   1.000000
  314       -3.428331   1.000000
  315       -3.428170   1.000000
  316       -3.428021   1.000000
  317       -3.393348   1.000000
  318       -3.393149   1.000000
  319       -3.392983   1.000000
  320       -3.392774   1.000000
  321       -3.392664   1.000000
  322       -3.392388   1.000000
  323       -3.389958   1.000000
  324       -3.389825   1.000000
  325       -3.389766   1.000000
  326       -3.389512   1.000000
  327       -3.389354   1.000000
  328       -3.389322   1.000000
  329       -3.389296   1.000000
  330       -3.389158   1.000000
  331       -3.389123   1.000000
  332       -3.388988   1.000000
  333       -3.388915   1.000000
  334       -3.388845   1.000000
  335       -3.373281   1.000000
  336       -3.373195   1.000000
  337       -3.373131   1.000000
  338       -3.372917   1.000000
  339       -3.372850   1.000000
  340       -3.372501   1.000000
  341       -3.278447   1.000000
  342       -3.278378   1.000000
  343       -3.278325   1.000000
  344       -3.253133   1.000000
  345       -3.252983   1.000000
  346       -3.252794   1.000000
  347       -3.252520   1.000000
  348       -3.252441   1.000000
  349       -3.252279   1.000000
  350       -3.213495   1.000000
  351       -3.213330   1.000000
  352       -3.200225   1.000000
  353       -3.200076   1.000000
  354       -3.199916   1.000000
  355       -3.199897   1.000000
  356       -3.199598   1.000000
  357       -3.199467   1.000000
  358       -3.199401   1.000000
  359       -3.199288   1.000000
  360       -3.199219   1.000000
  361       -3.199060   1.000000
  362       -3.199019   1.000000
  363       -3.198922   1.000000
  364       -3.172942   1.000000
  365       -3.172793   1.000000
  366       -3.135146   1.000000
  367       -3.135063   1.000000
  368       -3.134924   1.000000
  369       -3.134877   1.000000
  370       -3.134827   1.000000
  371       -3.134413   1.000000
  372       -3.129375   1.000000
  373       -3.129263   1.000000
  374       -3.129179   1.000000
  375       -3.128999   1.000000
  376       -3.128860   1.000000
  377       -3.128780   1.000000
  378       -3.125813   1.000000
  379       -3.125675   1.000000
  380       -3.125506   1.000000
  381       -3.125395   1.000000
  382       -3.125212   1.000000
  383       -3.124994   1.000000
  384       -3.059388   1.000000
  385       -3.059202   1.000000
  386       -3.059107   1.000000
  387       -3.059059   1.000000
  388       -3.059010   1.000000
  389       -3.058810   1.000000
  390       -3.058806   1.000000
  391       -3.058780   1.000000
  392       -3.058635   1.000000
  393       -3.058563   1.000000
  394       -3.058541   1.000000
  395       -3.058382   1.000000
  396       -3.022093   1.000000
  397       -3.021808   1.000000
  398       -3.021734   1.000000
  399       -3.021507   1.000000
  400       -3.021285   1.000000
  401       -3.021030   1.000000
  402       -2.950117   1.000000
  403       -2.949843   1.000000
  404       -2.949745   1.000000
  405       -2.949628   1.000000
  406       -2.949522   1.000000
  407       -2.949148   1.000000
  408       -2.938619   1.000000
  409       -2.938404   1.000000
  410       -2.938270   1.000000
  411       -2.938180   1.000000
  412       -2.937877   1.000000
  413       -2.936874   1.000000
  414       -2.922244   1.000000
  415       -2.922143   1.000000
  416       -2.922122   1.000000
  417       -2.922018   1.000000
  418       -2.921957   1.000000
  419       -2.921743   1.000000
  420       -2.900255   1.000000
  421       -2.899830   1.000000
  422       -2.899815   1.000000
  423       -2.899597   1.000000
  424       -2.899491   1.000000
  425       -2.898870   1.000000
  426       -2.878085   1.000000
  427       -2.877935   1.000000
  428       -2.877843   1.000000
  429       -2.877793   1.000000
  430       -2.877725   1.000000
  431       -2.877619   1.000000
  432       -2.877589   1.000000
  433       -2.877479   1.000000
  434       -2.877357   1.000000
  435       -2.877304   1.000000
  436       -2.877182   1.000000
  437       -2.877118   1.000000
  438       -2.875222   1.000000
  439       -2.875144   1.000000
  440       -2.875088   1.000000
  441       -2.874951   1.000000
  442       -2.874869   1.000000
  443       -2.874548   1.000000
  444       -2.814240   1.000000
  445       -2.814143   1.000000
  446       -2.814091   1.000000
  447       -2.811286   1.000000
  448       -2.811253   1.000000
  449       -2.811074   1.000000
  450       -2.811050   1.000000
  451       -2.810976   1.000000
  452       -2.810703   1.000000
  453       -2.805247   1.000000
  454       -2.805144   1.000000
  455       -2.804944   1.000000
  456       -2.804863   1.000000
  457       -2.804757   1.000000
  458       -2.804648   1.000000
  459       -2.804494   1.000000
  460       -2.804338   1.000000
  461       -2.804284   1.000000
  462       -2.804139   1.000000
  463       -2.804020   1.000000
  464       -2.803711   1.000000
  465       -2.753131   1.000000
  466       -2.753072   1.000000
  467       -2.752532   1.000000
  468       -2.752481   1.000000
  469       -2.720689   1.000000
  470       -2.720531   1.000000
  471       -2.720472   1.000000
  472       -2.720299   1.000000
  473       -2.720174   1.000000
  474       -2.720029   1.000000
  475       -2.717632   1.000000
  476       -2.717464   1.000000
  477       -2.717336   1.000000
  478       -2.717167   1.000000
  479       -2.716758   1.000000
  480       -2.716647   1.000000
  481       -2.712537   1.000000
  482       -2.712504   1.000000
  483       -2.712245   1.000000
  484       -2.712095   1.000000
  485       -2.712060   1.000000
  486       -2.711897   1.000000
  487       -2.697516   1.000000
  488       -2.697398   1.000000
  489       -2.697321   1.000000
  490       -2.697233   1.000000
  491       -2.697180   1.000000
  492       -2.697027   1.000000
  493       -2.696946   1.000000
  494       -2.696931   1.000000
  495       -2.696802   1.000000
  496       -2.696738   1.000000
  497       -2.696626   1.000000
  498       -2.696440   1.000000
  499       -2.690576   1.000000
  500       -2.690504   1.000000
  501       -2.661196   1.000000
  502       -2.660992   1.000000
  503       -2.660797   1.000000
  504       -2.660723   1.000000
  505       -2.660608   1.000000
  506       -2.659332   1.000000
  507       -2.626851   1.000000
  508       -2.626814   1.000000
  509       -2.626805   1.000000
  510       -2.626727   1.000000
  511       -2.626681   1.000000
  512       -2.626585   1.000000
  513       -2.622912   1.000000
  514       -2.593270   1.000000
  515       -2.593241   1.000000
  516       -2.592894   1.000000
  517       -2.592826   1.000000
  518       -2.588107   1.000000
  519       -2.587672   1.000000
  520       -2.587541   1.000000
  521       -2.587014   1.000000
  522       -2.586909   1.000000
  523       -2.586528   1.000000
  524       -2.581207   1.000000
  525       -2.535768   1.000000
  526       -2.535540   1.000000
  527       -2.535488   1.000000
  528       -2.535362   1.000000
  529       -2.535258   1.000000
  530       -2.535137   1.000000
  531       -2.535109   1.000000
  532       -2.535012   1.000000
  533       -2.534945   1.000000
  534       -2.534839   1.000000
  535       -2.534738   1.000000
  536       -2.534685   1.000000
  537       -2.524976   1.000000
  538       -2.524502   1.000000
  539       -2.524175   1.000000
  540       -2.523910   1.000000
  541       -2.523769   1.000000
  542       -2.522645   1.000000
  543       -2.522595   1.000000
  544       -2.522419   1.000000
  545       -2.522139   1.000000
  546       -2.497411   1.000000
  547       -2.497309   1.000000
  548       -2.497270   1.000000
  549       -2.487135   1.000000
  550       -2.486932   1.000000
  551       -2.486921   1.000000
  552       -2.486746   1.000000
  553       -2.486680   1.000000
  554       -2.484886   1.000000
  555       -2.469561   1.000000
  556       -2.469135   1.000000
  557       -2.469094   1.000000
  558       -2.468905   1.000000
  559       -2.468700   1.000000
  560       -2.466798   1.000000
  561       -2.458242   1.000000
  562       -2.458190   1.000000
  563       -2.458106   1.000000
  564       -2.457972   1.000000
  565       -2.457879   1.000000
  566       -2.457771   1.000000
  567       -2.457740   1.000000
  568       -2.457633   1.000000
  569       -2.457552   1.000000
  570       -2.457479   1.000000
  571       -2.457411   1.000000
  572       -2.457237   1.000000
  573       -2.453639   1.000000
  574       -2.453416   1.000000
  575       -2.433039   1.000000
  576       -2.432890   1.000000
  577       -2.412341   1.000000
  578       -2.412065   1.000000
  579       -2.411986   1.000000
  580       -2.411902   1.000000
  581       -2.411763   1.000000
  582       -2.411674   1.000000
  583       -2.411436   1.000000
  584       -2.411378   1.000000
  585       -2.411290   1.000000
  586       -2.411138   1.000000
  587       -2.410918   1.000000
  588       -2.410686   1.000000
  589       -2.386803   1.000000
  590       -2.386768   1.000000
  591       -2.386646   1.000000
  592       -2.386561   1.000000
  593       -2.386376   1.000000
  594       -2.386047   1.000000
  595       -2.381612   1.000000
  596       -2.368974   1.000000
  597       -2.368915   1.000000
  598       -2.368744   1.000000
  599       -2.367586   1.000000
  600       -2.367289   1.000000
  601       -2.367187   1.000000
  602       -2.366967   1.000000
  603       -2.366783   1.000000
  604       -2.366414   1.000000
  605       -2.362942   1.000000
  606       -2.362641   1.000000
  607       -2.362474   1.000000
  608       -2.362342   1.000000
  609       -2.362214   1.000000
  610       -2.362016   1.000000
  611       -2.357163   1.000000
  612       -2.356943   1.000000
  613       -2.299270   1.000000
  614       -2.299076   1.000000
  615       -2.298979   1.000000
  616       -2.298420   1.000000
  617       -2.298121   1.000000
  618       -2.297866   1.000000
  619       -2.297440   1.000000
  620       -2.291256   1.000000
  621       -2.291096   1.000000
  622       -2.289958   1.000000
  623       -2.289881   1.000000
  624       -2.289762   1.000000
  625       -2.265175   1.000000
  626       -2.265037   1.000000
  627       -2.264977   1.000000
  628       -2.264911   1.000000
  629       -2.264877   1.000000
  630       -2.264719   1.000000
  631       -2.263781   1.000000
  632       -2.263519   1.000000
  633       -2.263367   1.000000
  634       -2.263183   1.000000
  635       -2.262875   1.000000
  636       -2.262580   1.000000
  637       -2.243787   1.000000
  638       -2.243532   1.000000
  639       -2.243522   1.000000
  640       -2.239523   1.000000
  641       -2.239430   1.000000
  642       -2.239213   1.000000
  643       -2.229986   1.000000
  644       -2.229772   1.000000
  645       -2.209640   1.000000
  646       -2.209576   1.000000
  647       -2.209452   1.000000
  648       -2.209373   1.000000
  649       -2.209222   1.000000
  650       -2.209173   1.000000
  651       -2.209078   1.000000
  652       -2.208947   1.000000
  653       -2.208943   1.000000
  654       -2.208816   1.000000
  655       -2.208651   1.000000
  656       -2.208551   1.000000
  657       -2.198361   1.000000
  658       -2.198159   1.000000
  659       -2.198067   1.000000
  660       -2.197962   1.000000
  661       -2.197861   1.000000
  662       -2.197601   1.000000
  663       -2.196019   1.000000
  664       -2.195789   1.000000
  665       -2.195769   1.000000
  666       -2.195453   1.000000
  667       -2.195310   1.000000
  668       -2.195154   1.000000
  669       -2.192371   1.000000
  670       -2.191775   1.000000
  671       -2.190836   1.000000
  672       -2.190821   1.000000
  673       -2.155764   1.000000
  674       -2.155596   1.000000
  675       -2.155582   1.000000
  676       -2.155273   1.000000
  677       -2.155227   1.000000
  678       -2.155048   1.000000
  679       -2.145774   1.000000
  680       -2.145549   1.000000
  681       -2.145304   1.000000
  682       -2.145178   1.000000
  683       -2.145156   1.000000
  684       -2.145049   1.000000
  685       -2.130565   1.000000
  686       -2.103984   1.000000
  687       -2.103034   1.000000
  688       -2.102501   1.000000
  689       -2.102363   1.000000
  690       -2.102212   1.000000
  691       -2.102060   1.000000
  692       -2.101999   1.000000
  693       -2.101877   1.000000
  694       -2.101643   1.000000
  695       -2.101569   1.000000
  696       -2.101336   1.000000
  697       -2.101125   1.000000
  698       -2.100274   1.000000
  699       -2.100092   1.000000
  700       -2.093105   1.000000
  701       -2.092729   1.000000
  702       -2.092565   1.000000
  703       -2.092399   1.000000
  704       -2.092340   1.000000
  705       -2.092084   1.000000
  706       -2.092031   1.000000
  707       -2.091654   1.000000
  708       -2.091024   1.000000
  709       -2.090912   1.000000
  710       -2.090792   1.000000
  711       -2.090645   1.000000
  712       -2.090468   1.000000
  713       -2.090446   1.000000
  714       -2.090349   1.000000
  715       -2.090185   1.000000
  716       -2.089122   1.000000
  717       -2.089114   1.000000
  718       -2.071863   1.000000
  719       -2.071712   1.000000
  720       -2.071616   1.000000
  721       -2.071342   1.000000
  722       -2.071117   1.000000
  723       -2.070811   1.000000
  724       -2.016441   1.000000
  725       -2.015944   1.000000
  726       -2.015461   1.000000
  727       -2.015345   1.000000
  728       -2.015217   1.000000
  729       -2.014243   1.000000
  730       -2.012057   1.000000
  731       -2.011799   1.000000
  732       -2.011323   1.000000
  733       -2.011181   1.000000
  734       -2.011106   1.000000
  735       -2.011026   1.000000
  736       -2.010793   1.000000
  737       -2.010644   1.000000
  738       -2.010606   1.000000
  739       -2.010499   1.000000
  740       -2.010433   1.000000
  741       -2.010349   1.000000
  742       -1.976278   1.000000
  743       -1.976150   1.000000
  744       -1.975921   1.000000
  745       -1.975799   1.000000
  746       -1.975621   1.000000
  747       -1.975422   1.000000
  748       -1.969767   1.000000
  749       -1.969485   1.000000
  750       -1.969387   1.000000
  751       -1.969242   1.000000
  752       -1.969184   1.000000
  753       -1.968418   1.000000
  754       -1.919516   1.000000
  755       -1.919123   1.000000
  756       -1.919039   1.000000
  757       -1.918932   1.000000
  758       -1.918739   1.000000
  759       -1.918315   1.000000
  760       -1.914050   1.000000
  761       -1.913302   1.000000
  762       -1.912755   1.000000
  763       -1.912551   1.000000
  764       -1.912403   1.000000
  765       -1.912359   1.000000
  766       -1.912266   1.000000
  767       -1.912221   1.000000
  768       -1.912144   1.000000
  769       -1.911997   1.000000
  770       -1.911904   1.000000
  771       -1.911696   1.000000
  772       -1.911499   1.000000
  773       -1.911367   1.000000
  774       -1.911251   1.000000
  775       -1.910993   1.000000
  776       -1.910884   1.000000
  777       -1.910616   1.000000
  778       -1.881336   1.000000
  779       -1.881180   1.000000
  780       -1.881120   1.000000
  781       -1.873828   1.000000
  782       -1.873641   1.000000
  783       -1.873598   1.000000
  784       -1.873379   1.000000
  785       -1.873264   1.000000
  786       -1.873038   1.000000
  787       -1.853723   1.000000
  788       -1.853518   1.000000
  789       -1.853380   1.000000
  790       -1.853169   1.000000
  791       -1.853039   1.000000
  792       -1.852868   1.000000
  793       -1.829760   1.000000
  794       -1.829583   1.000000
  795       -1.829481   1.000000
  796       -1.829338   1.000000
  797       -1.829228   1.000000
  798       -1.829148   1.000000
  799       -1.821769   1.000000
  800       -1.820841   1.000000
  801       -1.820171   1.000000
  802       -1.819990   1.000000
  803       -1.819676   1.000000
  804       -1.818208   1.000000
  805       -1.793941   1.000000
  806       -1.793238   1.000000
  807       -1.792643   1.000000
  808       -1.792504   1.000000
  809       -1.792398   1.000000
  810       -1.792099   1.000000
  811       -1.791977   1.000000
  812       -1.791908   1.000000
  813       -1.791788   1.000000
  814       -1.791714   1.000000
  815       -1.791598   1.000000
  816       -1.791524   1.000000
  817       -1.753456   1.000000
  818       -1.752704   1.000000
  819       -1.752406   1.000000
  820       -1.751990   1.000000
  821       -1.751757   1.000000
  822       -1.751463   1.000000
  823       -1.751408   1.000000
  824       -1.751192   1.000000
  825       -1.751032   1.000000
  826       -1.751030   1.000000
  827       -1.750919   1.000000
  828       -1.750806   1.000000
  829       -1.745861   1.000000
  830       -1.745652   1.000000
  831       -1.745312   1.000000
  832       -1.744982   1.000000
  833       -1.744733   1.000000
  834       -1.744698   1.000000
  835       -1.742636   1.000000
  836       -1.742358   1.000000
  837       -1.742273   1.000000
  838       -1.742001   1.000000
  839       -1.741936   1.000000
  840       -1.741661   1.000000
  841       -1.737123   1.000000
  842       -1.737080   1.000000
  843       -1.736793   1.000000
  844       -1.736650   1.000000
  845       -1.736482   1.000000
  846       -1.736151   1.000000
  847       -1.722476   1.000000
  848       -1.722355   1.000000
  849       -1.722105   1.000000
  850       -1.722038   1.000000
  851       -1.721898   1.000000
  852       -1.716544   1.000000
  853       -1.708755   1.000000
  854       -1.708724   1.000000
  855       -1.708349   1.000000
  856       -1.681897   1.000000
  857       -1.681346   1.000000
  858       -1.680717   1.000000
  859       -1.680601   1.000000
  860       -1.680548   1.000000
  861       -1.679256   1.000000
  862       -1.665756   1.000000
  863       -1.665704   1.000000
  864       -1.665471   1.000000
  865       -1.664280   1.000000
  866       -1.664148   1.000000
  867       -1.664001   1.000000
  868       -1.663672   1.000000
  869       -1.663527   1.000000
  870       -1.662459   1.000000
  871       -1.615705   1.000000
  872       -1.615561   1.000000
  873       -1.615411   1.000000
  874       -1.615258   1.000000
  875       -1.615052   1.000000
  876       -1.614851   1.000000
  877       -1.614791   1.000000
  878       -1.614650   1.000000
  879       -1.614582   1.000000
  880       -1.614543   1.000000
  881       -1.614380   1.000000
  882       -1.614337   1.000000
  883       -1.600341   1.000000
  884       -1.600127   1.000000
  885       -1.600069   1.000000
  886       -1.599917   1.000000
  887       -1.599724   1.000000
  888       -1.588975   1.000000
  889       -1.566775   1.000000
  890       -1.566453   1.000000
  891       -1.566399   1.000000
  892       -1.566164   1.000000
  893       -1.566008   1.000000
  894       -1.565739   1.000000
  895       -1.561648   1.000000
  896       -1.497490   1.000000
  897       -1.497148   1.000000
  898       -1.497091   1.000000
  899       -1.496767   1.000000
  900       -1.496748   1.000000
  901       -1.496593   1.000000