   2   2   0   0
  0.1524312E+04  0.1450000E-08  0.1450000E-08  0.1450000E-08  0.5000000E-15
  1.000000000000000E-004
  CAR 
 NiAl                                    
      2.23353736    -33.18230708  301     -9.79309315      1.00000000
    -33.182  0.0000E+00  0.0000E+00
    -33.064  0.0000E+00  0.0000E+00
    -32.946  0.0000E+00  0.0000E+00
    -32.828  0.0000E+00  0.0000E+00
    -32.710  0.0000E+00  0.0000E+00
    -32.592  0.0000E+00  0.0000E+00
    -32.474  0.0000E+00  0.0000E+00
    -32.356  0.0000E+00  0.0000E+00
    -32.238  0.0000E+00  0.0000E+00
    -32.120  0.0000E+00  0.0000E+00
    -32.002  0.0000E+00  0.0000E+00
    -31.884  0.0000E+00  0.0000E+00
    -31.766  0.3946E-06  0.4658E-07
    -31.648  0.2846E+00  0.3360E-01
    -31.530  0.1475E+02  0.1775E+01
    -31.412  0.1903E+01  0.2000E+01
    -31.293  0.4475E-04  0.2000E+01
    -31.175  0.2633E-13  0.2000E+01
    -31.057  0.0000E+00  0.2000E+01
    -30.939  0.0000E+00  0.2000E+01
    -30.821  0.0000E+00  0.2000E+01
    -30.703  0.0000E+00  0.2000E+01
    -30.585  0.0000E+00  0.2000E+01
    -30.467  0.0000E+00  0.2000E+01
    -30.349  0.0000E+00  0.2000E+01
    -30.231  0.0000E+00  0.2000E+01
    -30.113  0.0000E+00  0.2000E+01
    -29.995  0.0000E+00  0.2000E+01
    -29.877  0.0000E+00  0.2000E+01
    -29.759  0.0000E+00  0.2000E+01
    -29.641  0.0000E+00  0.2000E+01
    -29.523  0.0000E+00  0.2000E+01
    -29.405  0.0000E+00  0.2000E+01
    -29.287  0.0000E+00  0.2000E+01
    -29.169  0.0000E+00  0.2000E+01
    -29.050  0.0000E+00  0.2000E+01
    -28.932  0.0000E+00  0.2000E+01
    -28.814  0.0000E+00  0.2000E+01
    -28.696  0.0000E+00  0.2000E+01
    -28.578  0.0000E+00  0.2000E+01
    -28.460  0.0000E+00  0.2000E+01
    -28.342  0.0000E+00  0.2000E+01
    -28.224  0.0000E+00  0.2000E+01
    -28.106  0.0000E+00  0.2000E+01
    -27.988  0.0000E+00  0.2000E+01
    -27.870  0.0000E+00  0.2000E+01
    -27.752  0.0000E+00  0.2000E+01
    -27.634  0.0000E+00  0.2000E+01
    -27.516  0.0000E+00  0.2000E+01
    -27.398  0.0000E+00  0.2000E+01
    -27.280  0.0000E+00  0.2000E+01
    -27.162  0.0000E+00  0.2000E+01
    -27.044  0.0000E+00  0.2000E+01
    -26.926  0.0000E+00  0.2000E+01
    -26.807  0.0000E+00  0.2000E+01
    -26.689  0.0000E+00  0.2000E+01
    -26.571  0.0000E+00  0.2000E+01
    -26.453  0.0000E+00  0.2000E+01
    -26.335  0.0000E+00  0.2000E+01
    -26.217  0.0000E+00  0.2000E+01
    -26.099  0.0000E+00  0.2000E+01
    -25.981  0.0000E+00  0.2000E+01
    -25.863  0.0000E+00  0.2000E+01
    -25.745  0.0000E+00  0.2000E+01
    -25.627  0.0000E+00  0.2000E+01
    -25.509  0.0000E+00  0.2000E+01
    -25.391  0.0000E+00  0.2000E+01
    -25.273  0.0000E+00  0.2000E+01
    -25.155  0.0000E+00  0.2000E+01
    -25.037  0.0000E+00  0.2000E+01
    -24.919  0.0000E+00  0.2000E+01
    -24.801  0.0000E+00  0.2000E+01
    -24.683  0.0000E+00  0.2000E+01
    -24.564  0.0000E+00  0.2000E+01
    -24.446  0.0000E+00  0.2000E+01
    -24.328  0.0000E+00  0.2000E+01
    -24.210  0.0000E+00  0.2000E+01
    -24.092  0.0000E+00  0.2000E+01
    -23.974  0.0000E+00  0.2000E+01
    -23.856  0.0000E+00  0.2000E+01
    -23.738  0.0000E+00  0.2000E+01
    -23.620  0.0000E+00  0.2000E+01
    -23.502  0.0000E+00  0.2000E+01
    -23.384  0.0000E+00  0.2000E+01
    -23.266  0.0000E+00  0.2000E+01
    -23.148  0.0000E+00  0.2000E+01
    -23.030  0.0000E+00  0.2000E+01
    -22.912  0.0000E+00  0.2000E+01
    -22.794  0.0000E+00  0.2000E+01
    -22.676  0.0000E+00  0.2000E+01
    -22.558  0.0000E+00  0.2000E+01
    -22.440  0.0000E+00  0.2000E+01
    -22.321  0.0000E+00  0.2000E+01
    -22.203  0.0000E+00  0.2000E+01
    -22.085  0.0000E+00  0.2000E+01
    -21.967  0.0000E+00  0.2000E+01
    -21.849  0.0000E+00  0.2000E+01
    -21.731  0.0000E+00  0.2000E+01
    -21.613  0.0000E+00  0.2000E+01
    -21.495  0.0000E+00  0.2000E+01
    -21.377  0.0000E+00  0.2000E+01
    -21.259  0.0000E+00  0.2000E+01
    -21.141  0.0000E+00  0.2000E+01
    -21.023  0.0000E+00  0.2000E+01
    -20.905  0.0000E+00  0.2000E+01
    -20.787  0.0000E+00  0.2000E+01
    -20.669  0.0000E+00  0.2000E+01
    -20.551  0.0000E+00  0.2000E+01
    -20.433  0.0000E+00  0.2000E+01
    -20.315  0.0000E+00  0.2000E+01
    -20.196  0.0000E+00  0.2000E+01
    -20.078  0.0000E+00  0.2000E+01
    -19.960  0.0000E+00  0.2000E+01
    -19.842  0.0000E+00  0.2000E+01
    -19.724  0.0000E+00  0.2000E+01
    -19.606  0.0000E+00  0.2000E+01
    -19.488  0.0000E+00  0.2000E+01
    -19.370  0.0000E+00  0.2000E+01
    -19.252  0.0000E+00  0.2000E+01
    -19.134  0.0000E+00  0.2000E+01
    -19.016  0.0000E+00  0.2000E+01
    -18.898  0.0000E+00  0.2000E+01
    -18.780  0.0000E+00  0.2000E+01
    -18.662  0.0000E+00  0.2000E+01
    -18.544  0.0000E+00  0.2000E+01
    -18.426  0.0000E+00  0.2000E+01
    -18.308  0.0000E+00  0.2000E+01
    -18.190  0.0000E+00  0.2000E+01
    -18.072  0.0000E+00  0.2000E+01
    -17.953  0.0000E+00  0.2000E+01
    -17.835  0.0000E+00  0.2000E+01
    -17.717  0.0000E+00  0.2000E+01
    -17.599  0.0000E+00  0.2000E+01
    -17.481  0.0000E+00  0.2000E+01
    -17.363  0.0000E+00  0.2000E+01
    -17.245  0.0000E+00  0.2000E+01
    -17.127  0.0000E+00  0.2000E+01
    -17.009  0.0000E+00  0.2000E+01
    -16.891  0.0000E+00  0.2000E+01
    -16.773  0.0000E+00  0.2000E+01
    -16.655  0.0000E+00  0.2000E+01
    -16.537  0.0000E+00  0.2000E+01
    -16.419  0.0000E+00  0.2000E+01
    -16.301  0.0000E+00  0.2000E+01
    -16.183  0.0000E+00  0.2000E+01
    -16.065  0.0000E+00  0.2000E+01
    -15.947  0.0000E+00  0.2000E+01
    -15.829  0.0000E+00  0.2000E+01
    -15.710  0.0000E+00  0.2000E+01
    -15.592  0.0000E+00  0.2000E+01
    -15.474  0.0000E+00  0.2000E+01
    -15.356  0.0000E+00  0.2000E+01
    -15.238  0.0000E+00  0.2000E+01
    -15.120  0.0000E+00  0.2000E+01
    -15.002  0.0000E+00  0.2000E+01
    -14.884  0.0000E+00  0.2000E+01
    -14.766  0.0000E+00  0.2000E+01
    -14.648  0.0000E+00  0.2000E+01
    -14.530  0.0000E+00  0.2000E+01
    -14.412  0.0000E+00  0.2000E+01
    -14.294  0.0000E+00  0.2000E+01
    -14.176  0.0000E+00  0.2000E+01
    -14.058  0.0000E+00  0.2000E+01
    -13.940  0.3195E-05  0.2000E+01
    -13.822  0.1039E+01  0.2123E+01
    -13.704  0.3044E+02  0.5716E+01
    -13.586  0.2408E+01  0.6000E+01
    -13.467  0.2597E-04  0.6000E+01
    -13.349  0.0000E+00  0.6000E+01
    -13.231  0.0000E+00  0.6000E+01
    -13.113  0.0000E+00  0.6000E+01
    -12.995  0.0000E+00  0.6000E+01
    -12.877  0.0000E+00  0.6000E+01
    -12.759  0.0000E+00  0.6000E+01
    -12.641  0.0000E+00  0.6000E+01
    -12.523  0.0000E+00  0.6000E+01
    -12.405  0.0000E+00  0.6000E+01
    -12.287  0.1943E-10  0.6000E+01
    -12.169  0.2004E-02  0.6000E+01
    -12.051  0.6232E+01  0.6736E+01
    -11.933  0.1069E+02  0.7997E+01
    -11.815  0.2274E-01  0.8000E+01
    -11.697  0.1936E-08  0.8000E+01
    -11.579  0.0000E+00  0.8000E+01
    -11.461  0.0000E+00  0.8000E+01
    -11.343  0.0000E+00  0.8000E+01
    -11.224  0.0000E+00  0.8000E+01
    -11.106  0.0000E+00  0.8000E+01
    -10.988  0.0000E+00  0.8000E+01
    -10.870  0.0000E+00  0.8000E+01
    -10.752  0.0000E+00  0.8000E+01
    -10.634  0.0000E+00  0.8000E+01
    -10.516  0.0000E+00  0.8000E+01
    -10.398  0.0000E+00  0.8000E+01
    -10.280  0.4456E-10  0.8000E+01
    -10.162  0.3149E-02  0.8000E+01
    -10.044  0.6991E+01  0.8826E+01
     -9.926  0.9932E+01  0.9998E+01
     -9.808  0.1539E-01  0.1000E+02
     -9.690  0.9000E-09  0.1000E+02
     -9.572  0.0000E+00  0.1000E+02
     -9.454  0.0000E+00  0.1000E+02
     -9.336  0.0000E+00  0.1000E+02
     -9.218  0.0000E+00  0.1000E+02
     -9.100  0.0000E+00  0.1000E+02
     -8.981  0.0000E+00  0.1000E+02
     -8.863  0.0000E+00  0.1000E+02
     -8.745  0.0000E+00  0.1000E+02
     -8.627  0.0000E+00  0.1000E+02
     -8.509  0.0000E+00  0.1000E+02
     -8.391  0.0000E+00  0.1000E+02
     -8.273  0.0000E+00  0.1000E+02
     -8.155  0.0000E+00  0.1000E+02
     -8.037  0.0000E+00  0.1000E+02
     -7.919  0.0000E+00  0.1000E+02
     -7.801  0.0000E+00  0.1000E+02
     -7.683  0.0000E+00  0.1000E+02
     -7.565  0.0000E+00  0.1000E+02
     -7.447  0.0000E+00  0.1000E+02
     -7.329  0.0000E+00  0.1000E+02
     -7.211  0.0000E+00  0.1000E+02
     -7.093  0.0000E+00  0.1000E+02
     -6.975  0.0000E+00  0.1000E+02
     -6.857  0.0000E+00  0.1000E+02
     -6.738  0.0000E+00  0.1000E+02
     -6.620  0.0000E+00  0.1000E+02
     -6.502  0.0000E+00  0.1000E+02
     -6.384  0.0000E+00  0.1000E+02
     -6.266  0.0000E+00  0.1000E+02
     -6.148  0.0000E+00  0.1000E+02
     -6.030  0.0000E+00  0.1000E+02
     -5.912  0.0000E+00  0.1000E+02
     -5.794  0.0000E+00  0.1000E+02
     -5.676  0.0000E+00  0.1000E+02
     -5.558  0.0000E+00  0.1000E+02
     -5.440  0.0000E+00  0.1000E+02
     -5.322  0.0000E+00  0.1000E+02
     -5.204  0.0000E+00  0.1000E+02
     -5.086  0.0000E+00  0.1000E+02
     -4.968  0.0000E+00  0.1000E+02
     -4.850  0.0000E+00  0.1000E+02
     -4.732  0.0000E+00  0.1000E+02
     -4.614  0.0000E+00  0.1000E+02
     -4.495  0.0000E+00  0.1000E+02
     -4.377  0.0000E+00  0.1000E+02
     -4.259  0.0000E+00  0.1000E+02
     -4.141  0.0000E+00  0.1000E+02
     -4.023  0.0000E+00  0.1000E+02
     -3.905  0.0000E+00  0.1000E+02
     -3.787  0.0000E+00  0.1000E+02
     -3.669  0.0000E+00  0.1000E+02
     -3.551  0.0000E+00  0.1000E+02
     -3.433  0.0000E+00  0.1000E+02
     -3.315  0.0000E+00  0.1000E+02
     -3.197  0.0000E+00  0.1000E+02
     -3.079  0.0000E+00  0.1000E+02
     -2.961  0.0000E+00  0.1000E+02
     -2.843  0.0000E+00  0.1000E+02
     -2.725  0.0000E+00  0.1000E+02
     -2.607  0.0000E+00  0.1000E+02
     -2.489  0.0000E+00  0.1000E+02
     -2.371  0.0000E+00  0.1000E+02
     -2.252  0.0000E+00  0.1000E+02
     -2.134  0.0000E+00  0.1000E+02
     -2.016  0.0000E+00  0.1000E+02
     -1.898  0.0000E+00  0.1000E+02
     -1.780  0.0000E+00  0.1000E+02
     -1.662  0.0000E+00  0.1000E+02
     -1.544  0.0000E+00  0.1000E+02
     -1.426  0.0000E+00  0.1000E+02
     -1.308  0.0000E+00  0.1000E+02
     -1.190  0.0000E+00  0.1000E+02
     -1.072  0.0000E+00  0.1000E+02
     -0.954  0.0000E+00  0.1000E+02
     -0.836  0.0000E+00  0.1000E+02
     -0.718  0.0000E+00  0.1000E+02
     -0.600  0.0000E+00  0.1000E+02
     -0.482  0.0000E+00  0.1000E+02
     -0.364  0.5825E-06  0.1000E+02
     -0.246  0.3375E+00  0.1004E+02
     -0.128  0.1492E+02  0.1180E+02
     -0.009  0.1688E+01  0.1200E+02
      0.109  0.3208E-04  0.1200E+02
      0.227  0.5420E-08  0.1200E+02
      0.345  0.3835E-01  0.1200E+02
      0.463  0.1739E+02  0.1406E+02
      0.581  0.5263E+02  0.2027E+02
      0.699  0.3125E+02  0.2396E+02
      0.817  0.3360E+00  0.2400E+02
      0.935  0.4044E-06  0.2400E+02
      1.053  0.0000E+00  0.2400E+02
      1.171  0.0000E+00  0.2400E+02
      1.289  0.0000E+00  0.2400E+02
      1.407  0.0000E+00  0.2400E+02
      1.525  0.0000E+00  0.2400E+02
      1.643  0.0000E+00  0.2400E+02
      1.761  0.0000E+00  0.2400E+02
      1.879  0.0000E+00  0.2400E+02
      1.997  0.0000E+00  0.2400E+02
      2.115  0.0000E+00  0.2400E+02
      2.234  0.0000E+00  0.2400E+02
