    2    2    1    1
  0.1524312E+04  0.1450000E-08  0.1450000E-08  0.1450000E-08  0.5000000E-15
  1.000000000000000E-004
  CAR 
 NiAl                                    
     10      1     12
 
  0.0000000E+00  0.0000000E+00  0.0000000E+00  0.1000000E+01
    1      -31.572496   1.000000
    2      -13.755489   1.000000
    3      -13.755489   1.000000
    4      -12.038929   1.000000
    5      -10.036167   1.000000
    6       -0.172905   0.000000
    7        0.445146   0.000000
    8        0.496929   0.000000
    9        0.496929   0.000000
   10        0.555370   0.000000
   11        0.601732   0.000000
   12        0.623726   0.000000
