/store/Terry_project/NiAlN_EDIP_fitting_DFT/DATA/N2-short/N2_short_iter_last_lmp.data (written by ASE) 

2 	 atoms 
1  atom types
0.0                    14.5  xlo xhi
0.0                    14.5  ylo yhi
0.0                    14.5  zlo zhi


Atoms 

     1   1                       0                       0                       0
     2   1     0.90000000000000002                       0                       0
