       N       E                     dE             d eps       ncg     rms          rms(c)
DAV:   1     0.727396174334E+02    0.72740E+02   -0.17868E+03    36   0.235E+02
DAV:   2    -0.296036238808E+01   -0.75700E+02   -0.75700E+02    36   0.113E+02
DAV:   3    -0.129639410344E+02   -0.10004E+02   -0.10004E+02    24   0.518E+01
DAV:   4    -0.130348448552E+02   -0.70904E-01   -0.70904E-01    48   0.538E+00
DAV:   5    -0.130348491733E+02   -0.43181E-05   -0.43181E-05    24   0.415E-02    0.117E+01
DAV:   6    -0.105649991923E+02    0.24698E+01   -0.38766E+00    36   0.128E+01    0.673E+00
DAV:   7    -0.101387613882E+02    0.42624E+00   -0.21941E+00    48   0.954E+00    0.255E+00
DAV:   8    -0.101411575196E+02   -0.23961E-02   -0.95481E-02    36   0.180E+00    0.280E-01
DAV:   9    -0.101410151776E+02    0.14234E-03   -0.82933E-03    48   0.515E-01    0.860E-02
DAV:  10    -0.101438525940E+02   -0.28374E-02   -0.64702E-04    24   0.122E-01    0.305E-02
DAV:  11    -0.101446299800E+02   -0.77739E-03   -0.56972E-05    36   0.334E-02    0.150E-02
DAV:  12    -0.101459439374E+02   -0.13140E-02   -0.38644E-04    36   0.712E-02    0.938E-03
DAV:  13    -0.101464991745E+02   -0.55524E-03   -0.40116E-05    24   0.242E-02    0.102E-02
DAV:  14    -0.101469219473E+02   -0.42277E-03   -0.36196E-05    24   0.235E-02    0.304E-03
DAV:  15    -0.101470831320E+02   -0.16118E-03   -0.60710E-06    36   0.105E-02    0.172E-03
DAV:  16    -0.101471332752E+02   -0.50143E-04   -0.13616E-06    36   0.528E-03    0.172E-03
DAV:  17    -0.101471724252E+02   -0.39150E-04   -0.70306E-07    24   0.477E-03    0.395E-04
DAV:  18    -0.101471814003E+02   -0.89751E-05   -0.38772E-08    36   0.151E-03    0.418E-04
DAV:  19    -0.101471851489E+02   -0.37486E-05   -0.18332E-08    24   0.105E-03
   1 F= -.10147185E+02 E0= -.10147185E+02  d E =-.153575E-11
