 vasp.5.4.4.18Apr17-6-g9f103f2a35 (build May 02 2017 15:33:50) complex          
  
 executed on Intel-16.0.3.210-OMP date 2018.07.26  15:20:49
 running on    6 total cores
 distrk:  each k-point on    6 cores,    1 groups
 distr:  one band on NCORES_PER_BAND=   1 cores,    6 groups


--------------------------------------------------------------------------------------------------------


 INCAR:
 POTCAR:    PAW_PBE N 08Apr2002                   

 ----------------------------------------------------------------------------- 
|                                                                             |
|           W    W    AA    RRRRR   N    N  II  N    N   GGGG   !!!           |
|           W    W   A  A   R    R  NN   N  II  NN   N  G    G  !!!           |
|           W    W  A    A  R    R  N N  N  II  N N  N  G       !!!           |
|           W WW W  AAAAAA  RRRRR   N  N N  II  N  N N  G  GGG   !            |
|           WW  WW  A    A  R   R   N   NN  II  N   NN  G    G                |
|           W    W  A    A  R    R  N    N  II  N    N   GGGG   !!!           |
|                                                                             |
|      For optimal performance we recommend to set                            |
|        NCORE= 4 - approx SQRT( number of cores)                             |
|      NCORE specifies how many cores store one orbital (NPAR=cpu/NCORE).     |
|      This setting can  greatly improve the performance of VASP for DFT.     |
|      The default,   NCORE=1            might be grossly inefficient         |
|      on modern multi-core architectures or massively parallel machines.     |
|      Do your own testing !!!!                                               |
|      Unfortunately you need to use the default for GW and RPA calculations. |
|      (for HF NCORE is supported but not extensively tested yet)             |
|                                                                             |
 ----------------------------------------------------------------------------- 

 POTCAR:    PAW_PBE N 08Apr2002                   
   VRHFIN =N: s2p3                                                              
   LEXCH  = PE                                                                  
   EATOM  =   264.5486 eV,   19.4438 Ry                                         
                                                                                
   TITEL  = PAW_PBE N 08Apr2002                                                 
   LULTRA =        F    use ultrasoft PP ?                                      
   IUNSCR =        1    unscreen: 0-lin 1-nonlin 2-no                           
   RPACOR =    1.200    partial core radius                                     
   POMASS =   14.001; ZVAL   =    5.000    mass and valenz                      
   RCORE  =    1.500    outmost cutoff radius                                   
   RWIGS  =    1.400; RWIGS  =    0.741    wigner-seitz radius (au A)           
   ENMAX  =  400.000; ENMIN  =  300.000 eV                                      
   ICORE  =        2    local potential                                         
   LCOR   =        T    correct aug charges                                     
   LPAW   =        T    paw PP                                                  
   EAUG   =  627.112                                                            
   DEXC   =    0.000                                                            
   RMAX   =    1.529    core radius for proj-oper                               
   RAUG   =    1.300    factor for augmentation sphere                          
   RDEP   =    1.514    radius for radial grids                                 
   RDEPT  =    1.338    core radius for aug-charge                              
                                                                                
   Atomic configuration                                                         
    4 entries                                                                   
     n  l   j            E        occ.                                          
     1  0  0.50      -384.7179   2.0000                                         
     2  0  0.50       -18.5828   2.0000                                         
     2  1  0.50        -7.0898   3.0000                                         
     3  2  1.50        -6.8029   0.0000                                         
   Description                                                                  
     l       E           TYP  RCUT    TYP  RCUT                                 
     0    -18.5828119     23  1.200                                             
     0    -13.5018863     23  1.200                                             
     1     -7.0897853     23  1.500                                             
     1      9.5240782     23  1.500                                             
     2     -6.8029130      7  1.500                                             
  local pseudopotential read in
  partial core-charges read in
  partial kinetic energy density read in
  atomic valenz-charges read in
  non local Contribution for L=           0  read in
    real space projection operators read in
  non local Contribution for L=           0  read in
    real space projection operators read in
  non local Contribution for L=           1  read in
    real space projection operators read in
  non local Contribution for L=           1  read in
    real space projection operators read in
    PAW grid and wavefunctions read in
 
   number of l-projection  operators is LMAX  =           4
   number of lm-projection operators is LMMAX =           8
 

 ----------------------------------------------------------------------------- 
|                                                                             |
|  ADVICE TO THIS USER RUNNING 'VASP/VAMP'   (HEAR YOUR MASTER'S VOICE ...):  |
|                                                                             |
|      You have a (more or less) 'small supercell' and for smaller cells      |
|      it is recommended  to use the reciprocal-space projection scheme!      |
|      The real space optimization is not  efficient for small cells and it   |
|      is also less accurate ...                                              |
|      Therefore set LREAL=.FALSE. in the  INCAR file                         |
|                                                                             |
 ----------------------------------------------------------------------------- 

 Optimization of the real space projectors (new method)

 maximal supplied QI-value         = 25.13
 optimisation between [QCUT,QGAM] = [  8.80, 17.59] = [ 21.67, 86.68] Ry 
 Optimized for a Real-space Cutoff    2.14 Angstroem

   l    n(q)    QCUT    max X(q) W(low)/X(q) W(high)/X(q)  e(spline) 
   0     11     8.797    79.467    0.70E-04    0.19E-04    0.19E-05
   0     11     8.797    66.151    0.68E-04    0.18E-04    0.19E-05
   1     11     8.797     6.738    0.26E-03    0.11E-02    0.73E-05
   1     11     8.797     5.013    0.25E-03    0.11E-02    0.72E-05
  PAW_PBE N 08Apr2002                   :
 energy of atom  1       EATOM= -264.5486
 kinetic energy error for atom=    0.6882 (will be added to EATOM!!)
 
 
 POSCAR: New structure                           
  positions in cartesian coordinates
  No initial velocities read in
 exchange correlation table for  LEXCH =        8
   RHO(1)=    0.500       N(1)  =     2000
   RHO(2)=  100.500       N(2)  =     4000
 


--------------------------------------------------------------------------------------------------------


 ion  position               nearest neighbor table
   1  0.000  0.000  0.000-   2 0.90
   2  0.062  0.000  0.000-   1 0.90
 
  LATTYP: Found a simple cubic cell.
 ALAT       =    14.5000000000
  
  Lattice vectors:
  
 A1 = (  14.5000000000,   0.0000000000,   0.0000000000)
 A2 = (   0.0000000000,  14.5000000000,   0.0000000000)
 A3 = (   0.0000000000,   0.0000000000,  14.5000000000)


Analysis of symmetry for initial positions (statically):
=====================================================================
 Subroutine PRICEL returns:
 Original cell was already a primitive cell.
 

 Routine SETGRP: Setting up the symmetry group for a 
 simple cubic supercell.


 Subroutine GETGRP returns: Found 16 space group operations
 (whereof  8 operations were pure point group operations)
 out of a pool of 48 trial point group operations.


The static configuration has the point symmetry C_4v.
 The point group associated with its full space group is D_4h.


Analysis of symmetry for dynamics (positions and initial velocities):
=====================================================================
 Subroutine PRICEL returns:
 Original cell was already a primitive cell.
 

 Routine SETGRP: Setting up the symmetry group for a 
 simple cubic supercell.


 Subroutine GETGRP returns: Found 16 space group operations
 (whereof  8 operations were pure point group operations)
 out of a pool of 48 trial point group operations.


The dynamic configuration has the point symmetry C_4v.
 The point group associated with its full space group is D_4h.


 Subroutine INISYM returns: Found 16 space group operations
 (whereof  8 operations are pure point group operations),
 and found     1 'primitive' translations

 
 
 KPOINTS: Automatic generation                    

Automatic generation of k-mesh.
Space group operators:
 irot       det(A)        alpha          n_x          n_y          n_z        tau_x        tau_y        tau_z
    1     1.000000     0.000000     1.000000     0.000000     0.000000     0.000000     0.000000     0.000000
    2    -1.000000   180.000000     0.000000     0.707107     0.707107     0.000000     0.000000     0.000000
    3    -1.000000   180.000000     0.000000     0.000000     1.000000     0.000000     0.000000     0.000000
    4     1.000000    90.000000    -1.000000     0.000000     0.000000     0.000000     0.000000     0.000000
    5     1.000000   180.000000     1.000000     0.000000     0.000000     0.000000     0.000000     0.000000
    6     1.000000    90.000000     1.000000     0.000000     0.000000     0.000000     0.000000     0.000000
    7    -1.000000   180.000000     0.000000     1.000000     0.000000     0.000000     0.000000     0.000000
    8    -1.000000   180.000000     0.000000    -0.707107     0.707107     0.000000     0.000000     0.000000
    9    -1.000000     0.000000     1.000000     0.000000     0.000000     0.062069     0.000000     0.000000
   10     1.000000   180.000000     0.000000     0.707107     0.707107     0.062069     0.000000     0.000000
   11     1.000000   180.000000     0.000000     0.000000     1.000000     0.062069     0.000000     0.000000
   12    -1.000000    90.000000    -1.000000     0.000000     0.000000     0.062069     0.000000     0.000000
   13    -1.000000   180.000000     1.000000     0.000000     0.000000     0.062069     0.000000     0.000000
   14    -1.000000    90.000000     1.000000     0.000000     0.000000     0.062069     0.000000     0.000000
   15     1.000000   180.000000     0.000000     1.000000     0.000000     0.062069     0.000000     0.000000
   16     1.000000   180.000000     0.000000    -0.707107     0.707107     0.062069     0.000000     0.000000
 
 Subroutine IBZKPT returns following result:
 ===========================================
 
 Found      1 irreducible k-points:
 
 Following reciprocal coordinates:
            Coordinates               Weight
  0.000000  0.000000  0.000000      1.000000
 
 Following cartesian coordinates:
            Coordinates               Weight
  0.000000  0.000000  0.000000      1.000000
 


--------------------------------------------------------------------------------------------------------




 Dimension of arrays:
   k-points           NKPTS =      1   k-points in BZ     NKDIM =      1   number of bands    NBANDS=     12
   number of dos      NEDOS =    301   number of ions     NIONS =      2
   non local maximal  LDIM  =      4   non local SUM 2l+1 LMDIM =      8
   total plane-waves  NPLWV = 262144
   max r-space proj   IRMAX =   3591   max aug-charges    IRDMAX=   1258
   dimension x,y,z NGX =    64 NGY =   64 NGZ =   64
   dimension x,y,z NGXF=   128 NGYF=  128 NGZF=  128
   support grid    NGXF=   128 NGYF=  128 NGZF=  128
   ions per type =               2
   NGX,Y,Z   is equivalent  to a cutoff of   7.34,  7.34,  7.34 a.u.
   NGXF,Y,Z  is equivalent  to a cutoff of  14.68, 14.68, 14.68 a.u.

 SYSTEM =  NiAl                                    
 POSCAR =  New structure                           

 Startparameter for this run:
   NWRITE =      2    write-flag & timer
   PREC   = normal    normal or accurate (medium, high low for compatibility)
   ISTART =      0    job   : 0-new  1-cont  2-samecut
   ICHARG =      2    charge: 1-file 2-atom 10-const
   ISPIN  =      1    spin polarized calculation?
   LNONCOLLINEAR =      F non collinear calculations
   LSORBIT =      F    spin-orbit coupling
   INIWAV =      1    electr: 0-lowe 1-rand  2-diag
   LASPH  =      F    aspherical Exc in radial PAW
   METAGGA=      F    non-selfconsistent MetaGGA calc.

 Electronic Relaxation 1
   ENCUT  =  300.0 eV  22.05 Ry    4.70 a.u.  20.48 20.48 20.48*2*pi/ulx,y,z
   ENINI  =  300.0     initial cutoff
   ENAUG  =  627.1 eV  augmentation charge cutoff
   NELM   =     60;   NELMIN=  6; NELMDL= -5     # of ELM steps 
   EDIFF  = 0.5E-05   stopping-criterion for ELM
   LREAL  =      T    real-space projection
   NLSPLINE    = F    spline interpolate recip. space projectors
   LCOMPAT=      F    compatible to vasp.4.4
   GGA_COMPAT  = T    GGA compatible to vasp.4.4-vasp.4.6
   LMAXPAW     = -100 max onsite density
   LMAXMIX     =    2 max onsite mixed and CHGCAR
   VOSKOWN=      0    Vosko Wilk Nusair interpolation
   ROPT   =   -0.00050
 Ionic relaxation
   EDIFFG = 0.5E-04   stopping-criterion for IOM
   NSW    =      0    number of steps for IOM
   NBLOCK =      1;   KBLOCK =      1    inner block; outer block 
   IBRION =     -1    ionic relax: 0-MD 1-quasi-New 2-CG
   NFREE  =      0    steps in history (QN), initial steepest desc. (CG)
   ISIF   =      2    stress and relaxation
   IWAVPR =     10    prediction:  0-non 1-charg 2-wave 3-comb
   ISYM   =      2    0-nonsym 1-usesym 2-fastsym
   LCORR  =      T    Harris-Foulkes like correction to forces

   POTIM  = 0.5000    time-step for ionic-motion
   TEIN   =    0.0    initial temperature
   TEBEG  =    0.0;   TEEND  =   0.0 temperature during run
   SMASS  =  -3.00    Nose mass-parameter (am)
   estimated Nose-frequenzy (Omega)   =  0.10E-29 period in steps =****** mass=  -0.480E-26a.u.
   SCALEE = 1.0000    scale energy and forces
   NPACO  =    256;   APACO  = 16.0  distance and # of slots for P.C.
   PSTRESS=    0.0 pullay stress

  Mass of Ions in am
   POMASS =  14.00
  Ionic Valenz
   ZVAL   =   5.00
  Atomic Wigner-Seitz radii
   RWIGS  =  -1.00
  virtual crystal weights 
   VCA    =   1.00
   NELECT =      10.0000    total number of electrons
   NUPDOWN=      -1.0000    fix difference up-down

 DOS related values:
   EMIN   =  10.00;   EMAX   =-10.00  energy-range for DOS
   EFERMI =   0.00
   ISMEAR =     0;   SIGMA  =   0.05  broadening in eV -4-tet -1-fermi 0-gaus

 Electronic relaxation 2 (details)
   IALGO  =     38    algorithm
   LDIAG  =      T    sub-space diagonalisation (order eigenvalues)
   LSUBROT=      F    optimize rotation matrix (better conditioning)
   TURBO    =      0    0=normal 1=particle mesh
   IRESTART =      0    0=no restart 2=restart with 2 vectors
   NREBOOT  =      0    no. of reboots
   NMIN     =      0    reboot dimension
   EREF     =   0.00    reference energy to select bands
   IMIX   =      4    mixing-type and parameters
     AMIX     =   0.40;   BMIX     =  1.00
     AMIX_MAG =   1.60;   BMIX_MAG =  1.00
     AMIN     =   0.10
     WC   =   100.;   INIMIX=   1;  MIXPRE=   1;  MAXMIX= -45

 Intra band minimization:
   WEIMIN = 0.0000     energy-eigenvalue tresh-hold
   EBREAK =  0.10E-06  absolut break condition
   DEPER  =   0.30     relativ break condition  

   TIME   =   0.40     timestep for ELM

  volume/ion in A,a.u.               =    1524.31     10286.57
  Fermi-wavevector in a.u.,A,eV,Ry     =   0.243243  0.459662  0.805017  0.059167
  Thomas-Fermi vector in A             =   1.051657
 
 Write flags
   LWAVE        =      F    write WAVECAR
   LDOWNSAMPLE  =      F    k-point downsampling of WAVECAR
   LCHARG       =      F    write CHGCAR
   LVTOT        =      F    write LOCPOT, total local potential
   LVHAR        =      F    write LOCPOT, Hartree potential only
   LELF         =      F    write electronic localiz. function (ELF)
   LORBIT       =      0    0 simple, 1 ext, 2 COOP (PROOUT), +10 PAW based schemes


 Dipole corrections
   LMONO  =      F    monopole corrections only (constant potential shift)
   LDIPOL =      F    correct potential (dipole corrections)
   IDIPOL =      0    1-x, 2-y, 3-z, 4-all directions 
   EPSILON=  1.0000000 bulk dielectric constant

 Exchange correlation treatment:
   GGA     =    --    GGA type
   LEXCH   =     8    internal setting for exchange type
   VOSKOWN=      0    Vosko Wilk Nusair interpolation
   LHFCALC =     F    Hartree Fock is set to
   LHFONE  =     F    Hartree Fock one center treatment
   AEXX    =    0.0000 exact exchange contribution

 Linear response parameters
   LEPSILON=     F    determine dielectric tensor
   LRPA    =     F    only Hartree local field effects (RPA)
   LNABLA  =     F    use nabla operator in PAW spheres
   LVEL    =     F    velocity operator in full k-point grid
   LINTERFAST=   F  fast interpolation
   KINTER  =     0    interpolate to denser k-point grid
   CSHIFT  =0.1000    complex shift for real part using Kramers Kronig
   OMEGAMAX=  -1.0    maximum frequency
   DEG_THRESHOLD= 0.2000000E-02 threshold for treating states as degnerate
   RTIME   =   -0.100 relaxation time in fs
  (WPLASMAI=    0.000 imaginary part of plasma frequency in eV, 0.658/RTIME)
   DFIELD  = 0.0000000 0.0000000 0.0000000 field for delta impulse in time
 
 Orbital magnetization related:
   ORBITALMAG=     F  switch on orbital magnetization
   LCHIMAG   =     F  perturbation theory with respect to B field
   DQ        =  0.001000  dq finite difference perturbation B field
   LLRAUG    =     F  two centre corrections for induced B field



--------------------------------------------------------------------------------------------------------


 Static calculation
 charge density and potential will be updated during run
 non-spin polarized calculation
 Variant of blocked Davidson
 Davidson routine will perform the subspace rotation
 perform sub-space diagonalisation
    after iterative eigenvector-optimisation
 modified Broyden-mixing scheme, WC =      100.0
 initial mixing is a Kerker type mixing with AMIX =  0.4000 and BMIX =      1.0000
 Hartree-type preconditioning will be used
 using additional bands            7
 real space projection scheme for non local part
 use partial core corrections
 calculate Harris-corrections to forces 
   (improved forces if not selfconsistent)
 use gradient corrections 
 use of overlap-Matrix (Vanderbilt PP)
 Gauss-broadening in eV      SIGMA  =   0.05


--------------------------------------------------------------------------------------------------------


  energy-cutoff  :      300.00
  volume of cell :     3048.62
      direct lattice vectors                 reciprocal lattice vectors
    14.500000000  0.000000000  0.000000000     0.068965517  0.000000000  0.000000000
     0.000000000 14.500000000  0.000000000     0.000000000  0.068965517  0.000000000
     0.000000000  0.000000000 14.500000000     0.000000000  0.000000000  0.068965517

  length of vectors
    14.500000000 14.500000000 14.500000000     0.068965517  0.068965517  0.068965517


 
 k-points in units of 2pi/SCALE and weight: Automatic generation                    
   0.00000000  0.00000000  0.00000000       1.000
 
 k-points in reciprocal lattice and weights: Automatic generation                    
   0.00000000  0.00000000  0.00000000       1.000
 
 position of ions in fractional coordinates (direct lattice) 
   0.00000000  0.00000000  0.00000000
   0.06206897  0.00000000  0.00000000
 
 position of ions in cartesian coordinates  (Angst):
   0.00000000  0.00000000  0.00000000
   0.90000000  0.00000000  0.00000000
 


--------------------------------------------------------------------------------------------------------


 k-point  1 :   0.0000 0.0000 0.0000  plane waves:   36041

 maximum and minimum number of plane-waves per node :     36041    36041

 maximum number of plane-waves:     36041
 maximum index in each direction: 
   IXMAX=   20   IYMAX=   20   IZMAX=   20
   IXMIN=  -20   IYMIN=  -20   IZMIN=  -20


 serial   3D FFT for wavefunctions
 parallel 3D FFT for charge:
    minimum data exchange during FFTs selected (reduces bandwidth)


 total amount of memory used by VASP MPI-rank0    73047. kBytes
=======================================================================

   base      :      30000. kBytes
   nonlr-proj:        598. kBytes
   fftplans  :      13257. kBytes
   grid      :      28033. kBytes
   one-center:          6. kBytes
   wavefun   :       1153. kBytes
 
     INWAV:  cpu time    0.0001: real time    0.0001
 Broyden mixing: mesh for mixing (old mesh)
   NGX = 41   NGY = 41   NGZ = 41
  (NGX  =128   NGY  =128   NGZ  =128)
  gives a total of  68921 points

 initial charge density was supplied:
 charge density of overlapping atoms calculated
 number of electron      10.0000000 magnetization 
 keeping initial charge density in first step


--------------------------------------------------------------------------------------------------------


 Maximum index for non-local projection operator         3407
 Maximum index for augmentation-charges          239 (set IRDMAX)


--------------------------------------------------------------------------------------------------------


 First call to EWALD:  gamma=   0.122
 Maximum number of real-space cells 3x 3x 3
 Maximum number of reciprocal cells 3x 3x 3

    FEWALD:  cpu time    0.0025: real time    0.0025


----------------------------------------- Iteration    1(   1)  ---------------------------------------


    POTLOK:  cpu time    0.1883: real time    0.2318
    SETDIJ:  cpu time    0.0018: real time    0.0018
     EDDAV:  cpu time    0.0648: real time    0.1516
       DOS:  cpu time    0.0002: real time    0.0002
    --------------------------------------------
      LOOP:  cpu time    0.2570: real time    0.3881

 eigenvalue-minimisations  :    36
 total energy-change (2. order) : 0.7273962E+02  (-0.1786763E+03)
 number of electron      10.0000000 magnetization 
 augmentation part       10.0000000 magnetization 

 Free energy of the ion-electron system (eV)
  ---------------------------------------------------
  alpha Z        PSCENC =         0.14136994
  Ewald energy   TEWEN  =       259.31114400
  -Hartree energ DENC   =      -632.85871408
  -exchange      EXHF   =         0.00000000
  -V(xc)+E(xc)   XCENC  =        39.26344816
  PAW double counting   =       409.86546322     -412.24743141
  entropy T*S    EENTRO =        -0.00000000
  eigenvalues    EBANDS =      -118.45638960
  atomic energy  EATOM  =       527.72072720
  Solvation  Ediel_sol  =         0.00000000
  ---------------------------------------------------
  free energy    TOTEN  =        72.73961743 eV

  energy without entropy =       72.73961743  energy(sigma->0) =       72.73961743


--------------------------------------------------------------------------------------------------------




----------------------------------------- Iteration    1(   2)  ---------------------------------------


     EDDAV:  cpu time    0.0582: real time    0.1261
       DOS:  cpu time    0.0001: real time    0.0001
    --------------------------------------------
      LOOP:  cpu time    0.0598: real time    0.1289

 eigenvalue-minimisations  :    36
 total energy-change (2. order) :-0.7569998E+02  (-0.7569998E+02)
 number of electron      10.0000000 magnetization 
 augmentation part       10.0000000 magnetization 

 Free energy of the ion-electron system (eV)
  ---------------------------------------------------
  alpha Z        PSCENC =         0.14136994
  Ewald energy   TEWEN  =       259.31114400
  -Hartree energ DENC   =      -632.85871408
  -exchange      EXHF   =         0.00000000
  -V(xc)+E(xc)   XCENC  =        39.26344816
  PAW double counting   =       409.86546322     -412.24743141
  entropy T*S    EENTRO =        -0.00000000
  eigenvalues    EBANDS =      -194.15636942
  atomic energy  EATOM  =       527.72072720
  Solvation  Ediel_sol  =         0.00000000
  ---------------------------------------------------
  free energy    TOTEN  =        -2.96036239 eV

  energy without entropy =       -2.96036239  energy(sigma->0) =       -2.96036239


--------------------------------------------------------------------------------------------------------




----------------------------------------- Iteration    1(   3)  ---------------------------------------


     EDDAV:  cpu time    0.0464: real time    0.1113
       DOS:  cpu time    0.0006: real time    0.0006
    --------------------------------------------
      LOOP:  cpu time    0.0484: real time    0.1142

 eigenvalue-minimisations  :    24
 total energy-change (2. order) :-0.1000358E+02  (-0.1000358E+02)
 number of electron      10.0000000 magnetization 
 augmentation part       10.0000000 magnetization 

 Free energy of the ion-electron system (eV)
  ---------------------------------------------------
  alpha Z        PSCENC =         0.14136994
  Ewald energy   TEWEN  =       259.31114400
  -Hartree energ DENC   =      -632.85871408
  -exchange      EXHF   =         0.00000000
  -V(xc)+E(xc)   XCENC  =        39.26344816
  PAW double counting   =       409.86546322     -412.24743141
  entropy T*S    EENTRO =        -0.00000000
  eigenvalues    EBANDS =      -204.15994807
  atomic energy  EATOM  =       527.72072720
  Solvation  Ediel_sol  =         0.00000000
  ---------------------------------------------------
  free energy    TOTEN  =       -12.96394103 eV

  energy without entropy =      -12.96394103  energy(sigma->0) =      -12.96394103


--------------------------------------------------------------------------------------------------------




----------------------------------------- Iteration    1(   4)  ---------------------------------------


     EDDAV:  cpu time    0.0711: real time    0.1368
       DOS:  cpu time    0.0007: real time    0.0007
    --------------------------------------------
      LOOP:  cpu time    0.0732: real time    0.1399

 eigenvalue-minimisations  :    48
 total energy-change (2. order) :-0.7090382E-01  (-0.7090382E-01)
 number of electron      10.0000000 magnetization 
 augmentation part       10.0000000 magnetization 

 Free energy of the ion-electron system (eV)
  ---------------------------------------------------
  alpha Z        PSCENC =         0.14136994
  Ewald energy   TEWEN  =       259.31114400
  -Hartree energ DENC   =      -632.85871408
  -exchange      EXHF   =         0.00000000
  -V(xc)+E(xc)   XCENC  =        39.26344816
  PAW double counting   =       409.86546322     -412.24743141
  entropy T*S    EENTRO =        -0.00000000
  eigenvalues    EBANDS =      -204.23085189
  atomic energy  EATOM  =       527.72072720
  Solvation  Ediel_sol  =         0.00000000
  ---------------------------------------------------
  free energy    TOTEN  =       -13.03484486 eV

  energy without entropy =      -13.03484486  energy(sigma->0) =      -13.03484486


--------------------------------------------------------------------------------------------------------




----------------------------------------- Iteration    1(   5)  ---------------------------------------


     EDDAV:  cpu time    0.0437: real time    0.1084
       DOS:  cpu time    0.0001: real time    0.0001
    CHARGE:  cpu time    0.0552: real time    0.0700
    MIXING:  cpu time    0.0083: real time    0.0083
    --------------------------------------------
      LOOP:  cpu time    0.1089: real time    0.1895

 eigenvalue-minimisations  :    24
 total energy-change (2. order) :-0.4318070E-05  (-0.4318069E-05)
 number of electron      10.0000100 magnetization 
 augmentation part        0.6321570 magnetization 

 Broyden mixing:
  rms(total) = 0.11676E+01    rms(broyden)= 0.11566E+01
  rms(prec ) = 0.12523E+01
  weight for this iteration     100.00

 Free energy of the ion-electron system (eV)
  ---------------------------------------------------
  alpha Z        PSCENC =         0.14136994
  Ewald energy   TEWEN  =       259.31114400
  -Hartree energ DENC   =      -632.85871408
  -exchange      EXHF   =         0.00000000
  -V(xc)+E(xc)   XCENC  =        39.26344816
  PAW double counting   =       409.86546322     -412.24743141
  entropy T*S    EENTRO =        -0.00000000
  eigenvalues    EBANDS =      -204.23085621
  atomic energy  EATOM  =       527.72072720
  Solvation  Ediel_sol  =         0.00000000
  ---------------------------------------------------
  free energy    TOTEN  =       -13.03484917 eV

  energy without entropy =      -13.03484917  energy(sigma->0) =      -13.03484917


--------------------------------------------------------------------------------------------------------




----------------------------------------- Iteration    1(   6)  ---------------------------------------


    POTLOK:  cpu time    0.1760: real time    0.1761
    SETDIJ:  cpu time    0.0016: real time    0.0016
     EDDAV:  cpu time    0.0583: real time    0.1258
       DOS:  cpu time    0.0001: real time    0.0001
    CHARGE:  cpu time    0.0545: real time    0.0547
    MIXING:  cpu time    0.0086: real time    0.0088
    --------------------------------------------
      LOOP:  cpu time    0.3009: real time    0.3699

 eigenvalue-minimisations  :    36
 total energy-change (2. order) : 0.2469850E+01  (-0.3876613E+00)
 number of electron      10.0000093 magnetization 
 augmentation part        0.5899233 magnetization 

 Broyden mixing:
  rms(total) = 0.67327E+00    rms(broyden)= 0.67289E+00
  rms(prec ) = 0.70264E+00
  weight for this iteration     100.00

 eigenvalues of (default mixing * dielectric matrix)
  average eigenvalue GAMMA=   1.8551
  1.8551

 Free energy of the ion-electron system (eV)
  ---------------------------------------------------
  alpha Z        PSCENC =         0.14136994
  Ewald energy   TEWEN  =       259.31114400
  -Hartree energ DENC   =      -655.99985782
  -exchange      EXHF   =         0.00000000
  -V(xc)+E(xc)   XCENC  =        40.59828576
  PAW double counting   =       661.19209738     -664.08902459
  entropy T*S    EENTRO =        -0.00000000
  eigenvalues    EBANDS =      -179.43974104
  atomic energy  EATOM  =       527.72072720
  Solvation  Ediel_sol  =         0.00000000
  ---------------------------------------------------
  free energy    TOTEN  =       -10.56499919 eV

  energy without entropy =      -10.56499919  energy(sigma->0) =      -10.56499919


--------------------------------------------------------------------------------------------------------




----------------------------------------- Iteration    1(   7)  ---------------------------------------


    POTLOK:  cpu time    0.1807: real time    0.1810
    SETDIJ:  cpu time    0.0015: real time    0.0015
     EDDAV:  cpu time    0.0754: real time    0.1388
       DOS:  cpu time    0.0006: real time    0.0006
    CHARGE:  cpu time    0.0552: real time    0.0553
    MIXING:  cpu time    0.0088: real time    0.0088
    --------------------------------------------
      LOOP:  cpu time    0.3240: real time    0.3888

 eigenvalue-minimisations  :    48
 total energy-change (2. order) : 0.4262378E+00  (-0.2194140E+00)
 number of electron      10.0000087 magnetization 
 augmentation part        0.5547818 magnetization 

 Broyden mixing:
  rms(total) = 0.25462E+00    rms(broyden)= 0.25437E+00
  rms(prec ) = 0.25898E+00
  weight for this iteration     100.00

 eigenvalues of (default mixing * dielectric matrix)
  average eigenvalue GAMMA=   1.9989
  1.7611  2.2367

 Free energy of the ion-electron system (eV)
  ---------------------------------------------------
  alpha Z        PSCENC =         0.14136994
  Ewald energy   TEWEN  =       259.31114400
  -Hartree energ DENC   =      -673.61351014
  -exchange      EXHF   =         0.00000000
  -V(xc)+E(xc)   XCENC  =        41.54032083
  PAW double counting   =      1071.29308226    -1074.70018579
  entropy T*S    EENTRO =        -0.00000000
  eigenvalues    EBANDS =      -161.83170968
  atomic energy  EATOM  =       527.72072720
  Solvation  Ediel_sol  =         0.00000000
  ---------------------------------------------------
  free energy    TOTEN  =       -10.13876139 eV

  energy without entropy =      -10.13876139  energy(sigma->0) =      -10.13876139


--------------------------------------------------------------------------------------------------------




----------------------------------------- Iteration    1(   8)  ---------------------------------------


    POTLOK:  cpu time    0.1849: real time    0.1855
    SETDIJ:  cpu time    0.0015: real time    0.0015
     EDDAV:  cpu time    0.0568: real time    0.1249
       DOS:  cpu time    0.0003: real time    0.0003
    CHARGE:  cpu time    0.0539: real time    0.0540
    MIXING:  cpu time    0.0092: real time    0.0094
    --------------------------------------------
      LOOP:  cpu time    0.3085: real time    0.3788

 eigenvalue-minimisations  :    36
 total energy-change (2. order) :-0.2396131E-02  (-0.9548065E-02)
 number of electron      10.0000088 magnetization 
 augmentation part        0.5594302 magnetization 

 Broyden mixing:
  rms(total) = 0.28038E-01    rms(broyden)= 0.28008E-01
  rms(prec ) = 0.32146E-01
  weight for this iteration     100.00

 eigenvalues of (default mixing * dielectric matrix)
  average eigenvalue GAMMA=   1.6426
  2.3296  1.1086  1.4895

 Free energy of the ion-electron system (eV)
  ---------------------------------------------------
  alpha Z        PSCENC =         0.14136994
  Ewald energy   TEWEN  =       259.31114400
  -Hartree energ DENC   =      -670.88660995
  -exchange      EXHF   =         0.00000000
  -V(xc)+E(xc)   XCENC  =        41.38446329
  PAW double counting   =      1281.96629551    -1285.43669315
  entropy T*S    EENTRO =        -0.00000000
  eigenvalues    EBANDS =      -164.34185435
  atomic energy  EATOM  =       527.72072720
  Solvation  Ediel_sol  =         0.00000000
  ---------------------------------------------------
  free energy    TOTEN  =       -10.14115752 eV

  energy without entropy =      -10.14115752  energy(sigma->0) =      -10.14115752


--------------------------------------------------------------------------------------------------------




----------------------------------------- Iteration    1(   9)  ---------------------------------------


    POTLOK:  cpu time    0.1853: real time    0.1856
    SETDIJ:  cpu time    0.0015: real time    0.0015
     EDDAV:  cpu time    0.0730: real time    0.1398
       DOS:  cpu time    0.0004: real time    0.0004
    CHARGE:  cpu time    0.0540: real time    0.0541
    MIXING:  cpu time    0.0092: real time    0.0092
    --------------------------------------------
      LOOP:  cpu time    0.3253: real time    0.3936

 eigenvalue-minimisations  :    48
 total energy-change (2. order) : 0.1423420E-03  (-0.8293336E-03)
 number of electron      10.0000088 magnetization 
 augmentation part        0.5574795 magnetization 

 Broyden mixing:
  rms(total) = 0.86031E-02    rms(broyden)= 0.85805E-02
  rms(prec ) = 0.12135E-01
  weight for this iteration     100.00

 eigenvalues of (default mixing * dielectric matrix)
  average eigenvalue GAMMA=   1.8901
  2.5093  2.5093  0.9733  1.5684

 Free energy of the ion-electron system (eV)
  ---------------------------------------------------
  alpha Z        PSCENC =         0.14136994
  Ewald energy   TEWEN  =       259.31114400
  -Hartree energ DENC   =      -672.09368884
  -exchange      EXHF   =         0.00000000
  -V(xc)+E(xc)   XCENC  =        41.44780674
  PAW double counting   =      1284.23095767    -1287.71895688
  entropy T*S    EENTRO =        -0.00000000
  eigenvalues    EBANDS =      -163.18037499
  atomic energy  EATOM  =       527.72072720
  Solvation  Ediel_sol  =         0.00000000
  ---------------------------------------------------
  free energy    TOTEN  =       -10.14101518 eV

  energy without entropy =      -10.14101518  energy(sigma->0) =      -10.14101518


--------------------------------------------------------------------------------------------------------




----------------------------------------- Iteration    1(  10)  ---------------------------------------


    POTLOK:  cpu time    0.1850: real time    0.1853
    SETDIJ:  cpu time    0.0015: real time    0.0015
     EDDAV:  cpu time    0.0435: real time    0.1103
       DOS:  cpu time    0.0004: real time    0.0004
    CHARGE:  cpu time    0.0544: real time    0.0545
    MIXING:  cpu time    0.0102: real time    0.0105
    --------------------------------------------
      LOOP:  cpu time    0.2968: real time    0.3654

 eigenvalue-minimisations  :    24
 total energy-change (2. order) :-0.2837416E-02  (-0.6470212E-04)
 number of electron      10.0000088 magnetization 
 augmentation part        0.5573028 magnetization 

 Broyden mixing:
  rms(total) = 0.30545E-02    rms(broyden)= 0.30531E-02
  rms(prec ) = 0.51474E-02
  weight for this iteration     100.00

 eigenvalues of (default mixing * dielectric matrix)
  average eigenvalue GAMMA=   1.7859
  2.8628  2.3699  1.5418  1.1026  1.0525

 Free energy of the ion-electron system (eV)
  ---------------------------------------------------
  alpha Z        PSCENC =         0.14136994
  Ewald energy   TEWEN  =       259.31114400
  -Hartree energ DENC   =      -672.57527829
  -exchange      EXHF   =         0.00000000
  -V(xc)+E(xc)   XCENC  =        41.46269612
  PAW double counting   =      1283.09848500    -1286.58622768
  entropy T*S    EENTRO =        -0.00000000
  eigenvalues    EBANDS =      -162.71676888
  atomic energy  EATOM  =       527.72072720
  Solvation  Ediel_sol  =         0.00000000
  ---------------------------------------------------
  free energy    TOTEN  =       -10.14385259 eV

  energy without entropy =      -10.14385259  energy(sigma->0) =      -10.14385259


--------------------------------------------------------------------------------------------------------




----------------------------------------- Iteration    1(  11)  ---------------------------------------


    POTLOK:  cpu time    0.1853: real time    0.1855
    SETDIJ:  cpu time    0.0015: real time    0.0015
     EDDAV:  cpu time    0.0565: real time    0.1243
       DOS:  cpu time    0.0004: real time    0.0004
    CHARGE:  cpu time    0.0546: real time    0.0548
    MIXING:  cpu time    0.0099: real time    0.0099
    --------------------------------------------
      LOOP:  cpu time    0.3102: real time    0.3794

 eigenvalue-minimisations  :    36
 total energy-change (2. order) :-0.7773861E-03  (-0.5697189E-05)
 number of electron      10.0000088 magnetization 
 augmentation part        0.5573226 magnetization 

 Broyden mixing:
  rms(total) = 0.15030E-02    rms(broyden)= 0.15029E-02
  rms(prec ) = 0.34605E-02
  weight for this iteration     100.00

 eigenvalues of (default mixing * dielectric matrix)
  average eigenvalue GAMMA=   2.0858
  3.8533  2.6528  2.4651  1.5430  0.9668  1.0340

 Free energy of the ion-electron system (eV)
  ---------------------------------------------------
  alpha Z        PSCENC =         0.14136994
  Ewald energy   TEWEN  =       259.31114400
  -Hartree energ DENC   =      -672.66952590
  -exchange      EXHF   =         0.00000000
  -V(xc)+E(xc)   XCENC  =        41.46342630
  PAW double counting   =      1285.09024991    -1288.57838582
  entropy T*S    EENTRO =        -0.00000000
  eigenvalues    EBANDS =      -162.62363561
  atomic energy  EATOM  =       527.72072720
  Solvation  Ediel_sol  =         0.00000000
  ---------------------------------------------------
  free energy    TOTEN  =       -10.14462998 eV

  energy without entropy =      -10.14462998  energy(sigma->0) =      -10.14462998


--------------------------------------------------------------------------------------------------------




----------------------------------------- Iteration    1(  12)  ---------------------------------------


    POTLOK:  cpu time    0.1805: real time    0.1807
    SETDIJ:  cpu time    0.0015: real time    0.0016
     EDDAV:  cpu time    0.0585: real time    0.1265
       DOS:  cpu time    0.0002: real time    0.0002
    CHARGE:  cpu time    0.0545: real time    0.0548
    MIXING:  cpu time    0.0104: real time    0.0104
    --------------------------------------------
      LOOP:  cpu time    0.3073: real time    0.3772

 eigenvalue-minimisations  :    36
 total energy-change (2. order) :-0.1313957E-02  (-0.3864403E-04)
 number of electron      10.0000088 magnetization 
 augmentation part        0.5572667 magnetization 

 Broyden mixing:
  rms(total) = 0.93799E-03    rms(broyden)= 0.93767E-03
  rms(prec ) = 0.15638E-02
  weight for this iteration     100.00

 eigenvalues of (default mixing * dielectric matrix)
  average eigenvalue GAMMA=   2.0583
  4.5033  2.5823  2.2720  1.5393  1.5393  0.9859  0.9859

 Free energy of the ion-electron system (eV)
  ---------------------------------------------------
  alpha Z        PSCENC =         0.14136994
  Ewald energy   TEWEN  =       259.31114400
  -Hartree energ DENC   =      -672.93092726
  -exchange      EXHF   =         0.00000000
  -V(xc)+E(xc)   XCENC  =        41.46700128
  PAW double counting   =      1284.14071217    -1287.62810819
  entropy T*S    EENTRO =        -0.00000000
  eigenvalues    EBANDS =      -162.36786307
  atomic energy  EATOM  =       527.72072720
  Solvation  Ediel_sol  =         0.00000000
  ---------------------------------------------------
  free energy    TOTEN  =       -10.14594394 eV

  energy without entropy =      -10.14594394  energy(sigma->0) =      -10.14594394


--------------------------------------------------------------------------------------------------------




----------------------------------------- Iteration    1(  13)  ---------------------------------------


    POTLOK:  cpu time    0.1810: real time    0.1814
    SETDIJ:  cpu time    0.0015: real time    0.0015
     EDDAV:  cpu time    0.0443: real time    0.1136
       DOS:  cpu time    0.0001: real time    0.0001
    CHARGE:  cpu time    0.0544: real time    0.0546
    MIXING:  cpu time    0.0109: real time    0.0109
    --------------------------------------------
      LOOP:  cpu time    0.2939: real time    0.3649

 eigenvalue-minimisations  :    24
 total energy-change (2. order) :-0.5552371E-03  (-0.4011630E-05)
 number of electron      10.0000088 magnetization 
 augmentation part        0.5572286 magnetization 

 Broyden mixing:
  rms(total) = 0.10234E-02    rms(broyden)= 0.10231E-02
  rms(prec ) = 0.13359E-02
  weight for this iteration     100.00

 eigenvalues of (default mixing * dielectric matrix)
  average eigenvalue GAMMA=   2.2624
  5.6124  3.0637  2.3958  2.3958  1.5339  0.9603  0.9954  1.1414

 Free energy of the ion-electron system (eV)
  ---------------------------------------------------
  alpha Z        PSCENC =         0.14136994
  Ewald energy   TEWEN  =       259.31114400
  -Hartree energ DENC   =      -672.97153363
  -exchange      EXHF   =         0.00000000
  -V(xc)+E(xc)   XCENC  =        41.46748714
  PAW double counting   =      1283.03768825    -1286.52482548
  entropy T*S    EENTRO =        -0.00000000
  eigenvalues    EBANDS =      -162.32855659
  atomic energy  EATOM  =       527.72072720
  Solvation  Ediel_sol  =         0.00000000
  ---------------------------------------------------
  free energy    TOTEN  =       -10.14649917 eV

  energy without entropy =      -10.14649917  energy(sigma->0) =      -10.14649917


--------------------------------------------------------------------------------------------------------




----------------------------------------- Iteration    1(  14)  ---------------------------------------


    POTLOK:  cpu time    0.1776: real time    0.1778
    SETDIJ:  cpu time    0.0016: real time    0.0016
     EDDAV:  cpu time    0.0447: real time    0.1106
       DOS:  cpu time    0.0001: real time    0.0001
    CHARGE:  cpu time    0.0548: real time    0.0550
    MIXING:  cpu time    0.0109: real time    0.0109
    --------------------------------------------
      LOOP:  cpu time    0.2915: real time    0.3588

 eigenvalue-minimisations  :    24
 total energy-change (2. order) :-0.4227727E-03  (-0.3619579E-05)
 number of electron      10.0000088 magnetization 
 augmentation part        0.5572497 magnetization 

 Broyden mixing:
  rms(total) = 0.30354E-03    rms(broyden)= 0.30335E-03
  rms(prec ) = 0.48333E-03
  weight for this iteration     100.00

 eigenvalues of (default mixing * dielectric matrix)
  average eigenvalue GAMMA=   2.4262
  6.5193  3.6100  2.5839  2.2886  2.2886  1.5368  1.0643  0.9720  0.9720

 Free energy of the ion-electron system (eV)
  ---------------------------------------------------
  alpha Z        PSCENC =         0.14136994
  Ewald energy   TEWEN  =       259.31114400
  -Hartree energ DENC   =      -672.96961063
  -exchange      EXHF   =         0.00000000
  -V(xc)+E(xc)   XCENC  =        41.46558644
  PAW double counting   =      1283.99181905    -1287.47922959
  entropy T*S    EENTRO =        -0.00000000
  eigenvalues    EBANDS =      -162.32872835
  atomic energy  EATOM  =       527.72072720
  Solvation  Ediel_sol  =         0.00000000
  ---------------------------------------------------
  free energy    TOTEN  =       -10.14692195 eV

  energy without entropy =      -10.14692195  energy(sigma->0) =      -10.14692195


--------------------------------------------------------------------------------------------------------




----------------------------------------- Iteration    1(  15)  ---------------------------------------


    POTLOK:  cpu time    0.1746: real time    0.1749
    SETDIJ:  cpu time    0.0016: real time    0.0016
     EDDAV:  cpu time    0.0574: real time    0.1244
       DOS:  cpu time    0.0003: real time    0.0003
    CHARGE:  cpu time    0.0549: real time    0.0550
    MIXING:  cpu time    0.0116: real time    0.0117
    --------------------------------------------
      LOOP:  cpu time    0.3023: real time    0.3709

 eigenvalue-minimisations  :    36
 total energy-change (2. order) :-0.1611847E-03  (-0.6071009E-06)
 number of electron      10.0000088 magnetization 
 augmentation part        0.5572434 magnetization 

 Broyden mixing:
  rms(total) = 0.17163E-03    rms(broyden)= 0.17159E-03
  rms(prec ) = 0.23797E-03
  weight for this iteration     100.00

 eigenvalues of (default mixing * dielectric matrix)
  average eigenvalue GAMMA=   2.4896
  7.4681  4.3658  2.6990  2.4612  2.0377  1.5276  0.9637  1.0100  1.0100  1.3529

 Free energy of the ion-electron system (eV)
  ---------------------------------------------------
  alpha Z        PSCENC =         0.14136994
  Ewald energy   TEWEN  =       259.31114400
  -Hartree energ DENC   =      -672.97827082
  -exchange      EXHF   =         0.00000000
  -V(xc)+E(xc)   XCENC  =        41.46539365
  PAW double counting   =      1284.00136581    -1287.48882611
  entropy T*S    EENTRO =        -0.00000000
  eigenvalues    EBANDS =      -162.31998679
  atomic energy  EATOM  =       527.72072720
  Solvation  Ediel_sol  =         0.00000000
  ---------------------------------------------------
  free energy    TOTEN  =       -10.14708313 eV

  energy without entropy =      -10.14708313  energy(sigma->0) =      -10.14708313


--------------------------------------------------------------------------------------------------------




----------------------------------------- Iteration    1(  16)  ---------------------------------------


    POTLOK:  cpu time    0.1765: real time    0.1769
    SETDIJ:  cpu time    0.0015: real time    0.0015
     EDDAV:  cpu time    0.0560: real time    0.1267
       DOS:  cpu time    0.0002: real time    0.0002
    CHARGE:  cpu time    0.0543: real time    0.0544
    MIXING:  cpu time    0.0123: real time    0.0124
    --------------------------------------------
      LOOP:  cpu time    0.3026: real time    0.3807

 eigenvalue-minimisations  :    36
 total energy-change (2. order) :-0.5014323E-04  (-0.1361597E-06)
 number of electron      10.0000088 magnetization 
 augmentation part        0.5572419 magnetization 

 Broyden mixing:
  rms(total) = 0.17151E-03    rms(broyden)= 0.17150E-03
  rms(prec ) = 0.19730E-03
  weight for this iteration     100.00

 eigenvalues of (default mixing * dielectric matrix)
  average eigenvalue GAMMA=   2.7205
  8.7204  5.0060  3.5722  2.5699  2.3977  2.0108  1.5357  0.9646  1.0093  1.0093
  1.1293

 Free energy of the ion-electron system (eV)
  ---------------------------------------------------
  alpha Z        PSCENC =         0.14136994
  Ewald energy   TEWEN  =       259.31114400
  -Hartree energ DENC   =      -672.97839047
  -exchange      EXHF   =         0.00000000
  -V(xc)+E(xc)   XCENC  =        41.46531225
  PAW double counting   =      1283.73408417    -1287.22140825
  entropy T*S    EENTRO =        -0.00000000
  eigenvalues    EBANDS =      -162.31997211
  atomic energy  EATOM  =       527.72072720
  Solvation  Ediel_sol  =         0.00000000
  ---------------------------------------------------
  free energy    TOTEN  =       -10.14713328 eV

  energy without entropy =      -10.14713328  energy(sigma->0) =      -10.14713328


--------------------------------------------------------------------------------------------------------




----------------------------------------- Iteration    1(  17)  ---------------------------------------


    POTLOK:  cpu time    0.1845: real time    0.1847
    SETDIJ:  cpu time    0.0015: real time    0.0015
     EDDAV:  cpu time    0.0439: real time    0.1111
       DOS:  cpu time    0.0002: real time    0.0002
    CHARGE:  cpu time    0.0546: real time    0.0548
    MIXING:  cpu time    0.0125: real time    0.0125
    --------------------------------------------
      LOOP:  cpu time    0.2990: real time    0.3675

 eigenvalue-minimisations  :    24
 total energy-change (2. order) :-0.3915002E-04  (-0.7030612E-07)
 number of electron      10.0000088 magnetization 
 augmentation part        0.5572450 magnetization 

 Broyden mixing:
  rms(total) = 0.39479E-04    rms(broyden)= 0.39453E-04
  rms(prec ) = 0.54561E-04
  weight for this iteration     100.00

 eigenvalues of (default mixing * dielectric matrix)
  average eigenvalue GAMMA=   2.7903
  8.9509  5.4502  3.5744  3.2918  2.5115  2.2158  1.8807  1.5373  0.9670  0.9964
  1.0304  1.0777

 Free energy of the ion-electron system (eV)
  ---------------------------------------------------
  alpha Z        PSCENC =         0.14136994
  Ewald energy   TEWEN  =       259.31114400
  -Hartree energ DENC   =      -672.97968374
  -exchange      EXHF   =         0.00000000
  -V(xc)+E(xc)   XCENC  =        41.46529152
  PAW double counting   =      1283.84850215    -1287.33584334
  entropy T*S    EENTRO =        -0.00000000
  eigenvalues    EBANDS =      -162.31868014
  atomic energy  EATOM  =       527.72072720
  Solvation  Ediel_sol  =         0.00000000
  ---------------------------------------------------
  free energy    TOTEN  =       -10.14717243 eV

  energy without entropy =      -10.14717243  energy(sigma->0) =      -10.14717243


--------------------------------------------------------------------------------------------------------




----------------------------------------- Iteration    1(  18)  ---------------------------------------


    POTLOK:  cpu time    0.1932: real time    0.1933
    SETDIJ:  cpu time    0.0015: real time    0.0015
     EDDAV:  cpu time    0.0569: real time    0.1245
       DOS:  cpu time    0.0006: real time    0.0006
    CHARGE:  cpu time    0.0549: real time    0.0550
    MIXING:  cpu time    0.0128: real time    0.0128
    --------------------------------------------
      LOOP:  cpu time    0.3217: real time    0.3907

 eigenvalue-minimisations  :    36
 total energy-change (2. order) :-0.8975065E-05  (-0.3877197E-08)
 number of electron      10.0000088 magnetization 
 augmentation part        0.5572440 magnetization 

 Broyden mixing:
  rms(total) = 0.41844E-04    rms(broyden)= 0.41841E-04
  rms(prec ) = 0.46390E-04
  weight for this iteration     100.00

 eigenvalues of (default mixing * dielectric matrix)
  average eigenvalue GAMMA=   2.7826
  9.1535  5.5811  4.3264  3.0886  2.7123  2.4683  2.0521  1.5371  0.9693  0.9896
  1.0297  1.0297  1.2356

 Free energy of the ion-electron system (eV)
  ---------------------------------------------------
  alpha Z        PSCENC =         0.14136994
  Ewald energy   TEWEN  =       259.31114400
  -Hartree energ DENC   =      -672.98067952
  -exchange      EXHF   =         0.00000000
  -V(xc)+E(xc)   XCENC  =        41.46533922
  PAW double counting   =      1283.87831288    -1287.36569126
  entropy T*S    EENTRO =        -0.00000000
  eigenvalues    EBANDS =      -162.31770384
  atomic energy  EATOM  =       527.72072720
  Solvation  Ediel_sol  =         0.00000000
  ---------------------------------------------------
  free energy    TOTEN  =       -10.14718140 eV

  energy without entropy =      -10.14718140  energy(sigma->0) =      -10.14718140


--------------------------------------------------------------------------------------------------------




----------------------------------------- Iteration    1(  19)  ---------------------------------------


    POTLOK:  cpu time    0.1962: real time    0.1963
    SETDIJ:  cpu time    0.0015: real time    0.0015
     EDDAV:  cpu time    0.0446: real time    0.1102
       DOS:  cpu time    0.0002: real time    0.0002
    --------------------------------------------
      LOOP:  cpu time    0.2441: real time    0.3112

 eigenvalue-minimisations  :    24
 total energy-change (2. order) :-0.3748634E-05  (-0.1833158E-08)
 number of electron      10.0000088 magnetization 
 augmentation part        0.5572440 magnetization 

 Free energy of the ion-electron system (eV)
  ---------------------------------------------------
  alpha Z        PSCENC =         0.14136994
  Ewald energy   TEWEN  =       259.31114400
  -Hartree energ DENC   =      -672.98128523
  -exchange      EXHF   =         0.00000000
  -V(xc)+E(xc)   XCENC  =        41.46535766
  PAW double counting   =      1283.83170032    -1287.31906038
  entropy T*S    EENTRO =        -0.00000000
  eigenvalues    EBANDS =      -162.31713866
  atomic energy  EATOM  =       527.72072720
  Solvation  Ediel_sol  =         0.00000000
  ---------------------------------------------------
  free energy    TOTEN  =       -10.14718515 eV

  energy without entropy =      -10.14718515  energy(sigma->0) =      -10.14718515


--------------------------------------------------------------------------------------------------------




 average (electrostatic) potential at core
  the test charge radii are     0.7089
  (the norm of the test charge is              1.0000)
       1 -77.4012       2 -77.4012
 
 
 
 E-fermi :  -9.7931     XC(G=0):  -0.2796     alpha+bet : -0.0570


 k-point     1 :       0.0000    0.0000    0.0000
  band No.  band energies     occupation 
      1     -31.5725      2.00000
      2     -13.7555      2.00000
      3     -13.7555      2.00000
      4     -12.0389      2.00000
      5     -10.0362      2.00000
      6      -0.1729      0.00000
      7       0.4451      0.00000
      8       0.4969      0.00000
      9       0.4969      0.00000
     10       0.5554      0.00000
     11       0.6017      0.00000
     12       0.6237      0.00000


--------------------------------------------------------------------------------------------------------


 soft charge-density along one line, spin component           1
         0         1         2         3         4         5         6         7         8         9
 total charge-density along one line
 
 pseudopotential strength for first ion, spin component:           1
 14.421  17.325  -0.000  -0.000  -0.066  -0.000  -0.000  -0.153
 17.325  20.814  -0.000  -0.000  -0.081  -0.000  -0.000  -0.185
 -0.000  -0.000  -7.553   0.000   0.000 -10.514   0.000   0.000
 -0.000  -0.000   0.000  -7.553   0.000   0.000 -10.514   0.000
 -0.066  -0.081   0.000   0.000  -7.935   0.000   0.000 -11.126
 -0.000  -0.000 -10.514   0.000   0.000 -13.992   0.000   0.000
 -0.000  -0.000   0.000 -10.514   0.000   0.000 -13.992   0.000
 -0.153  -0.185   0.000   0.000 -11.126   0.000   0.000 -14.955
 total augmentation occupancy for first ion, spin component:           1
 13.151  -7.269   0.000  -0.000   2.358   0.000  -0.000  -0.651
 -7.269   4.372   0.000   0.000  -1.985   0.000  -0.000   0.647
  0.000  -0.000   1.547   0.000   0.000  -0.142   0.000  -0.000
 -0.000   0.000   0.000   1.547   0.000   0.000  -0.142   0.000
  2.358  -1.985   0.000   0.000   2.211   0.000  -0.000  -0.373
 -0.000  -0.000  -0.142   0.000   0.000   0.013   0.000   0.000
 -0.000  -0.000   0.000  -0.142   0.000   0.000   0.013   0.000
 -0.651   0.647  -0.000   0.000  -0.373  -0.000   0.000   0.451


------------------------ aborting loop because EDIFF is reached ----------------------------------------


    CHARGE:  cpu time    0.0540: real time    0.0541
    FORLOC:  cpu time    0.0090: real time    0.0090
    FORNL :  cpu time    0.0112: real time    0.0920
    STRESS:  cpu time    0.0931: real time    0.3220
    FORCOR:  cpu time    0.2022: real time    0.2023
    FORHAR:  cpu time    0.0460: real time    0.0464
    MIXING:  cpu time    0.0133: real time    0.0133
    OFIELD:  cpu time    0.0001: real time    0.0001

  FORCE on cell =-STRESS in cart. coord.  units (eV):
  Direction    XX          YY          ZZ          XY          YZ          ZX
  --------------------------------------------------------------------------------------
  Alpha Z     0.14137     0.14137     0.14137
  Ewald     353.43766   -47.06327   -47.06327    -0.00000    -0.00000    -0.00000
  Hartree   295.49883   188.74077   188.74077    -0.00000    -0.00000    -0.00000
  E(xc)     -43.37017   -44.66710   -44.66710     0.00000     0.00000     0.00000
  Local    -704.43258  -289.40437  -289.40437    -0.00000    -0.00000    -0.00000
  n-local   -28.12880   -19.05966   -19.05966     0.00000     0.00000     0.00000
  augment    -1.02548     2.35628     2.35628     0.00000     0.00000     0.00000
  Kinetic   190.77095   202.74895   202.74895     0.00000    -0.00000    -0.00000
  Fock        0.00000     0.00000     0.00000     0.00000     0.00000     0.00000
  -------------------------------------------------------------------------------------
  Total      62.89178    -6.20703    -6.20703     0.00000     0.00000    -0.00000
  in kB      33.05220    -3.26205    -3.26205     0.00000     0.00000    -0.00000
  external pressure =        8.84 kB  Pullay stress =        0.00 kB


 VOLUME and BASIS-vectors are now :
 -----------------------------------------------------------------------------
  energy-cutoff  :      300.00
  volume of cell :     3048.62
      direct lattice vectors                 reciprocal lattice vectors
    14.500000000  0.000000000  0.000000000     0.068965517  0.000000000  0.000000000
     0.000000000 14.500000000  0.000000000     0.000000000  0.068965517  0.000000000
     0.000000000  0.000000000 14.500000000     0.000000000  0.000000000  0.068965517

  length of vectors
    14.500000000 14.500000000 14.500000000     0.068965517  0.068965517  0.068965517


 FORCES acting on ions
    electron-ion (+dipol)            ewald-force                    non-local-force                 convergence-correction
 -----------------------------------------------------------------------------------------------
   0.318E+03 -.897E-15 -.572E-15   -.444E+03 0.151E-16 -.651E-17   0.513E+02 -.323E-24 0.614E-24   0.216E-03 -.401E-13 -.308E-13
   -.318E+03 0.573E-15 -.105E-04   0.444E+03 0.109E-16 0.996E-17   -.513E+02 0.659E-24 -.738E-24   -.216E-03 -.409E-13 -.249E-13
 -----------------------------------------------------------------------------------------------
   -.586E-04 -.323E-15 -.105E-04   0.000E+00 0.260E-16 0.345E-17   0.284E-13 0.336E-24 -.124E-24   -.903E-10 -.809E-13 -.556E-13
 
 
 POSITION                                       TOTAL-FORCE (eV/Angst)
 -----------------------------------------------------------------------------------
      0.00000      0.00000      0.00000       -74.745785      0.000000      0.000000
      0.90000      0.00000      0.00000        74.745785     -0.000000     -0.000000
 -----------------------------------------------------------------------------------
    total drift:                               -0.000059     -0.000000     -0.000011


--------------------------------------------------------------------------------------------------------



  FREE ENERGIE OF THE ION-ELECTRON SYSTEM (eV)
  ---------------------------------------------------
  free  energy   TOTEN  =       -10.14718515 eV

  energy  without entropy=      -10.14718515  energy(sigma->0) =      -10.14718515
 


--------------------------------------------------------------------------------------------------------


    POTLOK:  cpu time    0.2012: real time    0.2014


--------------------------------------------------------------------------------------------------------


     LOOP+:  cpu time    5.4137: real time    7.1284
    4ORBIT:  cpu time    0.0000: real time    0.0000

 total amount of memory used by VASP MPI-rank0    73047. kBytes
=======================================================================

   base      :      30000. kBytes
   nonlr-proj:        598. kBytes
   fftplans  :      13257. kBytes
   grid      :      28033. kBytes
   one-center:          6. kBytes
   wavefun   :       1153. kBytes
 
  
  
 General timing and accounting informations for this job:
 ========================================================
  
                  Total CPU time used (sec):        6.934
                            User time (sec):        3.574
                          System time (sec):        3.360
                         Elapsed time (sec):       11.097
  
                   Maximum memory used (kb):      347968.
                   Average memory used (kb):           0.
  
                          Minor page faults:       361422
                          Major page faults:           39
                 Voluntary context switches:         5192
