NiAl                                    
           1
    14.500000    0.000000    0.000000
     0.000000   14.500000    0.000000
     0.000000    0.000000   14.500000
   N 
   2
Direct configuration=     1
   0.00000000  0.00000000  0.00000000
   0.06206897  0.00000000  0.00000000
