 254 254   0   0
  0.3019211E+02  0.1718057E-08  0.1718057E-08  0.3000000E-08  0.5000000E-15
  1.000000000000000E-004
  CAR 
 NiAl                                    
      5.42907541    -22.32877330  301      1.82131521      1.00000000
    -22.329  0.0000E+00  0.0000E+00
    -22.236  0.0000E+00  0.0000E+00
    -22.144  0.0000E+00  0.0000E+00
    -22.051  0.0000E+00  0.0000E+00
    -21.959  0.0000E+00  0.0000E+00
    -21.866  0.0000E+00  0.0000E+00
    -21.774  0.0000E+00  0.0000E+00
    -21.681  0.0000E+00  0.0000E+00
    -21.589  0.0000E+00  0.0000E+00
    -21.496  0.0000E+00  0.0000E+00
    -21.404  0.0000E+00  0.0000E+00
    -21.311  0.5618E-10  0.5199E-11
    -21.218  0.1993E-03  0.1844E-04
    -21.126  0.1034E+01  0.9572E-01
    -21.033  0.1689E+02  0.1658E+01
    -20.941  0.3688E+01  0.2000E+01
    -20.848  0.3886E-02  0.2000E+01
    -20.756  0.6707E-08  0.2000E+01
    -20.663  0.0000E+00  0.2000E+01
    -20.571  0.0000E+00  0.2000E+01
    -20.478  0.0000E+00  0.2000E+01
    -20.386  0.0000E+00  0.2000E+01
    -20.293  0.0000E+00  0.2000E+01
    -20.201  0.0000E+00  0.2000E+01
    -20.108  0.0000E+00  0.2000E+01
    -20.016  0.0000E+00  0.2000E+01
    -19.923  0.0000E+00  0.2000E+01
    -19.831  0.0000E+00  0.2000E+01
    -19.738  0.0000E+00  0.2000E+01
    -19.646  0.0000E+00  0.2000E+01
    -19.553  0.0000E+00  0.2000E+01
    -19.460  0.0000E+00  0.2000E+01
    -19.368  0.0000E+00  0.2000E+01
    -19.275  0.0000E+00  0.2000E+01
    -19.183  0.0000E+00  0.2000E+01
    -19.090  0.0000E+00  0.2000E+01
    -18.998  0.0000E+00  0.2000E+01
    -18.905  0.0000E+00  0.2000E+01
    -18.813  0.0000E+00  0.2000E+01
    -18.720  0.0000E+00  0.2000E+01
    -18.628  0.0000E+00  0.2000E+01
    -18.535  0.0000E+00  0.2000E+01
    -18.443  0.0000E+00  0.2000E+01
    -18.350  0.0000E+00  0.2000E+01
    -18.258  0.0000E+00  0.2000E+01
    -18.165  0.0000E+00  0.2000E+01
    -18.073  0.0000E+00  0.2000E+01
    -17.980  0.0000E+00  0.2000E+01
    -17.888  0.0000E+00  0.2000E+01
    -17.795  0.0000E+00  0.2000E+01
    -17.702  0.0000E+00  0.2000E+01
    -17.610  0.0000E+00  0.2000E+01
    -17.517  0.0000E+00  0.2000E+01
    -17.425  0.0000E+00  0.2000E+01
    -17.332  0.0000E+00  0.2000E+01
    -17.240  0.0000E+00  0.2000E+01
    -17.147  0.0000E+00  0.2000E+01
    -17.055  0.0000E+00  0.2000E+01
    -16.962  0.0000E+00  0.2000E+01
    -16.870  0.0000E+00  0.2000E+01
    -16.777  0.0000E+00  0.2000E+01
    -16.685  0.0000E+00  0.2000E+01
    -16.592  0.0000E+00  0.2000E+01
    -16.500  0.0000E+00  0.2000E+01
    -16.407  0.0000E+00  0.2000E+01
    -16.315  0.0000E+00  0.2000E+01
    -16.222  0.0000E+00  0.2000E+01
    -16.130  0.0000E+00  0.2000E+01
    -16.037  0.0000E+00  0.2000E+01
    -15.944  0.0000E+00  0.2000E+01
    -15.852  0.0000E+00  0.2000E+01
    -15.759  0.0000E+00  0.2000E+01
    -15.667  0.0000E+00  0.2000E+01
    -15.574  0.0000E+00  0.2000E+01
    -15.482  0.0000E+00  0.2000E+01
    -15.389  0.0000E+00  0.2000E+01
    -15.297  0.0000E+00  0.2000E+01
    -15.204  0.0000E+00  0.2000E+01
    -15.112  0.0000E+00  0.2000E+01
    -15.019  0.0000E+00  0.2000E+01
    -14.927  0.0000E+00  0.2000E+01
    -14.834  0.0000E+00  0.2000E+01
    -14.742  0.0000E+00  0.2000E+01
    -14.649  0.0000E+00  0.2000E+01
    -14.557  0.0000E+00  0.2000E+01
    -14.464  0.0000E+00  0.2000E+01
    -14.372  0.0000E+00  0.2000E+01
    -14.279  0.0000E+00  0.2000E+01
    -14.186  0.0000E+00  0.2000E+01
    -14.094  0.0000E+00  0.2000E+01
    -14.001  0.0000E+00  0.2000E+01
    -13.909  0.0000E+00  0.2000E+01
    -13.816  0.0000E+00  0.2000E+01
    -13.724  0.0000E+00  0.2000E+01
    -13.631  0.0000E+00  0.2000E+01
    -13.539  0.0000E+00  0.2000E+01
    -13.446  0.0000E+00  0.2000E+01
    -13.354  0.0000E+00  0.2000E+01
    -13.261  0.0000E+00  0.2000E+01
    -13.169  0.0000E+00  0.2000E+01
    -13.076  0.0000E+00  0.2000E+01
    -12.984  0.0000E+00  0.2000E+01
    -12.891  0.0000E+00  0.2000E+01
    -12.799  0.0000E+00  0.2000E+01
    -12.706  0.0000E+00  0.2000E+01
    -12.614  0.0000E+00  0.2000E+01
    -12.521  0.0000E+00  0.2000E+01
    -12.428  0.0000E+00  0.2000E+01
    -12.336  0.0000E+00  0.2000E+01
    -12.243  0.0000E+00  0.2000E+01
    -12.151  0.0000E+00  0.2000E+01
    -12.058  0.0000E+00  0.2000E+01
    -11.966  0.0000E+00  0.2000E+01
    -11.873  0.0000E+00  0.2000E+01
    -11.781  0.0000E+00  0.2000E+01
    -11.688  0.0000E+00  0.2000E+01
    -11.596  0.0000E+00  0.2000E+01
    -11.503  0.0000E+00  0.2000E+01
    -11.411  0.0000E+00  0.2000E+01
    -11.318  0.0000E+00  0.2000E+01
    -11.226  0.0000E+00  0.2000E+01
    -11.133  0.0000E+00  0.2000E+01
    -11.041  0.0000E+00  0.2000E+01
    -10.948  0.0000E+00  0.2000E+01
    -10.856  0.0000E+00  0.2000E+01
    -10.763  0.0000E+00  0.2000E+01
    -10.670  0.0000E+00  0.2000E+01
    -10.578  0.0000E+00  0.2000E+01
    -10.485  0.0000E+00  0.2000E+01
    -10.393  0.0000E+00  0.2000E+01
    -10.300  0.0000E+00  0.2000E+01
    -10.208  0.5234E-11  0.2000E+01
    -10.115  0.4298E-04  0.2000E+01
    -10.023  0.4969E+00  0.2046E+01
     -9.930  0.1534E+02  0.3466E+01
     -9.838  0.5761E+01  0.3999E+01
     -9.745  0.1299E-01  0.4000E+01
     -9.653  0.5139E-07  0.4000E+01
     -9.560  0.0000E+00  0.4000E+01
     -9.468  0.0000E+00  0.4000E+01
     -9.375  0.6851E-12  0.4000E+01
     -9.283  0.7030E-05  0.4000E+01
     -9.190  0.1007E+00  0.4009E+01
     -9.098  0.3701E+01  0.4352E+01
     -9.005  0.3499E+01  0.4675E+01
     -8.912  0.2573E+02  0.7056E+01
     -8.820  0.5176E+01  0.7535E+01
     -8.727  0.4389E+01  0.7941E+01
     -8.635  0.1639E+02  0.9457E+01
     -8.542  0.4687E+02  0.1379E+02
     -8.450  0.1866E+02  0.1552E+02
     -8.357  0.1614E+02  0.1701E+02
     -8.265  0.1822E+02  0.1870E+02
     -8.172  0.1743E+02  0.2031E+02
     -8.080  0.2439E+02  0.2257E+02
     -7.987  0.3284E+02  0.2561E+02
     -7.895  0.6874E+02  0.3197E+02
     -7.802  0.5821E+01  0.3251E+02
     -7.710  0.8525E+01  0.3330E+02
     -7.617  0.5624E+02  0.3850E+02
     -7.525  0.6930E+02  0.4491E+02
     -7.432  0.1805E+02  0.4658E+02
     -7.340  0.2135E+02  0.4856E+02
     -7.247  0.2867E+02  0.5121E+02
     -7.154  0.2543E+02  0.5356E+02
     -7.062  0.4567E+02  0.5779E+02
     -6.969  0.6150E+02  0.6348E+02
     -6.877  0.7566E+02  0.7048E+02
     -6.784  0.3707E+02  0.7391E+02
     -6.692  0.4420E+02  0.7800E+02
     -6.599  0.6618E+02  0.8412E+02
     -6.507  0.5442E+02  0.8916E+02
     -6.414  0.4329E+02  0.9316E+02
     -6.322  0.8815E+01  0.9398E+02
     -6.229  0.2276E+01  0.9419E+02
     -6.137  0.3774E+02  0.9768E+02
     -6.044  0.1023E+03  0.1071E+03
     -5.952  0.9320E+02  0.1158E+03
     -5.859  0.5772E+02  0.1211E+03
     -5.767  0.2852E+02  0.1238E+03
     -5.674  0.4929E+02  0.1283E+03
     -5.582  0.1109E+03  0.1386E+03
     -5.489  0.4543E+02  0.1428E+03
     -5.396  0.2610E+02  0.1452E+03
     -5.304  0.4347E+02  0.1492E+03
     -5.211  0.5226E+02  0.1541E+03
     -5.119  0.5624E+02  0.1593E+03
     -5.026  0.8079E+02  0.1667E+03
     -4.934  0.8122E+02  0.1742E+03
     -4.841  0.3025E+02  0.1770E+03
     -4.749  0.4119E+02  0.1809E+03
     -4.656  0.9018E+02  0.1892E+03
     -4.564  0.9815E+02  0.1983E+03
     -4.471  0.6709E+02  0.2045E+03
     -4.379  0.2541E+02  0.2068E+03
     -4.286  0.6523E+02  0.2129E+03
     -4.194  0.6653E+02  0.2190E+03
     -4.101  0.1282E+03  0.2309E+03
     -4.009  0.9243E+02  0.2394E+03
     -3.916  0.4757E+02  0.2438E+03
     -3.824  0.5542E+02  0.2490E+03
     -3.731  0.6884E+02  0.2553E+03
     -3.638  0.9519E+02  0.2641E+03
     -3.546  0.5805E+02  0.2695E+03
     -3.453  0.5717E+02  0.2748E+03
     -3.361  0.2427E+02  0.2771E+03
     -3.268  0.1893E+02  0.2788E+03
     -3.176  0.8491E+02  0.2867E+03
     -3.083  0.8543E+02  0.2946E+03
     -2.991  0.1172E+03  0.3054E+03
     -2.898  0.7677E+02  0.3125E+03
     -2.806  0.1366E+03  0.3252E+03
     -2.713  0.1823E+03  0.3420E+03
     -2.621  0.6209E+02  0.3478E+03
     -2.528  0.1396E+02  0.3491E+03
     -2.436  0.2506E+02  0.3514E+03
     -2.343  0.6442E+02  0.3573E+03
     -2.251  0.1216E+03  0.3686E+03
     -2.158  0.7659E+02  0.3757E+03
     -2.066  0.1141E+03  0.3862E+03
     -1.973  0.3657E+02  0.3896E+03
     -1.880  0.7187E+02  0.3963E+03
     -1.788  0.1236E+03  0.4077E+03
     -1.695  0.1300E+03  0.4197E+03
     -1.603  0.3644E+02  0.4231E+03
     -1.510  0.7352E+02  0.4299E+03
     -1.418  0.6580E+02  0.4360E+03
     -1.325  0.1321E+03  0.4482E+03
     -1.233  0.1294E+03  0.4602E+03
     -1.140  0.1234E+03  0.4716E+03
     -1.048  0.7236E+02  0.4783E+03
     -0.955  0.7717E+02  0.4854E+03
     -0.863  0.9726E+02  0.4944E+03
     -0.770  0.1196E+03  0.5055E+03
     -0.678  0.7661E+02  0.5126E+03
     -0.585  0.4180E+02  0.5165E+03
     -0.493  0.7580E+02  0.5235E+03
     -0.400  0.1832E+03  0.5404E+03
     -0.308  0.1166E+03  0.5512E+03
     -0.215  0.1344E+03  0.5637E+03
     -0.122  0.6927E+02  0.5701E+03
     -0.030  0.4553E+02  0.5743E+03
      0.063  0.6367E+02  0.5802E+03
      0.155  0.1030E+03  0.5897E+03
      0.248  0.8893E+02  0.5979E+03
      0.340  0.8831E+02  0.6061E+03
      0.433  0.8134E+02  0.6136E+03
      0.525  0.1393E+03  0.6265E+03
      0.618  0.7213E+02  0.6332E+03
      0.710  0.6911E+02  0.6396E+03
      0.803  0.4704E+02  0.6439E+03
      0.895  0.6951E+02  0.6504E+03
      0.988  0.1946E+03  0.6684E+03
      1.080  0.1923E+03  0.6862E+03
      1.173  0.1107E+03  0.6964E+03
      1.265  0.8264E+02  0.7041E+03
      1.358  0.6730E+02  0.7103E+03
      1.450  0.8876E+02  0.7185E+03
      1.543  0.1113E+03  0.7288E+03
      1.636  0.1619E+03  0.7438E+03
      1.728  0.1570E+03  0.7583E+03
      1.821  0.8269E+02  0.7660E+03
      1.913  0.6335E+02  0.7718E+03
      2.006  0.1418E+03  0.7849E+03
      2.098  0.1012E+03  0.7943E+03
      2.191  0.8783E+02  0.8024E+03
      2.283  0.8000E+02  0.8098E+03
      2.376  0.7067E+02  0.8164E+03
      2.468  0.1076E+03  0.8263E+03
      2.561  0.8181E+02  0.8339E+03
      2.653  0.1438E+03  0.8472E+03
      2.746  0.8907E+02  0.8554E+03
      2.838  0.8272E+02  0.8631E+03
      2.931  0.1819E+03  0.8799E+03
      3.023  0.2545E+03  0.9035E+03
      3.116  0.1206E+03  0.9146E+03
      3.208  0.6486E+02  0.9206E+03
      3.301  0.1007E+03  0.9299E+03
      3.393  0.1321E+03  0.9422E+03
      3.486  0.1299E+03  0.9542E+03
      3.579  0.1073E+03  0.9641E+03
      3.671  0.8458E+02  0.9719E+03
      3.764  0.1095E+03  0.9821E+03
      3.856  0.7273E+02  0.9888E+03
      3.949  0.1290E+03  0.1001E+04
      4.041  0.1733E+03  0.1017E+04
      4.134  0.1179E+03  0.1028E+04
      4.226  0.4560E+02  0.1032E+04
      4.319  0.1165E+01  0.1032E+04
      4.411  0.1474E-03  0.1032E+04
      4.504  0.3273E-10  0.1032E+04
      4.596  0.0000E+00  0.1032E+04
      4.689  0.0000E+00  0.1032E+04
      4.781  0.0000E+00  0.1032E+04
      4.874  0.0000E+00  0.1032E+04
      4.966  0.0000E+00  0.1032E+04
      5.059  0.0000E+00  0.1032E+04
      5.151  0.0000E+00  0.1032E+04
      5.244  0.0000E+00  0.1032E+04
      5.337  0.0000E+00  0.1032E+04
      5.429  0.0000E+00  0.1032E+04
