 vasp.5.4.4.18Apr17-6-g9f103f2a35 (build May 02 2017 15:33:50) complex          
  
 executed on Intel-16.0.3.210-OMP date 2018.08.08  18:02:06
 running on    6 total cores
 distrk:  each k-point on    6 cores,    1 groups
 distr:  one band on NCORES_PER_BAND=   1 cores,    6 groups


--------------------------------------------------------------------------------------------------------


 INCAR:
 POTCAR:    PAW Al_GW 19Mar2012                   
 POTCAR:    PAW_PBE N 08Apr2002                   

 ----------------------------------------------------------------------------- 
|                                                                             |
|           W    W    AA    RRRRR   N    N  II  N    N   GGGG   !!!           |
|           W    W   A  A   R    R  NN   N  II  NN   N  G    G  !!!           |
|           W    W  A    A  R    R  N N  N  II  N N  N  G       !!!           |
|           W WW W  AAAAAA  RRRRR   N  N N  II  N  N N  G  GGG   !            |
|           WW  WW  A    A  R   R   N   NN  II  N   NN  G    G                |
|           W    W  A    A  R    R  N    N  II  N    N   GGGG   !!!           |
|                                                                             |
|      For optimal performance we recommend to set                            |
|        NCORE= 4 - approx SQRT( number of cores)                             |
|      NCORE specifies how many cores store one orbital (NPAR=cpu/NCORE).     |
|      This setting can  greatly improve the performance of VASP for DFT.     |
|      The default,   NCORE=1            might be grossly inefficient         |
|      on modern multi-core architectures or massively parallel machines.     |
|      Do your own testing !!!!                                               |
|      Unfortunately you need to use the default for GW and RPA calculations. |
|      (for HF NCORE is supported but not extensively tested yet)             |
|                                                                             |
 ----------------------------------------------------------------------------- 

 POTCAR:    PAW Al_GW 19Mar2012                   
   VRHFIN =Al: s2p1                                                             
   LEXCH  = PE                                                                  
   EATOM  =    53.5387 eV,    3.9350 Ry                                         
                                                                                
   TITEL  = PAW Al_GW 19Mar2012                                                 
   LULTRA =        F    use ultrasoft PP ?                                      
   IUNSCR =        1    unscreen: 0-lin 1-nonlin 2-no                           
   RPACOR =    1.500    partial core radius                                     
   POMASS =   26.982; ZVAL   =    3.000    mass and valenz                      
   RCORE  =    2.000    outmost cutoff radius                                   
   RWIGS  =    2.000; RWIGS  =    1.058    wigner-seitz radius (au A)           
   ENMAX  =  240.300; ENMIN  =  180.225 eV                                      
   ICORE  =        3    local potential                                         
   LCOR   =        T    correct aug charges                                     
   LPAW   =        T    paw PP                                                  
   EAUG   =  482.059                                                            
   DEXC   =    0.000                                                            
   RMAX   =    2.051    core radius for proj-oper                               
   RAUG   =    1.300    factor for augmentation sphere                          
   RDEP   =    2.096    radius for radial grids                                 
   RDEPT  =    1.856    core radius for aug-charge                              
                                                                                
   Atomic configuration                                                         
    7 entries                                                                   
     n  l   j            E        occ.                                          
     1  0  0.50     -1511.1048   2.0000                                         
     2  0  0.50      -108.1629   2.0000                                         
     2  1  1.50       -69.6402   6.0000                                         
     3  0  0.50        -7.7528   2.0000                                         
     3  1  1.50        -2.7121   1.0000                                         
     3  2  2.50        -2.7212   0.0000                                         
     4  3  2.50        -2.7212   0.0000                                         
   Description                                                                  
     l       E           TYP  RCUT    TYP  RCUT                                 
     0     -7.7528455     23  1.900                                             
     0     68.0291300     23  1.900                                             
     1     -2.7120682     23  1.900                                             
     1     68.0291300     23  1.900                                             
     2     -1.3605826     23  1.900                                             
     2     81.6349560     23  1.900                                             
     3     74.8320430     23  2.000                                             
  local pseudopotential read in
  partial core-charges read in
  partial kinetic energy density read in
  kinetic energy density of atom read in
  atomic valenz-charges read in
  non local Contribution for L=           0  read in
    real space projection operators read in
  non local Contribution for L=           0  read in
    real space projection operators read in
  non local Contribution for L=           1  read in
    real space projection operators read in
  non local Contribution for L=           1  read in
    real space projection operators read in
  non local Contribution for L=           2  read in
    real space projection operators read in
  non local Contribution for L=           2  read in
    real space projection operators read in
    PAW grid and wavefunctions read in
 
   number of l-projection  operators is LMAX  =           6
   number of lm-projection operators is LMMAX =          18
 
 POTCAR:    PAW_PBE N 08Apr2002                   
   VRHFIN =N: s2p3                                                              
   LEXCH  = PE                                                                  
   EATOM  =   264.5486 eV,   19.4438 Ry                                         
                                                                                
   TITEL  = PAW_PBE N 08Apr2002                                                 
   LULTRA =        F    use ultrasoft PP ?                                      
   IUNSCR =        1    unscreen: 0-lin 1-nonlin 2-no                           
   RPACOR =    1.200    partial core radius                                     
   POMASS =   14.001; ZVAL   =    5.000    mass and valenz                      
   RCORE  =    1.500    outmost cutoff radius                                   
   RWIGS  =    1.400; RWIGS  =    0.741    wigner-seitz radius (au A)           
   ENMAX  =  400.000; ENMIN  =  300.000 eV                                      
   ICORE  =        2    local potential                                         
   LCOR   =        T    correct aug charges                                     
   LPAW   =        T    paw PP                                                  
   EAUG   =  627.112                                                            
   DEXC   =    0.000                                                            
   RMAX   =    1.529    core radius for proj-oper                               
   RAUG   =    1.300    factor for augmentation sphere                          
   RDEP   =    1.514    radius for radial grids                                 
   RDEPT  =    1.338    core radius for aug-charge                              
                                                                                
   Atomic configuration                                                         
    4 entries                                                                   
     n  l   j            E        occ.                                          
     1  0  0.50      -384.7179   2.0000                                         
     2  0  0.50       -18.5828   2.0000                                         
     2  1  0.50        -7.0898   3.0000                                         
     3  2  1.50        -6.8029   0.0000                                         
   Description                                                                  
     l       E           TYP  RCUT    TYP  RCUT                                 
     0    -18.5828119     23  1.200                                             
     0    -13.5018863     23  1.200                                             
     1     -7.0897853     23  1.500                                             
     1      9.5240782     23  1.500                                             
     2     -6.8029130      7  1.500                                             
  local pseudopotential read in
  partial core-charges read in
  partial kinetic energy density read in
  atomic valenz-charges read in
  non local Contribution for L=           0  read in
    real space projection operators read in
  non local Contribution for L=           0  read in
    real space projection operators read in
  non local Contribution for L=           1  read in
    real space projection operators read in
  non local Contribution for L=           1  read in
    real space projection operators read in
    PAW grid and wavefunctions read in
 
   number of l-projection  operators is LMAX  =           4
   number of lm-projection operators is LMMAX =           8
 
 Optimization of the real space projectors (new method)

 maximal supplied QI-value         = 18.90
 optimisation between [QCUT,QGAM] = [  8.69, 17.57] = [ 21.16, 86.49] Ry 
 Optimized for a Real-space Cutoff    1.59 Angstroem

   l    n(q)    QCUT    max X(q) W(low)/X(q) W(high)/X(q)  e(spline) 
   0      8     8.693    11.519    0.12E-03    0.31E-04    0.21E-06
   0      8     8.693     5.834    0.89E-04    0.32E-04    0.16E-06
   1      8     8.693    10.132    0.25E-03    0.39E-03    0.25E-06
   1      8     8.693     3.004    0.16E-03    0.27E-03    0.22E-06
   2      7     8.693     3.169    0.39E-03    0.93E-03    0.44E-06
   2      7     8.693     1.605    0.70E-04    0.91E-04    0.19E-06
 Optimization of the real space projectors (new method)

 maximal supplied QI-value         = 25.13
 optimisation between [QCUT,QGAM] = [  8.80, 17.59] = [ 21.67, 86.68] Ry 
 Optimized for a Real-space Cutoff    2.14 Angstroem

   l    n(q)    QCUT    max X(q) W(low)/X(q) W(high)/X(q)  e(spline) 
   0     11     8.797    79.467    0.70E-04    0.19E-04    0.19E-05
   0     11     8.797    66.151    0.68E-04    0.18E-04    0.19E-05
   1     11     8.797     6.738    0.26E-03    0.11E-02    0.73E-05
   1     11     8.797     5.013    0.25E-03    0.11E-02    0.72E-05
  PAW Al_GW 19Mar2012                   :
 energy of atom  1       EATOM=  -53.5387
 kinetic energy error for atom=    0.0011 (will be added to EATOM!!)
  PAW_PBE N 08Apr2002                   :
 energy of atom  2       EATOM= -264.5486
 kinetic energy error for atom=    0.6882 (will be added to EATOM!!)
 
 
 POSCAR: New structure                           
  positions in cartesian coordinates
  No initial velocities read in
 exchange correlation table for  LEXCH =        8
   RHO(1)=    0.500       N(1)  =     2000
   RHO(2)=  100.500       N(2)  =     4000
 


--------------------------------------------------------------------------------------------------------


 ion  position               nearest neighbor table
   1  0.444  0.444  0.079-
   2  0.444  0.778  0.079-
   3  0.444  0.111  0.079-
   4  0.778  0.444  0.079-
   5  0.778  0.778  0.079-
   6  0.778  0.111  0.079-
   7  0.111  0.444  0.079-
   8  0.111  0.778  0.079-
   9  0.111  0.111  0.079-
  10  0.556  0.556  0.157-
  11  0.556  0.889  0.157-
  12  0.556  0.222  0.157-
  13  0.889  0.556  0.157-
  14  0.889  0.889  0.157-
  15  0.889  0.222  0.157-
  16  0.222  0.556  0.157-
  17  0.222  0.889  0.157-
  18  0.222  0.222  0.157-
  19  0.667  0.667  0.234-
  20  0.667  0.000  0.234-
  21  0.667  0.333  0.234-
  22  0.000  0.667  0.234-
  23  0.000  0.000  0.234-
  24  0.000  0.333  0.234-
  25  0.333  0.667  0.234-
  26  0.333  0.000  0.234-
  27  0.333  0.333  0.234-
  28  0.778  0.778  0.312-
  29  0.778  0.111  0.312-
  30  0.778  0.444  0.312-
  31  0.111  0.778  0.312-
  32  0.111  0.111  0.312-
  33  0.111  0.444  0.312-
  34  0.444  0.778  0.312-
  35  0.444  0.111  0.312-
  36  0.444  0.444  0.312-
  37  0.889  0.889  0.390-
  38  0.889  0.222  0.390-
  39  0.889  0.556  0.390-
  40  0.222  0.889  0.390-
  41  0.222  0.222  0.390-
  42  0.222  0.556  0.390-
  43  0.556  0.889  0.390-
  44  0.556  0.222  0.390-
  45  0.556  0.556  0.390-
  46  0.000  0.000  0.466-
  47  0.000  0.333  0.466-
  48  0.000  0.667  0.466-
  49  0.333  0.000  0.466-
  50  0.333  0.333  0.466-
  51  0.333  0.667  0.466-
  52  0.667  0.000  0.466-
  53  0.667  0.333  0.466-
  54  0.667  0.667  0.466-
  55  0.111  0.111  0.545-
  56  0.111  0.444  0.545-
  57  0.111  0.778  0.545-
  58  0.444  0.111  0.545-
  59  0.444  0.444  0.545- 254 1.97 253 1.97
  60  0.444  0.778  0.545-
  61  0.778  0.111  0.545-
  62  0.778  0.444  0.545-
  63  0.778  0.778  0.545-
  64  0.278  0.278  0.079-
  65  0.278  0.611  0.079-
  66  0.278  0.944  0.079-
  67  0.611  0.278  0.079-
  68  0.611  0.611  0.079-
  69  0.611  0.944  0.079-
  70  0.944  0.278  0.079-
  71  0.944  0.611  0.079-
  72  0.944  0.944  0.079-
  73  0.389  0.389  0.157-
  74  0.389  0.722  0.157-
  75  0.389  0.056  0.157-
  76  0.722  0.389  0.157-
  77  0.722  0.722  0.157-
  78  0.722  0.056  0.157-
  79  0.056  0.389  0.157-
  80  0.056  0.722  0.157-
  81  0.056  0.056  0.157-
  82  0.500  0.500  0.234-
  83  0.500  0.833  0.234-
  84  0.500  0.167  0.234-
  85  0.833  0.500  0.234-
  86  0.833  0.833  0.234-
  87  0.833  0.167  0.234-
  88  0.167  0.500  0.234-
  89  0.167  0.833  0.234-
  90  0.167  0.167  0.234-
  91  0.611  0.611  0.312-
  92  0.611  0.944  0.312-
  93  0.611  0.278  0.312-
  94  0.944  0.611  0.312-
  95  0.944  0.944  0.312-
  96  0.944  0.278  0.312-
  97  0.278  0.611  0.312-
  98  0.278  0.944  0.312-
  99  0.278  0.278  0.312-
 100  0.722  0.722  0.390-
 101  0.722  0.056  0.390-
 102  0.722  0.389  0.390-
 103  0.056  0.722  0.390-
 104  0.056  0.056  0.390-
 105  0.056  0.389  0.390-
 106  0.389  0.722  0.390-
 107  0.389  0.056  0.390-
 108  0.389  0.389  0.390-
 109  0.833  0.833  0.466-
 110  0.833  0.167  0.466-
 111  0.833  0.500  0.466-
 112  0.167  0.833  0.466-
 113  0.167  0.167  0.466-
 114  0.167  0.500  0.466-
 115  0.500  0.833  0.466-
 116  0.500  0.167  0.466-
 117  0.500  0.500  0.466-
 118  0.944  0.944  0.545-
 119  0.944  0.278  0.545-
 120  0.944  0.611  0.545-
 121  0.278  0.944  0.545-
 122  0.278  0.278  0.545-
 123  0.278  0.611  0.545-
 124  0.611  0.944  0.545-
 125  0.611  0.278  0.545-
 126  0.611  0.611  0.545-
 127  0.278  0.444  0.079-
 128  0.278  0.778  0.079-
 129  0.278  0.111  0.079-
 130  0.611  0.444  0.079-
 131  0.611  0.778  0.079-
 132  0.611  0.111  0.079-
 133  0.944  0.444  0.079-
 134  0.944  0.778  0.079-
 135  0.944  0.111  0.079-
 136  0.389  0.556  0.157-
 137  0.389  0.889  0.157-
 138  0.389  0.222  0.157-
 139  0.722  0.556  0.157-
 140  0.722  0.889  0.157-
 141  0.722  0.222  0.157-
 142  0.056  0.556  0.157-
 143  0.056  0.889  0.157-
 144  0.056  0.222  0.157-
 145  0.500  0.667  0.234-
 146  0.500  0.000  0.234-
 147  0.500  0.333  0.234-
 148  0.833  0.667  0.234-
 149  0.833  0.000  0.234-
 150  0.833  0.333  0.234-
 151  0.167  0.667  0.234-
 152  0.167  0.000  0.234-
 153  0.167  0.333  0.234-
 154  0.611  0.778  0.312-
 155  0.611  0.111  0.312-
 156  0.611  0.444  0.312-
 157  0.944  0.778  0.312-
 158  0.944  0.111  0.312-
 159  0.944  0.444  0.312-
 160  0.278  0.778  0.312-
 161  0.278  0.111  0.312-
 162  0.278  0.444  0.312-
 163  0.722  0.889  0.390-
 164  0.722  0.222  0.390-
 165  0.722  0.556  0.390-
 166  0.056  0.889  0.390-
 167  0.056  0.222  0.390-
 168  0.056  0.556  0.390-
 169  0.389  0.889  0.390-
 170  0.389  0.222  0.390-
 171  0.389  0.556  0.390-
 172  0.833  0.000  0.466-
 173  0.833  0.333  0.466-
 174  0.833  0.667  0.466-
 175  0.167  0.000  0.466-
 176  0.167  0.333  0.466-
 177  0.167  0.667  0.466-
 178  0.500  0.000  0.466-
 179  0.500  0.333  0.466-
 180  0.500  0.667  0.466-
 181  0.944  0.111  0.545-
 182  0.944  0.444  0.545-
 183  0.944  0.778  0.545-
 184  0.278  0.111  0.545-
 185  0.278  0.444  0.545- 254 1.97 253 1.97
 186  0.278  0.778  0.545-
 187  0.611  0.111  0.545-
 188  0.611  0.444  0.545-
 189  0.611  0.778  0.545-
 190  0.444  0.278  0.079-
 191  0.444  0.611  0.079-
 192  0.444  0.944  0.079-
 193  0.778  0.278  0.079-
 194  0.778  0.611  0.079-
 195  0.778  0.944  0.079-
 196  0.111  0.278  0.079-
 197  0.111  0.611  0.079-
 198  0.111  0.944  0.079-
 199  0.556  0.389  0.157-
 200  0.556  0.722  0.157-
 201  0.556  0.056  0.157-
 202  0.889  0.389  0.157-
 203  0.889  0.722  0.157-
 204  0.889  0.056  0.157-
 205  0.222  0.389  0.157-
 206  0.222  0.722  0.157-
 207  0.222  0.056  0.157-
 208  0.667  0.500  0.234-
 209  0.667  0.833  0.234-
 210  0.667  0.167  0.234-
 211  1.000  0.500  0.234-
 212  1.000  0.833  0.234-
 213  1.000  0.167  0.234-
 214  0.333  0.500  0.234-
 215  0.333  0.833  0.234-
 216  0.333  0.167  0.234-
 217  0.778  0.611  0.312-
 218  0.778  0.944  0.312-
 219  0.778  0.278  0.312-
 220  0.111  0.611  0.312-
 221  0.111  0.944  0.312-
 222  0.111  0.278  0.312-
 223  0.444  0.611  0.312-
 224  0.444  0.944  0.312-
 225  0.444  0.278  0.312-
 226  0.889  0.722  0.390-
 227  0.889  0.056  0.390-
 228  0.889  0.389  0.390-
 229  0.222  0.722  0.390-
 230  0.222  0.056  0.390-
 231  0.222  0.389  0.390-
 232  0.556  0.722  0.390-
 233  0.556  0.056  0.390-
 234  0.556  0.389  0.390-
 235  1.000  0.833  0.466-
 236  1.000  0.167  0.466-
 237  1.000  0.500  0.466-
 238  0.333  0.833  0.466-
 239  0.333  0.167  0.466-
 240  0.333  0.500  0.466-
 241  0.667  0.833  0.466-
 242  0.667  0.167  0.466-
 243  0.667  0.500  0.466-
 244  0.111  0.944  0.545-
 245  0.111  0.278  0.545-
 246  0.111  0.611  0.545-
 247  0.444  0.944  0.545-
 248  0.444  0.278  0.545-
 249  0.444  0.611  0.545-
 250  0.778  0.944  0.545-
 251  0.778  0.278  0.545-
 252  0.778  0.611  0.545-
 253  0.340  0.487  0.585- 254 1.25 185 1.97  59 1.97
 254  0.382  0.402  0.585- 253 1.25 185 1.97  59 1.97
 
  LATTYP: Found a hexagonal cell.
 ALAT       =    17.1805734625
 C/A-ratio  =     1.7461582447
  
  Lattice vectors:
  
 A1 = (   0.0000000000,  -8.5902867312,  14.8788130701)
 A2 = (   0.0000000000,  17.1805734625,   0.0000000000)
 A3 = ( -30.0000000000,   0.0000000000,   0.0000000000)


Analysis of symmetry for initial positions (statically):
=====================================================================
 Subroutine PRICEL returns:
 Original cell was already a primitive cell.
 

 Routine SETGRP: Setting up the symmetry group for a 
 hexagonal supercell.


 Subroutine GETGRP returns: Found  2 space group operations
 (whereof  1 operations were pure point group operations)
 out of a pool of 24 trial point group operations.


The static configuration has the point symmetry C_1 .
 The point group associated with its full space group is C_1h.


Analysis of symmetry for dynamics (positions and initial velocities):
=====================================================================
 Subroutine PRICEL returns:
 Original cell was already a primitive cell.
 

 Routine SETGRP: Setting up the symmetry group for a 
 hexagonal supercell.


 Subroutine GETGRP returns: Found  2 space group operations
 (whereof  1 operations were pure point group operations)
 out of a pool of 24 trial point group operations.


The dynamic configuration has the point symmetry C_1 .
 The point group associated with its full space group is C_1h.


 Subroutine INISYM returns: Found  2 space group operations
 (whereof  1 operations are pure point group operations),
 and found     1 'primitive' translations

 
 
 KPOINTS: Automatic generation                    

Automatic generation of k-mesh.
Space group operators:
 irot       det(A)        alpha          n_x          n_y          n_z        tau_x        tau_y        tau_z
    1     1.000000     0.000000     1.000000     0.000000     0.000000     0.000000     0.000000     0.000000
    2    -1.000000   180.000000     0.000000     1.000000     0.000000    -0.833333     0.000000     0.000000
 
 Subroutine IBZKPT returns following result:
 ===========================================
 
 Found      3 irreducible k-points:
 
 Following reciprocal coordinates:
            Coordinates               Weight
  0.000000  0.000000  0.000000      1.000000
  0.500000  0.000000  0.000000      2.000000
  0.000000  0.500000  0.000000      1.000000
 
 Following cartesian coordinates:
            Coordinates               Weight
  0.000000  0.000000  0.000000      1.000000
  0.000000 -0.029103  0.016802      2.000000
  0.000000  0.000000 -0.033605      1.000000
 


--------------------------------------------------------------------------------------------------------




 Dimension of arrays:
   k-points           NKPTS =      3   k-points in BZ     NKDIM =      3   number of bands    NBANDS=    516
   number of dos      NEDOS =    301   number of ions     NIONS =    254
   non local maximal  LDIM  =      6   non local SUM 2l+1 LMDIM =     18
   total plane-waves  NPLWV = 819200
   max r-space proj   IRMAX =   4449   max aug-charges    IRDMAX=   4357
   dimension x,y,z NGX =    80 NGY =   80 NGZ =  128
   dimension x,y,z NGXF=   160 NGYF=  160 NGZF=  256
   support grid    NGXF=   160 NGYF=  160 NGZF=  256
   ions per type =             252   2
   NGX,Y,Z   is equivalent  to a cutoff of   7.74,  7.74,  7.09 a.u.
   NGXF,Y,Z  is equivalent  to a cutoff of  15.48, 15.48, 14.19 a.u.

 SYSTEM =  NiAl                                    
 POSCAR =  New structure                           

 Startparameter for this run:
   NWRITE =      2    write-flag & timer
   PREC   = normal    normal or accurate (medium, high low for compatibility)
   ISTART =      0    job   : 0-new  1-cont  2-samecut
   ICHARG =      2    charge: 1-file 2-atom 10-const
   ISPIN  =      1    spin polarized calculation?
   LNONCOLLINEAR =      F non collinear calculations
   LSORBIT =      F    spin-orbit coupling
   INIWAV =      1    electr: 0-lowe 1-rand  2-diag
   LASPH  =      F    aspherical Exc in radial PAW
   METAGGA=      F    non-selfconsistent MetaGGA calc.

 Electronic Relaxation 1
   ENCUT  =  300.0 eV  22.05 Ry    4.70 a.u.  24.26 24.26 42.37*2*pi/ulx,y,z
   ENINI  =  300.0     initial cutoff
   ENAUG  =  627.1 eV  augmentation charge cutoff
   NELM   =     60;   NELMIN=  6; NELMDL= -5     # of ELM steps 
   EDIFF  = 0.5E-05   stopping-criterion for ELM
   LREAL  =      T    real-space projection
   NLSPLINE    = F    spline interpolate recip. space projectors
   LCOMPAT=      F    compatible to vasp.4.4
   GGA_COMPAT  = T    GGA compatible to vasp.4.4-vasp.4.6
   LMAXPAW     = -100 max onsite density
   LMAXMIX     =    2 max onsite mixed and CHGCAR
   VOSKOWN=      0    Vosko Wilk Nusair interpolation
   ROPT   =   -0.00050  -0.00050
 Ionic relaxation
   EDIFFG = 0.5E-04   stopping-criterion for IOM
   NSW    =      0    number of steps for IOM
   NBLOCK =      1;   KBLOCK =      1    inner block; outer block 
   IBRION =     -1    ionic relax: 0-MD 1-quasi-New 2-CG
   NFREE  =      0    steps in history (QN), initial steepest desc. (CG)
   ISIF   =      0    stress and relaxation
   IWAVPR =     10    prediction:  0-non 1-charg 2-wave 3-comb
   ISYM   =      2    0-nonsym 1-usesym 2-fastsym
   LCORR  =      T    Harris-Foulkes like correction to forces

   POTIM  = 0.5000    time-step for ionic-motion
   TEIN   =    0.0    initial temperature
   TEBEG  =    0.0;   TEEND  =   0.0 temperature during run
   SMASS  =  -3.00    Nose mass-parameter (am)
   estimated Nose-frequenzy (Omega)   =  0.10E-29 period in steps =****** mass=  -0.675E-26a.u.
   SCALEE = 1.0000    scale energy and forces
   NPACO  =    256;   APACO  = 16.0  distance and # of slots for P.C.
   PSTRESS=    0.0 pullay stress

  Mass of Ions in am
   POMASS =  26.98 14.00
  Ionic Valenz
   ZVAL   =   3.00  5.00
  Atomic Wigner-Seitz radii
   RWIGS  =  -1.00 -1.00
  virtual crystal weights 
   VCA    =   1.00  1.00
   NELECT =     766.0000    total number of electrons
   NUPDOWN=      -1.0000    fix difference up-down

 DOS related values:
   EMIN   =  10.00;   EMAX   =-10.00  energy-range for DOS
   EFERMI =   0.00
   ISMEAR =     0;   SIGMA  =   0.05  broadening in eV -4-tet -1-fermi 0-gaus

 Electronic relaxation 2 (details)
   IALGO  =     38    algorithm
   LDIAG  =      T    sub-space diagonalisation (order eigenvalues)
   LSUBROT=      F    optimize rotation matrix (better conditioning)
   TURBO    =      0    0=normal 1=particle mesh
   IRESTART =      0    0=no restart 2=restart with 2 vectors
   NREBOOT  =      0    no. of reboots
   NMIN     =      0    reboot dimension
   EREF     =   0.00    reference energy to select bands
   IMIX   =      4    mixing-type and parameters
     AMIX     =   0.40;   BMIX     =  1.00
     AMIX_MAG =   1.60;   BMIX_MAG =  1.00
     AMIN     =   0.10
     WC   =   100.;   INIMIX=   1;  MIXPRE=   1;  MAXMIX= -45

 Intra band minimization:
   WEIMIN = 0.0000     energy-eigenvalue tresh-hold
   EBREAK =  0.24E-08  absolut break condition
   DEPER  =   0.30     relativ break condition  

   TIME   =   0.40     timestep for ELM

  volume/ion in A,a.u.               =      30.19       203.75
  Fermi-wavevector in a.u.,A,eV,Ry     =   0.759583  1.435404  7.850108  0.576967
  Thomas-Fermi vector in A             =   1.858410
 
 Write flags
   LWAVE        =      F    write WAVECAR
   LDOWNSAMPLE  =      F    k-point downsampling of WAVECAR
   LCHARG       =      F    write CHGCAR
   LVTOT        =      F    write LOCPOT, total local potential
   LVHAR        =      F    write LOCPOT, Hartree potential only
   LELF         =      F    write electronic localiz. function (ELF)
   LORBIT       =      0    0 simple, 1 ext, 2 COOP (PROOUT), +10 PAW based schemes


 Dipole corrections
   LMONO  =      F    monopole corrections only (constant potential shift)
   LDIPOL =      F    correct potential (dipole corrections)
   IDIPOL =      0    1-x, 2-y, 3-z, 4-all directions 
   EPSILON=  1.0000000 bulk dielectric constant

 Exchange correlation treatment:
   GGA     =    --    GGA type
   LEXCH   =     8    internal setting for exchange type
   VOSKOWN=      0    Vosko Wilk Nusair interpolation
   LHFCALC =     F    Hartree Fock is set to
   LHFONE  =     F    Hartree Fock one center treatment
   AEXX    =    0.0000 exact exchange contribution

 Linear response parameters
   LEPSILON=     F    determine dielectric tensor
   LRPA    =     F    only Hartree local field effects (RPA)
   LNABLA  =     F    use nabla operator in PAW spheres
   LVEL    =     F    velocity operator in full k-point grid
   LINTERFAST=   F  fast interpolation
   KINTER  =     0    interpolate to denser k-point grid
   CSHIFT  =0.1000    complex shift for real part using Kramers Kronig
   OMEGAMAX=  -1.0    maximum frequency
   DEG_THRESHOLD= 0.2000000E-02 threshold for treating states as degnerate
   RTIME   =   -0.100 relaxation time in fs
  (WPLASMAI=    0.000 imaginary part of plasma frequency in eV, 0.658/RTIME)
   DFIELD  = 0.0000000 0.0000000 0.0000000 field for delta impulse in time
 
 Orbital magnetization related:
   ORBITALMAG=     F  switch on orbital magnetization
   LCHIMAG   =     F  perturbation theory with respect to B field
   DQ        =  0.001000  dq finite difference perturbation B field
   LLRAUG    =     F  two centre corrections for induced B field



--------------------------------------------------------------------------------------------------------


 Static calculation
 charge density and potential will be updated during run
 non-spin polarized calculation
 Variant of blocked Davidson
 Davidson routine will perform the subspace rotation
 perform sub-space diagonalisation
    after iterative eigenvector-optimisation
 modified Broyden-mixing scheme, WC =      100.0
 initial mixing is a Kerker type mixing with AMIX =  0.4000 and BMIX =      1.0000
 Hartree-type preconditioning will be used
 using additional bands          133
 real space projection scheme for non local part
 use partial core corrections
 calculate Harris-corrections to forces 
   (improved forces if not selfconsistent)
 use gradient corrections 
 use of overlap-Matrix (Vanderbilt PP)
 Gauss-broadening in eV      SIGMA  =   0.05


--------------------------------------------------------------------------------------------------------


  energy-cutoff  :      300.00
  volume of cell :     7668.80
      direct lattice vectors                 reciprocal lattice vectors
     0.000000000-17.180573462  0.000000000     0.000000000 -0.058205275  0.033604831
     0.000000000 -8.590286731-14.878813070     0.000000000  0.000000000 -0.067209662
    30.000000000  0.000000000  0.000000000     0.033333333  0.000000000  0.000000000

  length of vectors
    17.180573462 17.180573462 30.000000000     0.067209662  0.067209662  0.033333333


 
 k-points in units of 2pi/SCALE and weight: Automatic generation                    
   0.00000000  0.00000000  0.00000000       0.250
   0.00000000 -0.02910264  0.01680242       0.500
   0.00000000  0.00000000 -0.03360483       0.250
 
 k-points in reciprocal lattice and weights: Automatic generation                    
   0.00000000  0.00000000  0.00000000       0.250
   0.50000000  0.00000000  0.00000000       0.500
   0.00000000  0.50000000  0.00000000       0.250
 
 position of ions in fractional coordinates (direct lattice) 
   0.44444456  0.44444473  0.07873467
   0.44444419  0.77777777  0.07873467
   0.44444468  0.11111101  0.07873467
   0.77777744  0.44444473  0.07873467
   0.77777765  0.77777777  0.07873467
   0.77777756  0.11111101  0.07873467
   0.11111110  0.44444473  0.07873467
   0.11111131  0.77777777  0.07873467
   0.11111122  0.11111101  0.07873467
   0.55555520  0.55555574  0.15702600
   0.55555541  0.88888878  0.15702600
   0.55555591  0.22222203  0.15702600
   0.88888866  0.55555574  0.15702600
   0.88888887  0.88888878  0.15702600
   0.88888878  0.22222203  0.15702600
   0.22222232  0.55555574  0.15702600
   0.22222253  0.88888878  0.15702600
   0.22222245  0.22222203  0.15702600
   0.66666642  0.66666675  0.23375733
   0.66666692  0.00000000  0.23375733
   0.66666655  0.33333304  0.23375733
   0.00000008  0.66666675  0.23375733
   0.00000000  0.00000000  0.23375733
   0.00000021  0.33333304  0.23375733
   0.33333354  0.66666675  0.23375733
   0.33333346  0.00000000  0.23375733
   0.33333367  0.33333304  0.23375733
   0.77777765  0.77777777  0.31173067
   0.77777756  0.11111101  0.31173067
   0.77777744  0.44444473  0.31173067
   0.11111131  0.77777777  0.31173067
   0.11111122  0.11111101  0.31173067
   0.11111110  0.44444473  0.31173067
   0.44444419  0.77777777  0.31173067
   0.44444468  0.11111101  0.31173067
   0.44444456  0.44444473  0.31173067
   0.88888887  0.88888878  0.38970400
   0.88888878  0.22222203  0.38970400
   0.88888866  0.55555574  0.38970400
   0.22222253  0.88888878  0.38970400
   0.22222245  0.22222203  0.38970400
   0.22222232  0.55555574  0.38970400
   0.55555541  0.88888878  0.38970400
   0.55555591  0.22222203  0.38970400
   0.55555520  0.55555574  0.38970400
   0.00000000  0.00000000  0.46643533
   0.00000021  0.33333304  0.46643533
   0.00000008  0.66666675  0.46643533
   0.33333346  0.00000000  0.46643533
   0.33333367  0.33333304  0.46643533
   0.33333354  0.66666675  0.46643533
   0.66666692  0.00000000  0.46643533
   0.66666655  0.33333304  0.46643533
   0.66666642  0.66666675  0.46643533
   0.11111122  0.11111101  0.54472667
   0.11111110  0.44444473  0.54472667
   0.11111131  0.77777777  0.54472667
   0.44444468  0.11111101  0.54472667
   0.44444456  0.44444473  0.54472667
   0.44444419  0.77777777  0.54472667
   0.77777756  0.11111101  0.54472667
   0.77777744  0.44444473  0.54472667
   0.77777765  0.77777777  0.54472667
   0.27777777  0.27777753  0.07873467
   0.27777764  0.61111125  0.07873467
   0.27777785  0.94444429  0.07873467
   0.61111123  0.27777753  0.07873467
   0.61111110  0.61111125  0.07873467
   0.61111131  0.94444429  0.07873467
   0.94444469  0.27777753  0.07873467
   0.94444456  0.61111125  0.07873467
   0.94444477  0.94444429  0.07873467
   0.38888865  0.38888922  0.15702600
   0.38888886  0.72222226  0.15702600
   0.38888878  0.05555551  0.15702600
   0.72222211  0.38888922  0.15702600
   0.72222232  0.72222226  0.15702600
   0.72222224  0.05555551  0.15702600
   0.05555519  0.38888922  0.15702600
   0.05555540  0.72222226  0.15702600
   0.05555532  0.05555551  0.15702600
   0.49999988  0.50000023  0.23375733
   0.50000009  0.83333327  0.23375733
   0.50000000  0.16666652  0.23375733
   0.83333334  0.50000023  0.23375733
   0.83333355  0.83333327  0.23375733
   0.83333346  0.16666652  0.23375733
   0.16666642  0.50000023  0.23375733
   0.16666663  0.83333327  0.23375733
   0.16666654  0.16666652  0.23375733
   0.61111110  0.61111125  0.31173067
   0.61111131  0.94444429  0.31173067
   0.61111123  0.27777753  0.31173067
   0.94444456  0.61111125  0.31173067
   0.94444477  0.94444429  0.31173067
   0.94444469  0.27777753  0.31173067
   0.27777764  0.61111125  0.31173067
   0.27777785  0.94444429  0.31173067
   0.27777777  0.27777753  0.31173067
   0.72222232  0.72222226  0.38970400
   0.72222224  0.05555551  0.38970400
   0.72222211  0.38888922  0.38970400
   0.05555540  0.72222226  0.38970400
   0.05555532  0.05555551  0.38970400
   0.05555519  0.38888922  0.38970400
   0.38888886  0.72222226  0.38970400
   0.38888878  0.05555551  0.38970400
   0.38888865  0.38888922  0.38970400
   0.83333355  0.83333327  0.46643533
   0.83333346  0.16666652  0.46643533
   0.83333334  0.50000023  0.46643533
   0.16666663  0.83333327  0.46643533
   0.16666654  0.16666652  0.46643533
   0.16666642  0.50000023  0.46643533
   0.50000009  0.83333327  0.46643533
   0.50000000  0.16666652  0.46643533
   0.49999988  0.50000023  0.46643533
   0.94444477  0.94444429  0.54472667
   0.94444469  0.27777753  0.54472667
   0.94444456  0.61111125  0.54472667
   0.27777785  0.94444429  0.54472667
   0.27777777  0.27777753  0.54472667
   0.27777764  0.61111125  0.54472667
   0.61111131  0.94444429  0.54472667
   0.61111123  0.27777753  0.54472667
   0.61111110  0.61111125  0.54472667
   0.27777783  0.44444473  0.07873467
   0.27777804  0.77777777  0.07873467
   0.27777795  0.11111101  0.07873467
   0.61111071  0.44444473  0.07873467
   0.61111092  0.77777777  0.07873467
   0.61111141  0.11111101  0.07873467
   0.94444417  0.44444473  0.07873467
   0.94444438  0.77777777  0.07873467
   0.94444429  0.11111101  0.07873467
   0.38888905  0.55555574  0.15702600
   0.38888868  0.88888878  0.15702600
   0.38888918  0.22222203  0.15702600
   0.72222193  0.55555574  0.15702600
   0.72222214  0.88888878  0.15702600
   0.72222205  0.22222203  0.15702600
   0.05555559  0.55555574  0.15702600
   0.05555580  0.88888878  0.15702600
   0.05555572  0.22222203  0.15702600
   0.49999969  0.66666675  0.23375733
   0.50000019  0.00000000  0.23375733
   0.50000040  0.33333304  0.23375733
   0.83333315  0.66666675  0.23375733
   0.83333307  0.00000000  0.23375733
   0.83333328  0.33333304  0.23375733
   0.16666681  0.66666675  0.23375733
   0.16666673  0.00000000  0.23375733
   0.16666694  0.33333304  0.23375733
   0.61111092  0.77777777  0.31173067
   0.61111141  0.11111101  0.31173067
   0.61111071  0.44444473  0.31173067
   0.94444438  0.77777777  0.31173067
   0.94444429  0.11111101  0.31173067
   0.94444417  0.44444473  0.31173067
   0.27777804  0.77777777  0.31173067
   0.27777795  0.11111101  0.31173067
   0.27777783  0.44444473  0.31173067
   0.72222214  0.88888878  0.38970400
   0.72222205  0.22222203  0.38970400
   0.72222193  0.55555574  0.38970400
   0.05555580  0.88888878  0.38970400
   0.05555572  0.22222203  0.38970400
   0.05555559  0.55555574  0.38970400
   0.38888868  0.88888878  0.38970400
   0.38888918  0.22222203  0.38970400
   0.38888905  0.55555574  0.38970400
   0.83333307  0.00000000  0.46643533
   0.83333328  0.33333304  0.46643533
   0.83333315  0.66666675  0.46643533
   0.16666673  0.00000000  0.46643533
   0.16666694  0.33333304  0.46643533
   0.16666681  0.66666675  0.46643533
   0.50000019  0.00000000  0.46643533
   0.50000040  0.33333304  0.46643533
   0.49999969  0.66666675  0.46643533
   0.94444429  0.11111101  0.54472667
   0.94444417  0.44444473  0.54472667
   0.94444438  0.77777777  0.54472667
   0.27777795  0.11111101  0.54472667
   0.27777783  0.44444473  0.54472667
   0.27777804  0.77777777  0.54472667
   0.61111141  0.11111101  0.54472667
   0.61111071  0.44444473  0.54472667
   0.61111092  0.77777777  0.54472667
   0.44444450  0.27777753  0.07873467
   0.44444437  0.61111125  0.07873467
   0.44444458  0.94444429  0.07873467
   0.77777796  0.27777753  0.07873467
   0.77777783  0.61111125  0.07873467
   0.77777804  0.94444429  0.07873467
   0.11111104  0.27777753  0.07873467
   0.11111091  0.61111125  0.07873467
   0.11111112  0.94444429  0.07873467
   0.55555538  0.38888922  0.15702600
   0.55555559  0.72222226  0.15702600
   0.55555551  0.05555551  0.15702600
   0.88888884  0.38888922  0.15702600
   0.88888905  0.72222226  0.15702600
   0.88888897  0.05555551  0.15702600
   0.22222192  0.38888922  0.15702600
   0.22222213  0.72222226  0.15702600
   0.22222205  0.05555551  0.15702600
   0.66666661  0.50000023  0.23375733
   0.66666682  0.83333327  0.23375733
   0.66666673  0.16666652  0.23375733
   0.99999969  0.50000023  0.23375733
   0.99999990  0.83333327  0.23375733
   0.99999981  0.16666652  0.23375733
   0.33333315  0.50000023  0.23375733
   0.33333336  0.83333327  0.23375733
   0.33333327  0.16666652  0.23375733
   0.77777783  0.61111125  0.31173067
   0.77777804  0.94444429  0.31173067
   0.77777796  0.27777753  0.31173067
   0.11111091  0.61111125  0.31173067
   0.11111112  0.94444429  0.31173067
   0.11111104  0.27777753  0.31173067
   0.44444437  0.61111125  0.31173067
   0.44444458  0.94444429  0.31173067
   0.44444450  0.27777753  0.31173067
   0.88888905  0.72222226  0.38970400
   0.88888897  0.05555551  0.38970400
   0.88888884  0.38888922  0.38970400
   0.22222213  0.72222226  0.38970400
   0.22222205  0.05555551  0.38970400
   0.22222192  0.38888922  0.38970400
   0.55555559  0.72222226  0.38970400
   0.55555551  0.05555551  0.38970400
   0.55555538  0.38888922  0.38970400
   0.99999990  0.83333327  0.46643533
   0.99999981  0.16666652  0.46643533
   0.99999969  0.50000023  0.46643533
   0.33333336  0.83333327  0.46643533
   0.33333327  0.16666652  0.46643533
   0.33333315  0.50000023  0.46643533
   0.66666682  0.83333327  0.46643533
   0.66666673  0.16666652  0.46643533
   0.66666661  0.50000023  0.46643533
   0.11111112  0.94444429  0.54472667
   0.11111104  0.27777753  0.54472667
   0.11111091  0.61111125  0.54472667
   0.44444458  0.94444429  0.54472667
   0.44444450  0.27777753  0.54472667
   0.44444437  0.61111125  0.54472667
   0.77777804  0.94444429  0.54472667
   0.77777796  0.27777753  0.54472667
   0.77777783  0.61111125  0.54472667
   0.34003429  0.48659795  0.58466667
   0.38217494  0.40231704  0.58466667
 
 position of ions in cartesian coordinates  (Angst):
   2.36204000-11.45372000 -6.61281000
   2.36204000-14.31714000-11.57241000
   2.36204000 -8.59029000 -1.65320000
   2.36204000-17.18057000 -6.61281000
   2.36204000-20.04400000-11.57241000
   2.36204000-14.31714000 -1.65320000
   2.36204000 -5.72686000 -6.61281000
   2.36204000 -8.59029000-11.57241000
   2.36204000 -2.86343000 -1.65320000
   4.71078000-14.31714000 -8.26601000
   4.71078000-17.18057000-13.22561000
   4.71078000-11.45372000 -3.30640000
   4.71078000-20.04400000 -8.26601000
   4.71078000-22.90743000-13.22561000
   4.71078000-17.18057000 -3.30640000
   4.71078000 -8.59029000 -8.26601000
   4.71078000-11.45372000-13.22561000
   4.71078000 -5.72686000 -3.30640000
   7.01272000-17.18057000 -9.91921000
   7.01272000-11.45372000  0.00000000
   7.01272000-14.31714000 -4.95960000
   7.01272000 -5.72686000 -9.91921000
   7.01272000  0.00000000  0.00000000
   7.01272000 -2.86343000 -4.95960000
   7.01272000-11.45372000 -9.91921000
   7.01272000 -5.72686000  0.00000000
   7.01272000 -8.59029000 -4.95960000
   9.35192000-20.04400000-11.57241000
   9.35192000-14.31714000 -1.65320000
   9.35192000-17.18057000 -6.61281000
   9.35192000 -8.59029000-11.57241000
   9.35192000 -2.86343000 -1.65320000
   9.35192000 -5.72686000 -6.61281000
   9.35192000-14.31714000-11.57241000
   9.35192000 -8.59029000 -1.65320000
   9.35192000-11.45372000 -6.61281000
  11.69112000-22.90743000-13.22561000
  11.69112000-17.18057000 -3.30640000
  11.69112000-20.04400000 -8.26601000
  11.69112000-11.45372000-13.22561000
  11.69112000 -5.72686000 -3.30640000
  11.69112000 -8.59029000 -8.26601000
  11.69112000-17.18057000-13.22561000
  11.69112000-11.45372000 -3.30640000
  11.69112000-14.31714000 -8.26601000
  13.99306000  0.00000000  0.00000000
  13.99306000 -2.86343000 -4.95960000
  13.99306000 -5.72686000 -9.91921000
  13.99306000 -5.72686000  0.00000000
  13.99306000 -8.59029000 -4.95960000
  13.99306000-11.45372000 -9.91921000
  13.99306000-11.45372000  0.00000000
  13.99306000-14.31714000 -4.95960000
  13.99306000-17.18057000 -9.91921000
  16.34180000 -2.86343000 -1.65320000
  16.34180000 -5.72686000 -6.61281000
  16.34180000 -8.59029000-11.57241000
  16.34180000 -8.59029000 -1.65320000
  16.34180000-11.45372000 -6.61281000
  16.34180000-14.31714000-11.57241000
  16.34180000-14.31714000 -1.65320000
  16.34180000-17.18057000 -6.61281000
  16.34180000-20.04400000-11.57241000
   2.36204000 -7.15857000 -4.13300000
   2.36204000-10.02200000 -9.09261000
   2.36204000-12.88543000-14.05221000
   2.36204000-12.88543000 -4.13300000
   2.36204000-15.74886000 -9.09261000
   2.36204000-18.61229000-14.05221000
   2.36204000-18.61229000 -4.13300000
   2.36204000-21.47572000 -9.09261000
   2.36204000-24.33915000-14.05221000
   4.71078000-10.02200000 -5.78621000
   4.71078000-12.88543000-10.74581000
   4.71078000 -7.15857000 -0.82660000
   4.71078000-15.74886000 -5.78621000
   4.71078000-18.61229000-10.74581000
   4.71078000-12.88543000 -0.82660000
   4.71078000 -4.29514000 -5.78621000
   4.71078000 -7.15857000-10.74581000
   4.71078000 -1.43171000 -0.82660000
   7.01272000-12.88543000 -7.43941000
   7.01272000-15.74886000-12.39901000
   7.01272000-10.02200000 -2.47980000
   7.01272000-18.61229000 -7.43941000
   7.01272000-21.47572000-12.39901000
   7.01272000-15.74886000 -2.47980000
   7.01272000 -7.15857000 -7.43941000
   7.01272000-10.02200000-12.39901000
   7.01272000 -4.29514000 -2.47980000
   9.35192000-15.74886000 -9.09261000
   9.35192000-18.61229000-14.05221000
   9.35192000-12.88543000 -4.13300000
   9.35192000-21.47572000 -9.09261000
   9.35192000-24.33915000-14.05221000
   9.35192000-18.61229000 -4.13300000
   9.35192000-10.02200000 -9.09261000
   9.35192000-12.88543000-14.05221000
   9.35192000 -7.15857000 -4.13300000
  11.69112000-18.61229000-10.74581000
  11.69112000-12.88543000 -0.82660000
  11.69112000-15.74886000 -5.78621000
  11.69112000 -7.15857000-10.74581000
  11.69112000 -1.43171000 -0.82660000
  11.69112000 -4.29514000 -5.78621000
  11.69112000-12.88543000-10.74581000
  11.69112000 -7.15857000 -0.82660000
  11.69112000-10.02200000 -5.78621000
  13.99306000-21.47572000-12.39901000
  13.99306000-15.74886000 -2.47980000
  13.99306000-18.61229000 -7.43941000
  13.99306000-10.02200000-12.39901000
  13.99306000 -4.29514000 -2.47980000
  13.99306000 -7.15857000 -7.43941000
  13.99306000-15.74886000-12.39901000
  13.99306000-10.02200000 -2.47980000
  13.99306000-12.88543000 -7.43941000
  16.34180000-24.33915000-14.05221000
  16.34180000-18.61229000 -4.13300000
  16.34180000-21.47572000 -9.09261000
  16.34180000-12.88543000-14.05221000
  16.34180000 -7.15857000 -4.13300000
  16.34180000-10.02200000 -9.09261000
  16.34180000-18.61229000-14.05221000
  16.34180000-12.88543000 -4.13300000
  16.34180000-15.74886000 -9.09261000
   2.36204000 -8.59029000 -6.61281000
   2.36204000-11.45372000-11.57241000
   2.36204000 -5.72686000 -1.65320000
   2.36204000-14.31714000 -6.61281000
   2.36204000-17.18057000-11.57241000
   2.36204000-11.45372000 -1.65320000
   2.36204000-20.04400000 -6.61281000
   2.36204000-22.90743000-11.57241000
   2.36204000-17.18057000 -1.65320000
   4.71078000-11.45372000 -8.26601000
   4.71078000-14.31714000-13.22561000
   4.71078000 -8.59029000 -3.30640000
   4.71078000-17.18057000 -8.26601000
   4.71078000-20.04400000-13.22561000
   4.71078000-14.31714000 -3.30640000
   4.71078000 -5.72686000 -8.26601000
   4.71078000 -8.59029000-13.22561000
   4.71078000 -2.86343000 -3.30640000
   7.01272000-14.31714000 -9.91921000
   7.01272000 -8.59029000  0.00000000
   7.01272000-11.45372000 -4.95960000
   7.01272000-20.04400000 -9.91921000
   7.01272000-14.31714000  0.00000000
   7.01272000-17.18057000 -4.95960000
   7.01272000 -8.59029000 -9.91921000
   7.01272000 -2.86343000  0.00000000
   7.01272000 -5.72686000 -4.95960000
   9.35192000-17.18057000-11.57241000
   9.35192000-11.45372000 -1.65320000
   9.35192000-14.31714000 -6.61281000
   9.35192000-22.90743000-11.57241000
   9.35192000-17.18057000 -1.65320000
   9.35192000-20.04400000 -6.61281000
   9.35192000-11.45372000-11.57241000
   9.35192000 -5.72686000 -1.65320000
   9.35192000 -8.59029000 -6.61281000
  11.69112000-20.04400000-13.22561000
  11.69112000-14.31714000 -3.30640000
  11.69112000-17.18057000 -8.26601000
  11.69112000 -8.59029000-13.22561000
  11.69112000 -2.86343000 -3.30640000
  11.69112000 -5.72686000 -8.26601000
  11.69112000-14.31714000-13.22561000
  11.69112000 -8.59029000 -3.30640000
  11.69112000-11.45372000 -8.26601000
  13.99306000-14.31714000  0.00000000
  13.99306000-17.18057000 -4.95960000
  13.99306000-20.04400000 -9.91921000
  13.99306000 -2.86343000  0.00000000
  13.99306000 -5.72686000 -4.95960000
  13.99306000 -8.59029000 -9.91921000
  13.99306000 -8.59029000  0.00000000
  13.99306000-11.45372000 -4.95960000
  13.99306000-14.31714000 -9.91921000
  16.34180000-17.18057000 -1.65320000
  16.34180000-20.04400000 -6.61281000
  16.34180000-22.90743000-11.57241000
  16.34180000 -5.72686000 -1.65320000
  16.34180000 -8.59029000 -6.61281000
  16.34180000-11.45372000-11.57241000
  16.34180000-11.45372000 -1.65320000
  16.34180000-14.31714000 -6.61281000
  16.34180000-17.18057000-11.57241000
   2.36204000-10.02200000 -4.13300000
   2.36204000-12.88543000 -9.09261000
   2.36204000-15.74886000-14.05221000
   2.36204000-15.74886000 -4.13300000
   2.36204000-18.61229000 -9.09261000
   2.36204000-21.47572000-14.05221000
   2.36204000 -4.29514000 -4.13300000
   2.36204000 -7.15857000 -9.09261000
   2.36204000-10.02200000-14.05221000
   4.71078000-12.88543000 -5.78621000
   4.71078000-15.74886000-10.74581000
   4.71078000-10.02200000 -0.82660000
   4.71078000-18.61229000 -5.78621000
   4.71078000-21.47572000-10.74581000
   4.71078000-15.74886000 -0.82660000
   4.71078000 -7.15857000 -5.78621000
   4.71078000-10.02200000-10.74581000
   4.71078000 -4.29514000 -0.82660000
   7.01272000-15.74886000 -7.43941000
   7.01272000-18.61229000-12.39901000
   7.01272000-12.88543000 -2.47980000
   7.01272000-21.47571346 -7.43941000
   7.01272000-24.33914346-12.39901000
   7.01272000-18.61228346 -2.47980000
   7.01272000-10.02200000 -7.43941000
   7.01272000-12.88543000-12.39901000
   7.01272000 -7.15857000 -2.47980000
   9.35192000-18.61229000 -9.09261000
   9.35192000-21.47572000-14.05221000
   9.35192000-15.74886000 -4.13300000
   9.35192000 -7.15857000 -9.09261000
   9.35192000-10.02200000-14.05221000
   9.35192000 -4.29514000 -4.13300000
   9.35192000-12.88543000 -9.09261000
   9.35192000-15.74886000-14.05221000
   9.35192000-10.02200000 -4.13300000
  11.69112000-21.47572000-10.74581000
  11.69112000-15.74886000 -0.82660000
  11.69112000-18.61229000 -5.78621000
  11.69112000-10.02200000-10.74581000
  11.69112000 -4.29514000 -0.82660000
  11.69112000 -7.15857000 -5.78621000
  11.69112000-15.74886000-10.74581000
  11.69112000-10.02200000 -0.82660000
  11.69112000-12.88543000 -5.78621000
  13.99306000-24.33914346-12.39901000
  13.99306000-18.61228346 -2.47980000
  13.99306000-21.47571346 -7.43941000
  13.99306000-12.88543000-12.39901000
  13.99306000 -7.15857000 -2.47980000
  13.99306000-10.02200000 -7.43941000
  13.99306000-18.61229000-12.39901000
  13.99306000-12.88543000 -2.47980000
  13.99306000-15.74886000 -7.43941000
  16.34180000-10.02200000-14.05221000
  16.34180000 -4.29514000 -4.13300000
  16.34180000 -7.15857000 -9.09261000
  16.34180000-15.74886000-14.05221000
  16.34180000-10.02200000 -4.13300000
  16.34180000-12.88543000 -9.09261000
  16.34180000-21.47572000-14.05221000
  16.34180000-15.74886000 -4.13300000
  16.34180000-18.61229000 -9.09261000
  17.54000000-10.02200000 -7.24000000
  17.54000000-10.02200333 -5.98600000
 


--------------------------------------------------------------------------------------------------------


 k-point  1 :   0.0000 0.0000 0.0000  plane waves:   90499
 k-point  2 :   0.5000 0.0000 0.0000  plane waves:   90530
 k-point  3 :   0.0000 0.5000 0.0000  plane waves:   90530

 maximum and minimum number of plane-waves per node :     90530    90499

 maximum number of plane-waves:     90530
 maximum index in each direction: 
   IXMAX=   24   IYMAX=   24   IZMAX=   42
   IXMIN=  -24   IYMIN=  -24   IZMIN=  -42


 serial   3D FFT for wavefunctions
 parallel 3D FFT for charge:
    minimum data exchange during FFTs selected (reduces bandwidth)


 total amount of memory used by VASP MPI-rank0   652149. kBytes
=======================================================================

   base      :      30000. kBytes
   nonlr-proj:      89928. kBytes
   fftplans  :      40601. kBytes
   grid      :      95147. kBytes
   one-center:       3950. kBytes
   wavefun   :     392523. kBytes
 
     INWAV:  cpu time    0.0001: real time    0.0001
 Broyden mixing: mesh for mixing (old mesh)
   NGX = 49   NGY = 49   NGZ = 85
  (NGX  =160   NGY  =160   NGZ  =256)
  gives a total of 204085 points

 initial charge density was supplied:
 charge density of overlapping atoms calculated
 number of electron     766.0000000 magnetization 
 keeping initial charge density in first step


--------------------------------------------------------------------------------------------------------


 Maximum index for non-local projection operator         4277
 Maximum index for augmentation-charges          758 (set IRDMAX)


--------------------------------------------------------------------------------------------------------


 First call to EWALD:  gamma=   0.090
 Maximum number of real-space cells 3x 3x 2
 Maximum number of reciprocal cells 2x 2x 4

    FEWALD:  cpu time    0.0272: real time    0.0272


----------------------------------------- Iteration    1(   1)  ---------------------------------------


    POTLOK:  cpu time    0.6977: real time    0.7031
    SETDIJ:  cpu time    0.0867: real time    0.0867
     EDDAV:  cpu time   18.6104: real time   21.0962
       DOS:  cpu time    0.0011: real time    0.0011
    --------------------------------------------
      LOOP:  cpu time   19.3979: real time   21.9023

 eigenvalue-minimisations  :  3168
 total energy-change (2. order) : 0.2135696E+04  (-0.1844988E+05)
 number of electron     766.0000000 magnetization 
 augmentation part      766.0000000 magnetization 

 Free energy of the ion-electron system (eV)
  ---------------------------------------------------
  alpha Z        PSCENC =       505.22967617
  Ewald energy   TEWEN  =     89158.23866333
  -Hartree energ DENC   =   -103195.05371222
  -exchange      EXHF   =         0.00000000
  -V(xc)+E(xc)   XCENC  =     -6603.33503659
  PAW double counting   =     17092.30507181    -9042.14386232
  entropy T*S    EENTRO =        -0.06212588
  eigenvalues    EBANDS =       201.31535308
  atomic energy  EATOM  =     14019.20197576
  Solvation  Ediel_sol  =         0.00000000
  ---------------------------------------------------
  free energy    TOTEN  =      2135.69600313 eV

  energy without entropy =     2135.75812900  energy(sigma->0) =     2135.72706607


--------------------------------------------------------------------------------------------------------




----------------------------------------- Iteration    1(   2)  ---------------------------------------


     EDDAV:  cpu time   23.0057: real time   25.8637
       DOS:  cpu time    0.0020: real time    0.0020
    --------------------------------------------
      LOOP:  cpu time   23.0089: real time   25.8683

 eigenvalue-minimisations  :  4212
 total energy-change (2. order) :-0.2875022E+04  (-0.2713251E+04)
 number of electron     766.0000000 magnetization 
 augmentation part      766.0000000 magnetization 

 Free energy of the ion-electron system (eV)
  ---------------------------------------------------
  alpha Z        PSCENC =       505.22967617
  Ewald energy   TEWEN  =     89158.23866333
  -Hartree energ DENC   =   -103195.05371222
  -exchange      EXHF   =         0.00000000
  -V(xc)+E(xc)   XCENC  =     -6603.33503659
  PAW double counting   =     17092.30507181    -9042.14386232
  entropy T*S    EENTRO =        -0.11745810
  eigenvalues    EBANDS =     -2673.65165735
  atomic energy  EATOM  =     14019.20197576
  Solvation  Ediel_sol  =         0.00000000
  ---------------------------------------------------
  free energy    TOTEN  =      -739.32633953 eV

  energy without entropy =     -739.20888142  energy(sigma->0) =     -739.26761047


--------------------------------------------------------------------------------------------------------




----------------------------------------- Iteration    1(   3)  ---------------------------------------


     EDDAV:  cpu time   24.4615: real time   27.4251
       DOS:  cpu time    0.0014: real time    0.0014
    --------------------------------------------
      LOOP:  cpu time   24.4640: real time   27.4288

 eigenvalue-minimisations  :  4548
 total energy-change (2. order) :-0.2116528E+03  (-0.2019496E+03)
 number of electron     766.0000000 magnetization 
 augmentation part      766.0000000 magnetization 

 Free energy of the ion-electron system (eV)
  ---------------------------------------------------
  alpha Z        PSCENC =       505.22967617
  Ewald energy   TEWEN  =     89158.23866333
  -Hartree energ DENC   =   -103195.05371222
  -exchange      EXHF   =         0.00000000
  -V(xc)+E(xc)   XCENC  =     -6603.33503659
  PAW double counting   =     17092.30507181    -9042.14386232
  entropy T*S    EENTRO =        -0.21259576
  eigenvalues    EBANDS =     -2885.20931600
  atomic energy  EATOM  =     14019.20197576
  Solvation  Ediel_sol  =         0.00000000
  ---------------------------------------------------
  free energy    TOTEN  =      -950.97913583 eV

  energy without entropy =     -950.76654007  energy(sigma->0) =     -950.87283795


--------------------------------------------------------------------------------------------------------




----------------------------------------- Iteration    1(   4)  ---------------------------------------


     EDDAV:  cpu time   25.7976: real time   28.8371
       DOS:  cpu time    0.0014: real time    0.0014
    --------------------------------------------
      LOOP:  cpu time   25.8001: real time   28.8406

 eigenvalue-minimisations  :  4836
 total energy-change (2. order) :-0.1165537E+02  (-0.1112660E+02)
 number of electron     766.0000000 magnetization 
 augmentation part      766.0000000 magnetization 

 Free energy of the ion-electron system (eV)
  ---------------------------------------------------
  alpha Z        PSCENC =       505.22967617
  Ewald energy   TEWEN  =     89158.23866333
  -Hartree energ DENC   =   -103195.05371222
  -exchange      EXHF   =         0.00000000
  -V(xc)+E(xc)   XCENC  =     -6603.33503659
  PAW double counting   =     17092.30507181    -9042.14386232
  entropy T*S    EENTRO =        -0.21705524
  eigenvalues    EBANDS =     -2896.86022453
  atomic energy  EATOM  =     14019.20197576
  Solvation  Ediel_sol  =         0.00000000
  ---------------------------------------------------
  free energy    TOTEN  =      -962.63450384 eV

  energy without entropy =     -962.41744860  energy(sigma->0) =     -962.52597622


--------------------------------------------------------------------------------------------------------




----------------------------------------- Iteration    1(   5)  ---------------------------------------


     EDDAV:  cpu time   24.6946: real time   27.6548
       DOS:  cpu time    0.0150: real time    0.0150
    CHARGE:  cpu time    1.6408: real time    1.7184
    MIXING:  cpu time    0.0238: real time    0.0238
    --------------------------------------------
      LOOP:  cpu time   26.3755: real time   29.4143

 eigenvalue-minimisations  :  4584
 total energy-change (2. order) :-0.3961406E+00  (-0.3941370E+00)
 number of electron     765.9999989 magnetization 
 augmentation part       -9.6513454 magnetization 

 Broyden mixing:
  rms(total) = 0.20578E+01    rms(broyden)= 0.20564E+01
  rms(prec ) = 0.27319E+01
  weight for this iteration     100.00

 Free energy of the ion-electron system (eV)
  ---------------------------------------------------
  alpha Z        PSCENC =       505.22967617
  Ewald energy   TEWEN  =     89158.23866333
  -Hartree energ DENC   =   -103195.05371222
  -exchange      EXHF   =         0.00000000
  -V(xc)+E(xc)   XCENC  =     -6603.33503659
  PAW double counting   =     17092.30507181    -9042.14386232
  entropy T*S    EENTRO =        -0.21682966
  eigenvalues    EBANDS =     -2897.25659068
  atomic energy  EATOM  =     14019.20197576
  Solvation  Ediel_sol  =         0.00000000
  ---------------------------------------------------
  free energy    TOTEN  =      -963.03064441 eV

  energy without entropy =     -962.81381475  energy(sigma->0) =     -962.92222958


--------------------------------------------------------------------------------------------------------




----------------------------------------- Iteration    1(   6)  ---------------------------------------


    POTLOK:  cpu time    0.6890: real time    0.6890
    SETDIJ:  cpu time    0.0857: real time    0.0857
     EDDAV:  cpu time   23.2057: real time   26.0579
       DOS:  cpu time    0.0021: real time    0.0021
    CHARGE:  cpu time    1.6466: real time    1.6762
    MIXING:  cpu time    0.0253: real time    0.0255
    --------------------------------------------
      LOOP:  cpu time   25.6558: real time   28.5389

 eigenvalue-minimisations  :  4236
 total energy-change (2. order) :-0.8907168E+01  (-0.1828608E+02)
 number of electron     765.9999998 magnetization 
 augmentation part       -9.9075893 magnetization 

 Broyden mixing:
  rms(total) = 0.18663E+01    rms(broyden)= 0.18650E+01
  rms(prec ) = 0.39575E+01
  weight for this iteration     100.00

 eigenvalues of (default mixing * dielectric matrix)
  average eigenvalue GAMMA=   0.7194
  0.7194

 Free energy of the ion-electron system (eV)
  ---------------------------------------------------
  alpha Z        PSCENC =       505.22967617
  Ewald energy   TEWEN  =     89158.23866333
  -Hartree energ DENC   =   -104110.89185748
  -exchange      EXHF   =         0.00000000
  -V(xc)+E(xc)   XCENC  =     -6591.76130513
  PAW double counting   =     19120.88478440   -11072.32233330
  entropy T*S    EENTRO =        -0.13208212
  eigenvalues    EBANDS =     -2000.38533422
  atomic energy  EATOM  =     14019.20197576
  Solvation  Ediel_sol  =         0.00000000
  ---------------------------------------------------
  free energy    TOTEN  =      -971.93781259 eV

  energy without entropy =     -971.80573048  energy(sigma->0) =     -971.87177153


--------------------------------------------------------------------------------------------------------




----------------------------------------- Iteration    1(   7)  ---------------------------------------


    POTLOK:  cpu time    0.6928: real time    0.6928
    SETDIJ:  cpu time    0.0866: real time    0.0866
     EDDAV:  cpu time   22.3009: real time   25.0089
       DOS:  cpu time    0.0017: real time    0.0017
    CHARGE:  cpu time    1.6363: real time    1.6652
    MIXING:  cpu time    0.0253: real time    0.0253
    --------------------------------------------
      LOOP:  cpu time   24.7451: real time   27.4830

 eigenvalue-minimisations  :  4020
 total energy-change (2. order) : 0.3212486E+02  (-0.1248945E+02)
 number of electron     765.9999995 magnetization 
 augmentation part       -9.9782560 magnetization 

 Broyden mixing:
  rms(total) = 0.11505E+01    rms(broyden)= 0.11504E+01
  rms(prec ) = 0.19518E+01
  weight for this iteration     100.00

 eigenvalues of (default mixing * dielectric matrix)
  average eigenvalue GAMMA=   0.6865
  1.0217  0.3514

 Free energy of the ion-electron system (eV)
  ---------------------------------------------------
  alpha Z        PSCENC =       505.22967617
  Ewald energy   TEWEN  =     89158.23866333
  -Hartree energ DENC   =   -103590.05763716
  -exchange      EXHF   =         0.00000000
  -V(xc)+E(xc)   XCENC  =     -6589.82849565
  PAW double counting   =     19544.45515142   -11496.01258175
  entropy T*S    EENTRO =        -0.07387975
  eigenvalues    EBANDS =     -2490.96582160
  atomic energy  EATOM  =     14019.20197576
  Solvation  Ediel_sol  =         0.00000000
  ---------------------------------------------------
  free energy    TOTEN  =      -939.81294923 eV

  energy without entropy =     -939.73906948  energy(sigma->0) =     -939.77600936


--------------------------------------------------------------------------------------------------------




----------------------------------------- Iteration    1(   8)  ---------------------------------------


    POTLOK:  cpu time    0.6814: real time    0.6814
    SETDIJ:  cpu time    0.0864: real time    0.0864
     EDDAV:  cpu time   23.8774: real time   26.7869
       DOS:  cpu time    0.0235: real time    0.0235
    CHARGE:  cpu time    1.6474: real time    1.6763
    MIXING:  cpu time    0.0267: real time    0.0267
    --------------------------------------------
      LOOP:  cpu time   26.3444: real time   29.2839

 eigenvalue-minimisations  :  4404
 total energy-change (2. order) :-0.8514679E+01  (-0.4155844E+01)
 number of electron     765.9999999 magnetization 
 augmentation part       -9.9227756 magnetization 

 Broyden mixing:
  rms(total) = 0.10499E+01    rms(broyden)= 0.10497E+01
  rms(prec ) = 0.30103E+01
  weight for this iteration     100.00

 eigenvalues of (default mixing * dielectric matrix)
  average eigenvalue GAMMA=   0.8216
  1.7078  0.5190  0.2380

 Free energy of the ion-electron system (eV)
  ---------------------------------------------------
  alpha Z        PSCENC =       505.22967617
  Ewald energy   TEWEN  =     89158.23866333
  -Hartree energ DENC   =   -103681.07629414
  -exchange      EXHF   =         0.00000000
  -V(xc)+E(xc)   XCENC  =     -6586.51484355
  PAW double counting   =     20190.18056276   -12142.05531502
  entropy T*S    EENTRO =        -0.09989410
  eigenvalues    EBANDS =     -2411.43215918
  atomic energy  EATOM  =     14019.20197576
  Solvation  Ediel_sol  =         0.00000000
  ---------------------------------------------------
  free energy    TOTEN  =      -948.32762798 eV

  energy without entropy =     -948.22773389  energy(sigma->0) =     -948.27768093


--------------------------------------------------------------------------------------------------------




----------------------------------------- Iteration    1(   9)  ---------------------------------------


    POTLOK:  cpu time    0.6818: real time    0.6818
    SETDIJ:  cpu time    0.0885: real time    0.0885
     EDDAV:  cpu time   22.3905: real time   25.1365
       DOS:  cpu time    0.0226: real time    0.0226
    CHARGE:  cpu time    1.6503: real time    1.6795
    MIXING:  cpu time    0.0276: real time    0.0276
    --------------------------------------------
      LOOP:  cpu time   24.8628: real time   27.6390

 eigenvalue-minimisations  :  4044
 total energy-change (2. order) : 0.1118775E+02  (-0.1074505E+01)
 number of electron     765.9999989 magnetization 
 augmentation part       -9.8874898 magnetization 

 Broyden mixing:
  rms(total) = 0.72233E+00    rms(broyden)= 0.72134E+00
  rms(prec ) = 0.12310E+01
  weight for this iteration     100.00

 eigenvalues of (default mixing * dielectric matrix)
  average eigenvalue GAMMA=   0.8605
  2.4683  0.5426  0.2904  0.1409

 Free energy of the ion-electron system (eV)
  ---------------------------------------------------
  alpha Z        PSCENC =       505.22967617
  Ewald energy   TEWEN  =     89158.23866333
  -Hartree energ DENC   =   -103800.15424548
  -exchange      EXHF   =         0.00000000
  -V(xc)+E(xc)   XCENC  =     -6582.80467892
  PAW double counting   =     20859.47590549   -12811.73113365
  entropy T*S    EENTRO =        -0.10380056
  eigenvalues    EBANDS =     -2284.49224487
  atomic energy  EATOM  =     14019.20197576
  Solvation  Ediel_sol  =         0.00000000
  ---------------------------------------------------
  free energy    TOTEN  =      -937.13988273 eV

  energy without entropy =     -937.03608218  energy(sigma->0) =     -937.08798246


--------------------------------------------------------------------------------------------------------




----------------------------------------- Iteration    1(  10)  ---------------------------------------


    POTLOK:  cpu time    0.6971: real time    0.6971
    SETDIJ:  cpu time    0.0869: real time    0.0869
     EDDAV:  cpu time   21.9653: real time   24.6336
       DOS:  cpu time    0.0231: real time    0.0231
    CHARGE:  cpu time    1.6335: real time    1.6620
    MIXING:  cpu time    0.0289: real time    0.0289
    --------------------------------------------
      LOOP:  cpu time   24.4362: real time   27.1340

 eigenvalue-minimisations  :  3936
 total energy-change (2. order) : 0.3245132E+01  (-0.9279476E+00)
 number of electron     765.9999994 magnetization 
 augmentation part      -10.0348985 magnetization 

 Broyden mixing:
  rms(total) = 0.18084E+00    rms(broyden)= 0.18003E+00
  rms(prec ) = 0.26070E+00
  weight for this iteration     100.00

 eigenvalues of (default mixing * dielectric matrix)
  average eigenvalue GAMMA=   0.8597
  2.4904  0.8087  0.5567  0.3011  0.1414

 Free energy of the ion-electron system (eV)
  ---------------------------------------------------
  alpha Z        PSCENC =       505.22967617
  Ewald energy   TEWEN  =     89158.23866333
  -Hartree energ DENC   =   -103934.98552073
  -exchange      EXHF   =         0.00000000
  -V(xc)+E(xc)   XCENC  =     -6574.05385061
  PAW double counting   =     22223.53999268   -14176.79014763
  entropy T*S    EENTRO =        -0.07979809
  eigenvalues    EBANDS =     -2154.19574124
  atomic energy  EATOM  =     14019.20197576
  Solvation  Ediel_sol  =         0.00000000
  ---------------------------------------------------
  free energy    TOTEN  =      -933.89475036 eV

  energy without entropy =     -933.81495227  energy(sigma->0) =     -933.85485132


--------------------------------------------------------------------------------------------------------




----------------------------------------- Iteration    1(  11)  ---------------------------------------


    POTLOK:  cpu time    0.6885: real time    0.6885
    SETDIJ:  cpu time    0.0863: real time    0.0863
     EDDAV:  cpu time   21.4415: real time   24.0689
       DOS:  cpu time    0.0227: real time    0.0227
    CHARGE:  cpu time    1.6359: real time    1.6645
    MIXING:  cpu time    0.0309: real time    0.0341
    --------------------------------------------
      LOOP:  cpu time   23.9072: real time   26.5676

 eigenvalue-minimisations  :  3816
 total energy-change (2. order) : 0.6762823E-01  (-0.2593676E+00)
 number of electron     765.9999995 magnetization 
 augmentation part      -10.1001010 magnetization 

 Broyden mixing:
  rms(total) = 0.10392E+00    rms(broyden)= 0.10357E+00
  rms(prec ) = 0.14262E+00
  weight for this iteration     100.00

 eigenvalues of (default mixing * dielectric matrix)
  average eigenvalue GAMMA=   0.8884
  2.3702  1.3560  0.5831  0.5831  0.2966  0.1413

 Free energy of the ion-electron system (eV)
  ---------------------------------------------------
  alpha Z        PSCENC =       505.22967617
  Ewald energy   TEWEN  =     89158.23866333
  -Hartree energ DENC   =   -103986.66811314
  -exchange      EXHF   =         0.00000000
  -V(xc)+E(xc)   XCENC  =     -6572.44834180
  PAW double counting   =     22402.26262605   -14355.80830715
  entropy T*S    EENTRO =        -0.08637486
  eigenvalues    EBANDS =     -2103.74892650
  atomic energy  EATOM  =     14019.20197576
  Solvation  Ediel_sol  =         0.00000000
  ---------------------------------------------------
  free energy    TOTEN  =      -933.82712213 eV

  energy without entropy =     -933.74074727  energy(sigma->0) =     -933.78393470


--------------------------------------------------------------------------------------------------------




----------------------------------------- Iteration    1(  12)  ---------------------------------------


    POTLOK:  cpu time    0.6904: real time    0.6904
    SETDIJ:  cpu time    0.0862: real time    0.0862
     EDDAV:  cpu time   21.9283: real time   24.6284
       DOS:  cpu time    0.0138: real time    0.0138
    CHARGE:  cpu time    1.6341: real time    1.6629
    MIXING:  cpu time    0.0310: real time    0.0310
    --------------------------------------------
      LOOP:  cpu time   24.3854: real time   27.1153

 eigenvalue-minimisations  :  3936
 total energy-change (2. order) : 0.3869871E-01  (-0.3522110E-01)
 number of electron     765.9999995 magnetization 
 augmentation part      -10.1131483 magnetization 

 Broyden mixing:
  rms(total) = 0.74999E-01    rms(broyden)= 0.74909E-01
  rms(prec ) = 0.99248E-01
  weight for this iteration     100.00

 eigenvalues of (default mixing * dielectric matrix)
  average eigenvalue GAMMA=   1.0014
  2.3435  2.3435  0.1413  0.2978  0.6885  0.6885  0.5064

 Free energy of the ion-electron system (eV)
  ---------------------------------------------------
  alpha Z        PSCENC =       505.22967617
  Ewald energy   TEWEN  =     89158.23866333
  -Hartree energ DENC   =   -104015.95250136
  -exchange      EXHF   =         0.00000000
  -V(xc)+E(xc)   XCENC  =     -6572.07347224
  PAW double counting   =     22406.87377283   -14360.62184533
  entropy T*S    EENTRO =        -0.08109882
  eigenvalues    EBANDS =     -2074.60359375
  atomic energy  EATOM  =     14019.20197576
  Solvation  Ediel_sol  =         0.00000000
  ---------------------------------------------------
  free energy    TOTEN  =      -933.78842342 eV

  energy without entropy =     -933.70732460  energy(sigma->0) =     -933.74787401


--------------------------------------------------------------------------------------------------------




----------------------------------------- Iteration    1(  13)  ---------------------------------------


    POTLOK:  cpu time    0.6905: real time    0.6905
    SETDIJ:  cpu time    0.0863: real time    0.0863
     EDDAV:  cpu time   21.3548: real time   23.9416
       DOS:  cpu time    0.0029: real time    0.0029
    CHARGE:  cpu time    1.6321: real time    1.6608
    MIXING:  cpu time    0.0325: real time    0.0325
    --------------------------------------------
      LOOP:  cpu time   23.8006: real time   26.4171

 eigenvalue-minimisations  :  3780
 total energy-change (2. order) : 0.3860817E-01  (-0.1094502E-01)
 number of electron     765.9999994 magnetization 
 augmentation part      -10.1072058 magnetization 

 Broyden mixing:
  rms(total) = 0.43986E-01    rms(broyden)= 0.43978E-01
  rms(prec ) = 0.68964E-01
  weight for this iteration     100.00

 eigenvalues of (default mixing * dielectric matrix)
  average eigenvalue GAMMA=   1.0044
  2.5032  2.5032  0.7734  0.7734  0.1413  0.2973  0.5580  0.4853

 Free energy of the ion-electron system (eV)
  ---------------------------------------------------
  alpha Z        PSCENC =       505.22967617
  Ewald energy   TEWEN  =     89158.23866333
  -Hartree energ DENC   =   -104063.86821133
  -exchange      EXHF   =         0.00000000
  -V(xc)+E(xc)   XCENC  =     -6571.45122228
  PAW double counting   =     22421.50423192   -14375.55725453
  entropy T*S    EENTRO =        -0.08590320
  eigenvalues    EBANDS =     -2026.96177108
  atomic energy  EATOM  =     14019.20197576
  Solvation  Ediel_sol  =         0.00000000
  ---------------------------------------------------
  free energy    TOTEN  =      -933.74981525 eV

  energy without entropy =     -933.66391205  energy(sigma->0) =     -933.70686365


--------------------------------------------------------------------------------------------------------




----------------------------------------- Iteration    1(  14)  ---------------------------------------


    POTLOK:  cpu time    0.6944: real time    0.6944
    SETDIJ:  cpu time    0.0863: real time    0.0862
     EDDAV:  cpu time   20.8376: real time   23.4229
       DOS:  cpu time    0.0020: real time    0.0020
    CHARGE:  cpu time    1.6424: real time    1.6715
    MIXING:  cpu time    0.0351: real time    0.0351
    --------------------------------------------
      LOOP:  cpu time   23.2993: real time   25.9147

 eigenvalue-minimisations  :  3672
 total energy-change (2. order) : 0.2305714E-01  (-0.3197974E-02)
 number of electron     765.9999994 magnetization 
 augmentation part      -10.1070020 magnetization 

 Broyden mixing:
  rms(total) = 0.28716E-01    rms(broyden)= 0.28709E-01
  rms(prec ) = 0.44949E-01
  weight for this iteration     100.00

 eigenvalues of (default mixing * dielectric matrix)
  average eigenvalue GAMMA=   1.0317
  2.5306  2.5306  1.0253  1.0253  0.1413  0.2975  0.6336  0.6336  0.4674

 Free energy of the ion-electron system (eV)
  ---------------------------------------------------
  alpha Z        PSCENC =       505.22967617
  Ewald energy   TEWEN  =     89158.23866333
  -Hartree energ DENC   =   -104092.21320909
  -exchange      EXHF   =         0.00000000
  -V(xc)+E(xc)   XCENC  =     -6570.99905147
  PAW double counting   =     22437.62739503   -14391.79889060
  entropy T*S    EENTRO =        -0.08247163
  eigenvalues    EBANDS =     -1998.93084561
  atomic energy  EATOM  =     14019.20197576
  Solvation  Ediel_sol  =         0.00000000
  ---------------------------------------------------
  free energy    TOTEN  =      -933.72675811 eV

  energy without entropy =     -933.64428648  energy(sigma->0) =     -933.68552230


--------------------------------------------------------------------------------------------------------




----------------------------------------- Iteration    1(  15)  ---------------------------------------


    POTLOK:  cpu time    0.7014: real time    0.7014
    SETDIJ:  cpu time    0.0864: real time    0.0864
     EDDAV:  cpu time   21.2049: real time   23.8188
       DOS:  cpu time    0.0023: real time    0.0023
    CHARGE:  cpu time    1.6268: real time    1.6555
    MIXING:  cpu time    0.0361: real time    0.0361
    --------------------------------------------
      LOOP:  cpu time   23.6595: real time   26.3032

 eigenvalue-minimisations  :  3756
 total energy-change (2. order) : 0.4357514E-02  (-0.2882872E-02)
 number of electron     765.9999994 magnetization 
 augmentation part      -10.1038482 magnetization 

 Broyden mixing:
  rms(total) = 0.16355E-01    rms(broyden)= 0.16346E-01
  rms(prec ) = 0.26284E-01
  weight for this iteration     100.00

 eigenvalues of (default mixing * dielectric matrix)
  average eigenvalue GAMMA=   1.1242
  2.8567  2.8567  1.2953  1.2953  0.1413  0.2975  0.7057  0.7057  0.6186  0.4693

 Free energy of the ion-electron system (eV)
  ---------------------------------------------------
  alpha Z        PSCENC =       505.22967617
  Ewald energy   TEWEN  =     89158.23866333
  -Hartree energ DENC   =   -104118.45604297
  -exchange      EXHF   =         0.00000000
  -V(xc)+E(xc)   XCENC  =     -6570.68330459
  PAW double counting   =     22443.61210964   -14397.78927641
  entropy T*S    EENTRO =        -0.08183475
  eigenvalues    EBANDS =     -1972.99436678
  atomic energy  EATOM  =     14019.20197576
  Solvation  Ediel_sol  =         0.00000000
  ---------------------------------------------------
  free energy    TOTEN  =      -933.72240060 eV

  energy without entropy =     -933.64056584  energy(sigma->0) =     -933.68148322


--------------------------------------------------------------------------------------------------------




----------------------------------------- Iteration    1(  16)  ---------------------------------------


    POTLOK:  cpu time    0.6977: real time    0.6977
    SETDIJ:  cpu time    0.0867: real time    0.0867
     EDDAV:  cpu time   20.9065: real time   23.5335
       DOS:  cpu time    0.0019: real time    0.0019
    CHARGE:  cpu time    1.6352: real time    1.6638
    MIXING:  cpu time    0.0381: real time    0.0381
    --------------------------------------------
      LOOP:  cpu time   23.3677: real time   26.0244

 eigenvalue-minimisations  :  3696
 total energy-change (2. order) :-0.4656824E-02  (-0.1208231E-02)
 number of electron     765.9999994 magnetization 
 augmentation part      -10.0997192 magnetization 

 Broyden mixing:
  rms(total) = 0.13639E-01    rms(broyden)= 0.13622E-01
  rms(prec ) = 0.19087E-01
  weight for this iteration     100.00

 eigenvalues of (default mixing * dielectric matrix)
  average eigenvalue GAMMA=   1.2254
  3.9137  2.5958  1.8964  1.0992  1.0992  0.1413  0.2975  0.6800  0.6800  0.6049
  0.4711

 Free energy of the ion-electron system (eV)
  ---------------------------------------------------
  alpha Z        PSCENC =       505.22967617
  Ewald energy   TEWEN  =     89158.23866333
  -Hartree energ DENC   =   -104143.98391780
  -exchange      EXHF   =         0.00000000
  -V(xc)+E(xc)   XCENC  =     -6570.51850451
  PAW double counting   =     22428.30086294   -14382.46528289
  entropy T*S    EENTRO =        -0.08174858
  eigenvalues    EBANDS =     -1947.64878184
  atomic energy  EATOM  =     14019.20197576
  Solvation  Ediel_sol  =         0.00000000
  ---------------------------------------------------
  free energy    TOTEN  =      -933.72705742 eV

  energy without entropy =     -933.64530885  energy(sigma->0) =     -933.68618313


--------------------------------------------------------------------------------------------------------




----------------------------------------- Iteration    1(  17)  ---------------------------------------


    POTLOK:  cpu time    0.7000: real time    0.7000
    SETDIJ:  cpu time    0.0864: real time    0.0864
     EDDAV:  cpu time   20.6320: real time   23.2321
       DOS:  cpu time    0.0143: real time    0.0143
    CHARGE:  cpu time    1.6223: real time    1.6512
[...]
     11.69112     -8.59029     -8.26601        -0.035180     -0.005780      0.013920
     11.69112    -17.18057    -13.22561        -0.009650     -0.004005     -0.021294
     11.69112    -11.45372     -3.30640        -0.027180     -0.033729      0.012416
     11.69112    -14.31714     -8.26601         0.017752      0.026171      0.012097
     13.99306      0.00000      0.00000         0.004972     -0.005147     -0.013942
     13.99306     -2.86343     -4.95960         0.022963     -0.001451      0.004830
     13.99306     -5.72686     -9.91921         0.001454      0.011419     -0.016076
     13.99306     -5.72686      0.00000         0.008154      0.008940      0.001981
     13.99306     -8.59029     -4.95960         0.017476     -0.030078     -0.005115
     13.99306    -11.45372     -9.91921        -0.040566      0.009001      0.000116
     13.99306    -11.45372      0.00000        -0.009423     -0.009023      0.043246
     13.99306    -14.31714     -4.95960         0.024315      0.045262     -0.009982
     13.99306    -17.18057     -9.91921        -0.015109      0.007054     -0.008379
     16.34180     -2.86343     -1.65320        -0.019711     -0.017142     -0.010124
     16.34180     -5.72686     -6.61281         0.041451     -0.071649      0.000781
     16.34180     -8.59029    -11.57241         0.044092      0.011372      0.006056
     16.34180     -8.59029     -1.65320         0.025707     -0.007636     -0.017809
     16.34180    -11.45372     -6.61281        -0.736342     -1.485075     -0.013605
     16.34180    -14.31714    -11.57241        -0.001000      0.016682      0.002191
     16.34180    -14.31714     -1.65320         0.003022      0.007049     -0.008240
     16.34180    -17.18057     -6.61281         0.000357      0.022370     -0.004913
     16.34180    -20.04400    -11.57241        -0.001514     -0.016704     -0.000565
      2.36204     -7.15857     -4.13300        -0.013088      0.013867      0.004899
      2.36204    -10.02200     -9.09261         0.007592     -0.000000     -0.014938
      2.36204    -12.88543    -14.05221         0.007550      0.006679     -0.003088
      2.36204    -12.88543     -4.13300        -0.013088     -0.013867      0.004899
      2.36204    -15.74886     -9.09261         0.001900      0.000440      0.013186
      2.36204    -18.61229    -14.05221         0.003909     -0.000000     -0.022775
      2.36204    -18.61229     -4.13300         0.003982     -0.000000     -0.015700
      2.36204    -21.47572     -9.09261         0.001900     -0.000440      0.013186
      2.36204    -24.33915    -14.05221         0.007550     -0.006679     -0.003088
      4.71078    -10.02200     -5.78621         0.030923     -0.000000      0.003819
      4.71078    -12.88543    -10.74581        -0.017400      0.009725     -0.002349
      4.71078     -7.15857     -0.82660        -0.007937     -0.001794     -0.008148
      4.71078    -15.74886     -5.78621        -0.021216      0.005272      0.005894
      4.71078    -18.61229    -10.74581        -0.008161     -0.000000      0.003675
      4.71078    -12.88543     -0.82660        -0.007937      0.001794     -0.008148
      4.71078     -4.29514     -5.78621        -0.021216     -0.005272      0.005894
      4.71078     -7.15857    -10.74581        -0.017400     -0.009725     -0.002349
      4.71078     -1.43171     -0.82660        -0.011508     -0.000000     -0.010659
      7.01272    -12.88543     -7.43941         0.002060     -0.000480      0.002686
      7.01272    -15.74886    -12.39901         0.011332     -0.015117      0.012157
      7.01272    -10.02200     -2.47980         0.028606     -0.000000      0.009856
      7.01272    -18.61229     -7.43941         0.014357     -0.000000     -0.020944
      7.01272    -21.47572    -12.39901         0.011332      0.015117      0.012157
      7.01272    -15.74886     -2.47980         0.005236     -0.010039      0.004367
      7.01272     -7.15857     -7.43941         0.002060      0.000480      0.002686
      7.01272    -10.02200    -12.39901        -0.001958     -0.000000      0.004826
      7.01272     -4.29514     -2.47980         0.005236      0.010039      0.004367
      9.35192    -15.74886     -9.09261        -0.024544     -0.011500     -0.010609
      9.35192    -18.61229    -14.05221         0.002223     -0.000000      0.015690
      9.35192    -12.88543     -4.13300         0.013308     -0.004501      0.003518
      9.35192    -21.47572     -9.09261        -0.024544      0.011500     -0.010609
      9.35192    -24.33915    -14.05221         0.007753     -0.004214     -0.020698
      9.35192    -18.61229     -4.13300        -0.005403     -0.000000      0.000990
      9.35192    -10.02200     -9.09261        -0.015468     -0.000000     -0.003669
      9.35192    -12.88543    -14.05221         0.007753      0.004214     -0.020698
      9.35192     -7.15857     -4.13300         0.013308      0.004501      0.003518
     11.69112    -18.61229    -10.74581         0.031346     -0.000000      0.001264
     11.69112    -12.88543     -0.82660        -0.016564      0.005432     -0.005715
     11.69112    -15.74886     -5.78621        -0.014844      0.019555      0.004258
     11.69112     -7.15857    -10.74581        -0.003487     -0.006617      0.015662
     11.69112     -1.43171     -0.82660        -0.011601     -0.000000      0.007094
     11.69112     -4.29514     -5.78621        -0.014844     -0.019555      0.004258
     11.69112    -12.88543    -10.74581        -0.003487      0.006617      0.015662
     11.69112     -7.15857     -0.82660        -0.016564     -0.005432     -0.005715
     11.69112    -10.02200     -5.78621         0.016959     -0.000000     -0.031063
     13.99306    -21.47572    -12.39901         0.006482     -0.012646      0.010159
     13.99306    -15.74886     -2.47980         0.004895     -0.021799      0.010747
     13.99306    -18.61229     -7.43941        -0.006553     -0.000000     -0.004906
     13.99306    -10.02200    -12.39901         0.010486     -0.000000      0.013079
     13.99306     -4.29514     -2.47980         0.004895      0.021799      0.010747
     13.99306     -7.15857     -7.43941        -0.097714      0.066153     -0.055951
     13.99306    -15.74886    -12.39901         0.006482      0.012646      0.010159
     13.99306    -10.02200     -2.47980        -0.031006     -0.000000     -0.029333
     13.99306    -12.88543     -7.43941        -0.097714     -0.066153     -0.055951
     16.34180    -24.33915    -14.05221        -0.002921     -0.004135      0.002174
     16.34180    -18.61229     -4.13300        -0.009839     -0.000000      0.011794
     16.34180    -21.47572     -9.09261         0.008839      0.005751      0.020909
     16.34180    -12.88543    -14.05221        -0.002921      0.004135      0.002174
     16.34180     -7.15857     -4.13300        -0.028688      0.055158      0.047240
     16.34180    -10.02200     -9.09261         0.239510     -0.000000      0.415813
     16.34180    -18.61229    -14.05221         0.011290     -0.000000     -0.001657
     16.34180    -12.88543     -4.13300        -0.028688     -0.055158      0.047240
     16.34180    -15.74886     -9.09261         0.008839     -0.005751      0.020909
      2.36204     -8.59029     -6.61281         0.030583      0.023384      0.001696
      2.36204    -11.45372    -11.57241         0.004283     -0.000636     -0.010099
      2.36204     -5.72686     -1.65320        -0.002524      0.011855     -0.009081
      2.36204    -14.31714     -6.61281         0.004384     -0.010217      0.004214
      2.36204    -17.18057    -11.57241         0.003899      0.027742      0.001642
      2.36204    -11.45372     -1.65320         0.011784     -0.003116      0.001982
      2.36204    -20.04400     -6.61281         0.007788     -0.003260     -0.003406
      2.36204    -22.90743    -11.57241         0.010962     -0.000201      0.011053
      2.36204    -17.18057     -1.65320        -0.001516      0.008859      0.003227
      4.71078    -11.45372     -8.26601         0.018491     -0.015499     -0.004089
      4.71078    -14.31714    -13.22561        -0.010516      0.000964     -0.003274
      4.71078     -8.59029     -3.30640         0.001237      0.001269      0.011776
      4.71078    -17.18057     -8.26601        -0.019363     -0.005976      0.001120
      4.71078    -20.04400    -13.22561        -0.012022     -0.009057      0.006670
      4.71078    -14.31714     -3.30640        -0.018138     -0.007849      0.001428
      4.71078     -5.72686     -8.26601        -0.006623      0.002060      0.003259
      4.71078     -8.59029    -13.22561        -0.024465      0.002040     -0.000065
      4.71078     -2.86343     -3.30640        -0.002989      0.005461     -0.002655
      7.01272    -14.31714     -9.91921         0.009610      0.005384      0.003024
      7.01272     -8.59029      0.00000         0.028495     -0.007553     -0.009554
      7.01272    -11.45372     -4.95960        -0.002927     -0.018061      0.006313
      7.01272    -20.04400     -9.91921         0.035186      0.004661     -0.004765
      7.01272    -14.31714      0.00000         0.023115      0.004549     -0.004270
      7.01272    -17.18057     -4.95960         0.016490     -0.004787      0.004876
      7.01272     -8.59029     -9.91921        -0.002721      0.013684      0.006050
      7.01272     -2.86343      0.00000         0.014972     -0.001556     -0.010422
      7.01272     -5.72686     -4.95960         0.011408     -0.014897     -0.009633
      9.35192    -17.18057    -11.57241        -0.008987     -0.000319     -0.010138
      9.35192    -11.45372     -1.65320         0.005623      0.018258     -0.016948
      9.35192    -14.31714     -6.61281         0.002468      0.025691      0.006878
      9.35192    -22.90743    -11.57241        -0.005986     -0.003931     -0.000716
      9.35192    -17.18057     -1.65320         0.010219      0.009502      0.004477
      9.35192    -20.04400     -6.61281        -0.015193      0.007419      0.011524
      9.35192    -11.45372    -11.57241         0.018281      0.004178      0.017333
      9.35192     -5.72686     -1.65320        -0.002745      0.008491      0.007834
      9.35192     -8.59029     -6.61281        -0.012778     -0.008270      0.001825
     11.69112    -20.04400    -13.22561        -0.009650      0.004005     -0.021294
     11.69112    -14.31714     -3.30640        -0.011673      0.021753     -0.008111
     11.69112    -17.18057     -8.26601         0.024444      0.025845      0.003523
     11.69112     -8.59029    -13.22561        -0.021428     -0.003741     -0.001388
     11.69112     -2.86343     -3.30640        -0.014659     -0.008631     -0.005996
     11.69112     -5.72686     -8.26601         0.017752     -0.026171      0.012097
     11.69112    -14.31714    -13.22561        -0.005029      0.008978     -0.013282
     11.69112     -8.59029     -3.30640        -0.027180      0.033729      0.012416
     11.69112    -11.45372     -8.26601        -0.035180      0.005780      0.013920
     13.99306    -14.31714      0.00000         0.008154     -0.008940      0.001981
     13.99306    -17.18057     -4.95960         0.022963      0.001451      0.004830
     13.99306    -20.04400     -9.91921        -0.015109     -0.007054     -0.008379
     13.99306     -2.86343      0.00000         0.004972      0.005147     -0.013942
     13.99306     -5.72686     -4.95960         0.024315     -0.045262     -0.009982
     13.99306     -8.59029     -9.91921        -0.040566     -0.009001      0.000116
     13.99306     -8.59029      0.00000        -0.009423      0.009023      0.043246
     13.99306    -11.45372     -4.95960         0.017476      0.030078     -0.005115
     13.99306    -14.31714     -9.91921         0.001454     -0.011419     -0.016076
     16.34180    -17.18057     -1.65320        -0.019711      0.017142     -0.010124
     16.34180    -20.04400     -6.61281         0.000357     -0.022370     -0.004913
     16.34180    -22.90743    -11.57241        -0.001000     -0.016682      0.002191
     16.34180     -5.72686     -1.65320         0.003022     -0.007049     -0.008240
     16.34180     -8.59029     -6.61281        -0.736342      1.485075     -0.013605
     16.34180    -11.45372    -11.57241         0.044092     -0.011372      0.006056
     16.34180    -11.45372     -1.65320         0.025707      0.007636     -0.017809
     16.34180    -14.31714     -6.61281         0.041451      0.071649      0.000781
     16.34180    -17.18057    -11.57241        -0.001514      0.016704     -0.000565
      2.36204    -10.02200     -4.13300         0.011458     -0.000000      0.010052
      2.36204    -12.88543     -9.09261        -0.011563     -0.008476     -0.011182
      2.36204    -15.74886    -14.05221         0.006315     -0.004591      0.005902
      2.36204    -15.74886     -4.13300        -0.006484      0.004952     -0.010493
      2.36204    -18.61229     -9.09261        -0.007805     -0.000000      0.013781
      2.36204    -21.47572    -14.05221         0.006315      0.004591      0.005902
      2.36204     -4.29514     -4.13300        -0.006484     -0.004952     -0.010493
      2.36204     -7.15857     -9.09261        -0.011563      0.008476     -0.011182
      2.36204    -10.02200    -14.05221        -0.001396     -0.000000      0.014797
      4.71078    -12.88543     -5.78621         0.015770     -0.010424     -0.012401
      4.71078    -15.74886    -10.74581        -0.013996      0.006700     -0.000029
      4.71078    -10.02200     -0.82660        -0.026691     -0.000000     -0.013422
      4.71078    -18.61229     -5.78621        -0.024289     -0.000000      0.012813
      4.71078    -21.47572    -10.74581        -0.013996     -0.006700     -0.000029
      4.71078    -15.74886     -0.82660        -0.019419     -0.007663     -0.009369
      4.71078     -7.15857     -5.78621         0.015770      0.010424     -0.012401
      4.71078    -10.02200    -10.74581         0.003208     -0.000000     -0.003230
      4.71078     -4.29514     -0.82660        -0.019419      0.007663     -0.009369
      7.01272    -15.74886     -7.43941         0.010722      0.005675     -0.007807
      7.01272    -18.61229    -12.39901         0.027093     -0.000000      0.010941
      7.01272    -12.88543     -2.47980         0.009074      0.024562     -0.005396
      7.01272    -21.47571     -7.43941         0.010722     -0.005675     -0.007807
      7.01272    -24.33914    -12.39901         0.013043      0.003383      0.006048
      7.01272    -18.61228     -2.47980        -0.000997     -0.000000      0.005156
      7.01272    -10.02200     -7.43941        -0.003743     -0.000000      0.002715
      7.01272    -12.88543    -12.39901         0.013043     -0.003383      0.006048
      7.01272     -7.15857     -2.47980         0.009074     -0.024562     -0.005396
      9.35192    -18.61229     -9.09261        -0.041860     -0.000000     -0.014837
      9.35192    -21.47572    -14.05221         0.003701      0.009326      0.003452
      9.35192    -15.74886     -4.13300        -0.005879     -0.010998      0.011626
      9.35192     -7.15857     -9.09261         0.014963     -0.009711      0.001961
      9.35192    -10.02200    -14.05221         0.024408     -0.000000     -0.016923
      9.35192     -4.29514     -4.13300        -0.005879      0.010998      0.011626
      9.35192    -12.88543     -9.09261         0.014963      0.009711      0.001961
      9.35192    -15.74886    -14.05221         0.003701     -0.009326      0.003452
      9.35192    -10.02200     -4.13300        -0.023214     -0.000000      0.008333
     11.69112    -21.47572    -10.74581         0.011951      0.001676      0.005818
     11.69112    -15.74886     -0.82660        -0.019336     -0.005098     -0.004663
     11.69112    -18.61229     -5.78621        -0.013288     -0.000000      0.023411
     11.69112    -10.02200    -10.74581         0.012373     -0.000000      0.000460
     11.69112     -4.29514     -0.82660        -0.019336      0.005098     -0.004663
     11.69112     -7.15857     -5.78621        -0.029481      0.008172      0.020158
     11.69112    -15.74886    -10.74581         0.011951     -0.001676      0.005818
     11.69112    -10.02200     -0.82660        -0.011846     -0.000000     -0.003720
     11.69112    -12.88543     -5.78621        -0.029481     -0.008172      0.020158
     13.99306    -24.33914    -12.39901         0.018367      0.012338     -0.002813
     13.99306    -18.61228     -2.47980        -0.011476     -0.000000      0.006016
     13.99306    -21.47571     -7.43941        -0.000887      0.036203     -0.017013
     13.99306    -12.88543    -12.39901         0.018367     -0.012338     -0.002813
     13.99306     -7.15857     -2.47980        -0.002420      0.014342     -0.001185
     13.99306    -10.02200     -7.43941         0.129235     -0.000000      0.044354
     13.99306    -18.61229    -12.39901        -0.022390     -0.000000      0.017494
     13.99306    -12.88543     -2.47980        -0.002420     -0.014342     -0.001185
     13.99306    -15.74886     -7.43941        -0.000887     -0.036203     -0.017013
     16.34180    -10.02200    -14.05221         0.007083     -0.000000     -0.005287
     16.34180     -4.29514     -4.13300         0.005957      0.014038     -0.004327
     16.34180     -7.15857     -9.09261        -0.054173      0.098310     -0.061598
     16.34180    -15.74886    -14.05221         0.003103     -0.010518     -0.005352
     16.34180    -10.02200     -4.13300         0.251030     -0.000000     -0.321775
     16.34180    -12.88543     -9.09261        -0.054173     -0.098310     -0.061598
     16.34180    -21.47572    -14.05221         0.003103      0.010518     -0.005352
     16.34180    -15.74886     -4.13300         0.005957     -0.014038     -0.004327
     16.34180    -18.61229     -9.09261         0.000196     -0.000000      0.000282
     17.54000    -10.02200     -7.24000         0.680780     -0.000000     -7.215929
     17.54000    -10.02200     -5.98600         0.386929      0.000000      7.264141
 -----------------------------------------------------------------------------------
    total drift:                                0.203777     -0.000003      0.002614


--------------------------------------------------------------------------------------------------------



  FREE ENERGIE OF THE ION-ELECTRON SYSTEM (eV)
  ---------------------------------------------------
  free  energy   TOTEN  =      -933.74861011 eV

  energy  without entropy=     -933.66768123  energy(sigma->0) =     -933.70814567
 


--------------------------------------------------------------------------------------------------------


    POTLOK:  cpu time    0.7943: real time    0.7945


--------------------------------------------------------------------------------------------------------


     LOOP+:  cpu time  720.6435: real time  802.9742
    4ORBIT:  cpu time    0.0000: real time    0.0000

 total amount of memory used by VASP MPI-rank0   652149. kBytes
=======================================================================

   base      :      30000. kBytes
   nonlr-proj:      89928. kBytes
   fftplans  :      40601. kBytes
   grid      :      95147. kBytes
   one-center:       3950. kBytes
   wavefun   :     392523. kBytes
 
  
  
 General timing and accounting informations for this job:
 ========================================================
  
                  Total CPU time used (sec):      735.208
                            User time (sec):      106.167
                          System time (sec):      629.041
                         Elapsed time (sec):      820.391
  
                   Maximum memory used (kb):     1005816.
                   Average memory used (kb):           0.
  
                          Minor page faults:     27900011
                          Major page faults:           38
                 Voluntary context switches:        19549
