 254 254   0   0
  0.2268316E+02  0.1514622E-08  0.1514622E-08  0.2900000E-08  0.5000000E-15
  1.000000000000000E-004
  CAR 
 NiAl                                    
      5.80310617    -19.86420047  301     -0.61613982      1.00000000
    -19.864  0.0000E+00  0.0000E+00
    -19.779  0.0000E+00  0.0000E+00
    -19.693  0.0000E+00  0.0000E+00
    -19.608  0.0000E+00  0.0000E+00
    -19.522  0.0000E+00  0.0000E+00
    -19.436  0.0000E+00  0.0000E+00
    -19.351  0.0000E+00  0.0000E+00
    -19.265  0.0000E+00  0.0000E+00
    -19.180  0.0000E+00  0.0000E+00
    -19.094  0.0000E+00  0.0000E+00
    -19.009  0.0000E+00  0.0000E+00
    -18.923  0.2046E-08  0.1751E-09
    -18.838  0.8694E-03  0.7438E-04
    -18.752  0.1438E+01  0.1231E+00
    -18.666  0.1750E+02  0.1620E+01
    -18.581  0.4429E+01  0.1999E+01
    -18.495  0.1138E-01  0.2000E+01
    -18.410  0.1260E-06  0.2000E+01
    -18.324  0.5191E-14  0.2000E+01
    -18.239  0.0000E+00  0.2000E+01
    -18.153  0.0000E+00  0.2000E+01
    -18.067  0.0000E+00  0.2000E+01
    -17.982  0.0000E+00  0.2000E+01
    -17.896  0.0000E+00  0.2000E+01
    -17.811  0.0000E+00  0.2000E+01
    -17.725  0.0000E+00  0.2000E+01
    -17.640  0.0000E+00  0.2000E+01
    -17.554  0.0000E+00  0.2000E+01
    -17.469  0.0000E+00  0.2000E+01
    -17.383  0.0000E+00  0.2000E+01
    -17.297  0.0000E+00  0.2000E+01
    -17.212  0.0000E+00  0.2000E+01
    -17.126  0.0000E+00  0.2000E+01
    -17.041  0.0000E+00  0.2000E+01
    -16.955  0.0000E+00  0.2000E+01
    -16.870  0.0000E+00  0.2000E+01
    -16.784  0.0000E+00  0.2000E+01
    -16.699  0.0000E+00  0.2000E+01
    -16.613  0.0000E+00  0.2000E+01
    -16.527  0.0000E+00  0.2000E+01
    -16.442  0.0000E+00  0.2000E+01
    -16.356  0.0000E+00  0.2000E+01
    -16.271  0.0000E+00  0.2000E+01
    -16.185  0.0000E+00  0.2000E+01
    -16.100  0.0000E+00  0.2000E+01
    -16.014  0.0000E+00  0.2000E+01
    -15.929  0.0000E+00  0.2000E+01
    -15.843  0.0000E+00  0.2000E+01
    -15.757  0.0000E+00  0.2000E+01
    -15.672  0.0000E+00  0.2000E+01
    -15.586  0.0000E+00  0.2000E+01
    -15.501  0.0000E+00  0.2000E+01
    -15.415  0.0000E+00  0.2000E+01
    -15.330  0.0000E+00  0.2000E+01
    -15.244  0.0000E+00  0.2000E+01
    -15.159  0.0000E+00  0.2000E+01
    -15.073  0.0000E+00  0.2000E+01
    -14.987  0.0000E+00  0.2000E+01
    -14.902  0.0000E+00  0.2000E+01
    -14.816  0.0000E+00  0.2000E+01
    -14.731  0.0000E+00  0.2000E+01
    -14.645  0.0000E+00  0.2000E+01
    -14.560  0.0000E+00  0.2000E+01
    -14.474  0.0000E+00  0.2000E+01
    -14.389  0.0000E+00  0.2000E+01
    -14.303  0.0000E+00  0.2000E+01
    -14.217  0.0000E+00  0.2000E+01
    -14.132  0.0000E+00  0.2000E+01
    -14.046  0.0000E+00  0.2000E+01
    -13.961  0.0000E+00  0.2000E+01
    -13.875  0.0000E+00  0.2000E+01
    -13.790  0.0000E+00  0.2000E+01
    -13.704  0.0000E+00  0.2000E+01
    -13.618  0.0000E+00  0.2000E+01
    -13.533  0.0000E+00  0.2000E+01
    -13.447  0.0000E+00  0.2000E+01
    -13.362  0.0000E+00  0.2000E+01
    -13.276  0.0000E+00  0.2000E+01
    -13.191  0.0000E+00  0.2000E+01
    -13.105  0.0000E+00  0.2000E+01
    -13.020  0.0000E+00  0.2000E+01
    -12.934  0.0000E+00  0.2000E+01
    -12.848  0.0000E+00  0.2000E+01
    -12.763  0.0000E+00  0.2000E+01
    -12.677  0.0000E+00  0.2000E+01
    -12.592  0.0000E+00  0.2000E+01
    -12.506  0.0000E+00  0.2000E+01
    -12.421  0.0000E+00  0.2000E+01
    -12.335  0.0000E+00  0.2000E+01
    -12.250  0.0000E+00  0.2000E+01
    -12.164  0.0000E+00  0.2000E+01
    -12.078  0.0000E+00  0.2000E+01
    -11.993  0.0000E+00  0.2000E+01
    -11.907  0.0000E+00  0.2000E+01
    -11.822  0.0000E+00  0.2000E+01
    -11.736  0.0000E+00  0.2000E+01
    -11.651  0.0000E+00  0.2000E+01
    -11.565  0.0000E+00  0.2000E+01
    -11.480  0.0000E+00  0.2000E+01
    -11.394  0.0000E+00  0.2000E+01
    -11.308  0.0000E+00  0.2000E+01
    -11.223  0.2595E-14  0.2000E+01
    -11.137  0.8194E-07  0.2000E+01
    -11.052  0.8762E-02  0.2001E+01
    -10.966  0.3985E+01  0.2342E+01
    -10.881  0.1772E+02  0.3858E+01
    -10.795  0.1656E+01  0.4000E+01
    -10.710  0.1176E-02  0.4000E+01
    -10.624  0.3283E-08  0.4000E+01
    -10.538  0.0000E+00  0.4000E+01
    -10.453  0.0000E+00  0.4000E+01
    -10.367  0.0000E+00  0.4000E+01
    -10.282  0.0000E+00  0.4000E+01
    -10.196  0.0000E+00  0.4000E+01
    -10.111  0.0000E+00  0.4000E+01
    -10.025  0.0000E+00  0.4000E+01
     -9.940  0.0000E+00  0.4000E+01
     -9.854  0.0000E+00  0.4000E+01
     -9.768  0.0000E+00  0.4000E+01
     -9.683  0.0000E+00  0.4000E+01
     -9.597  0.0000E+00  0.4000E+01
     -9.512  0.0000E+00  0.4000E+01
     -9.426  0.0000E+00  0.4000E+01
     -9.341  0.4045E-10  0.4000E+01
     -9.255  0.4171E-04  0.4000E+01
     -9.169  0.1604E+00  0.4014E+01
     -9.084  0.3881E+01  0.4346E+01
     -8.998  0.1797E+01  0.4500E+01
     -8.913  0.3955E+01  0.4838E+01
     -8.827  0.2713E+02  0.7159E+01
     -8.742  0.3980E+01  0.7500E+01
     -8.656  0.5571E-01  0.7504E+01
     -8.571  0.2966E+01  0.7758E+01
     -8.485  0.3680E+01  0.8073E+01
     -8.399  0.2519E+02  0.1023E+02
     -8.314  0.3746E+02  0.1343E+02
     -8.228  0.1262E+02  0.1451E+02
     -8.143  0.2659E+02  0.1679E+02
     -8.057  0.2471E+01  0.1700E+02
     -7.972  0.9183E+00  0.1708E+02
     -7.886  0.2307E+02  0.1905E+02
     -7.801  0.1138E+02  0.2003E+02
     -7.715  0.1249E+02  0.2110E+02
     -7.629  0.2750E+02  0.2345E+02
     -7.544  0.5245E+02  0.2793E+02
     -7.458  0.5213E+02  0.3240E+02
     -7.373  0.1223E+01  0.3250E+02
     -7.287  0.2325E-02  0.3250E+02
     -7.202  0.2793E+01  0.3274E+02
     -7.116  0.4674E+02  0.3674E+02
     -7.031  0.8112E+02  0.4368E+02
     -6.945  0.1381E+02  0.4486E+02
     -6.859  0.2713E+02  0.4718E+02
     -6.774  0.4573E+01  0.4757E+02
     -6.688  0.2426E+02  0.4965E+02
     -6.603  0.1969E+02  0.5133E+02
     -6.517  0.4319E+02  0.5503E+02
     -6.432  0.3438E+02  0.5797E+02
     -6.346  0.7745E+02  0.6460E+02
     -6.261  0.4992E+02  0.6887E+02
     -6.175  0.9025E+01  0.6964E+02
     -6.089  0.5364E+02  0.7423E+02
     -6.004  0.6085E+02  0.7943E+02
     -5.918  0.1022E+03  0.8818E+02
     -5.833  0.2119E+02  0.8999E+02
     -5.747  0.9657E+00  0.9007E+02
     -5.662  0.6579E+01  0.9064E+02
     -5.576  0.2964E+02  0.9317E+02
     -5.491  0.6388E+02  0.9864E+02
     -5.405  0.1550E+03  0.1119E+03
     -5.319  0.7267E+02  0.1181E+03
     -5.234  0.6012E+02  0.1233E+03
     -5.148  0.9606E+02  0.1315E+03
     -5.063  0.1097E+03  0.1409E+03
     -4.977  0.1082E+03  0.1501E+03
     -4.892  0.5710E+02  0.1550E+03
     -4.806  0.1025E+03  0.1638E+03
     -4.720  0.3117E+03  0.1904E+03
     -4.635  0.1275E+03  0.2013E+03
     -4.549  0.2534E+03  0.2230E+03
     -4.464  0.2534E+03  0.2447E+03
     -4.378  0.3243E+03  0.2725E+03
     -4.293  0.2590E+03  0.2946E+03
     -4.207  0.2748E+03  0.3181E+03
     -4.122  0.2320E+03  0.3380E+03
     -4.036  0.3721E+03  0.3698E+03
     -3.950  0.4579E+03  0.4090E+03
     -3.865  0.5414E+03  0.4553E+03
     -3.779  0.4414E+03  0.4931E+03
     -3.694  0.4637E+03  0.5327E+03
     -3.608  0.4590E+03  0.5720E+03
     -3.523  0.3787E+03  0.6044E+03
     -3.437  0.3818E+03  0.6371E+03
     -3.352  0.3323E+03  0.6655E+03
     -3.266  0.4189E+03  0.7014E+03
     -3.180  0.5669E+03  0.7499E+03
     -3.095  0.4321E+03  0.7868E+03
     -3.009  0.3630E+03  0.8179E+03
     -2.924  0.6119E+03  0.8702E+03
     -2.838  0.5307E+03  0.9156E+03
     -2.753  0.4819E+03  0.9569E+03
     -2.667  0.5595E+03  0.1005E+04
     -2.582  0.5823E+03  0.1055E+04
     -2.496  0.6880E+03  0.1113E+04
     -2.410  0.7585E+03  0.1178E+04
     -2.325  0.8614E+03  0.1252E+04
     -2.239  0.9175E+03  0.1331E+04
     -2.154  0.7736E+03  0.1397E+04
     -2.068  0.8991E+03  0.1474E+04
     -1.983  0.8207E+03  0.1544E+04
     -1.897  0.5519E+03  0.1591E+04
     -1.812  0.6126E+03  0.1643E+04
     -1.726  0.5719E+03  0.1692E+04
     -1.640  0.5138E+03  0.1736E+04
     -1.555  0.5805E+03  0.1786E+04
     -1.469  0.7960E+03  0.1854E+04
     -1.384  0.7904E+03  0.1922E+04
     -1.298  0.5236E+03  0.1967E+04
     -1.213  0.5142E+03  0.2011E+04
     -1.127  0.8041E+03  0.2079E+04
     -1.042  0.7600E+03  0.2144E+04
     -0.956  0.8924E+03  0.2221E+04
     -0.870  0.6105E+03  0.2273E+04
     -0.785  0.7426E+03  0.2337E+04
     -0.699  0.1046E+04  0.2426E+04
     -0.614  0.1247E+04  0.2533E+04
     -0.528  0.8325E+03  0.2604E+04
     -0.443  0.4645E+03  0.2644E+04
     -0.357  0.2300E+03  0.2663E+04
     -0.271  0.1208E+03  0.2674E+04
     -0.186  0.1374E+03  0.2685E+04
     -0.100  0.1624E+03  0.2699E+04
     -0.015  0.1576E+03  0.2713E+04
      0.071  0.6158E+02  0.2718E+04
      0.156  0.8094E+02  0.2725E+04
      0.242  0.4060E+02  0.2728E+04
      0.327  0.2540E+02  0.2731E+04
      0.413  0.1477E+03  0.2743E+04
      0.499  0.7114E+02  0.2749E+04
      0.584  0.1076E+03  0.2759E+04
      0.670  0.7628E+02  0.2765E+04
      0.755  0.7111E+02  0.2771E+04
      0.841  0.1219E+03  0.2782E+04
      0.926  0.1378E+03  0.2793E+04
      1.012  0.9872E+02  0.2802E+04
      1.097  0.1385E+02  0.2803E+04
      1.183  0.2818E+02  0.2805E+04
      1.269  0.1235E+03  0.2816E+04
      1.354  0.8250E+02  0.2823E+04
      1.440  0.3031E+02  0.2826E+04
      1.525  0.5327E+02  0.2830E+04
      1.611  0.1108E+03  0.2840E+04
      1.696  0.9286E+02  0.2848E+04
      1.782  0.8022E+02  0.2854E+04
      1.867  0.7843E+02  0.2861E+04
      1.953  0.1100E+03  0.2871E+04
      2.039  0.3892E+02  0.2874E+04
      2.124  0.5524E+02  0.2879E+04
      2.210  0.1044E+03  0.2888E+04
      2.295  0.1116E+03  0.2897E+04
      2.381  0.9038E+02  0.2905E+04
      2.466  0.1492E+02  0.2906E+04
      2.552  0.5863E+02  0.2911E+04
      2.637  0.6595E+02  0.2917E+04
      2.723  0.8204E+01  0.2918E+04
      2.809  0.1362E+02  0.2919E+04
      2.894  0.6285E+02  0.2924E+04
      2.980  0.1034E+03  0.2933E+04
      3.065  0.2284E+03  0.2952E+04
      3.151  0.1328E+03  0.2964E+04
      3.236  0.2630E+02  0.2966E+04
      3.322  0.2657E+02  0.2968E+04
      3.407  0.3351E+02  0.2971E+04
      3.493  0.1279E+03  0.2982E+04
      3.579  0.1675E+02  0.2984E+04
      3.664  0.5111E+02  0.2988E+04
      3.750  0.8165E+02  0.2995E+04
      3.835  0.8139E+01  0.2996E+04
      3.921  0.2712E+02  0.2998E+04
      4.006  0.1244E+02  0.2999E+04
      4.092  0.2775E+02  0.3001E+04
      4.178  0.9546E+02  0.3010E+04
      4.263  0.2885E+02  0.3012E+04
      4.349  0.4982E+02  0.3016E+04
      4.434  0.1019E+03  0.3025E+04
      4.520  0.6303E+02  0.3030E+04
      4.605  0.3400E+02  0.3033E+04
      4.691  0.3063E+02  0.3036E+04
      4.776  0.9688E+00  0.3036E+04
      4.862  0.4526E-03  0.3036E+04
      4.948  0.1035E-08  0.3036E+04
      5.033  0.0000E+00  0.3036E+04
      5.119  0.0000E+00  0.3036E+04
      5.204  0.0000E+00  0.3036E+04
      5.290  0.0000E+00  0.3036E+04
      5.375  0.0000E+00  0.3036E+04
      5.461  0.0000E+00  0.3036E+04
      5.546  0.0000E+00  0.3036E+04
      5.632  0.0000E+00  0.3036E+04
      5.718  0.0000E+00  0.3036E+04
      5.803  0.0000E+00  0.3036E+04
