  254  254    1    1
  0.2268316E+02  0.1514622E-08  0.1514622E-08  0.2900000E-08  0.5000000E-15
  1.000000000000000E-004
  CAR 
 NiAl                                    
   2530      4   1518
 
  0.0000000E+00  0.0000000E+00  0.0000000E+00  0.2500000E+00
    1      -18.697374   1.000000
    2      -10.932475   1.000000
    3       -9.101618   1.000000
    4       -8.572025   1.000000
    5       -8.195056   1.000000
    6       -8.194946   1.000000
    7       -8.194821   1.000000
    8       -8.194791   1.000000
    9       -8.194767   1.000000
   10       -8.194659   1.000000
   11       -7.745321   1.000000
   12       -7.689210   1.000000
   13       -7.689080   1.000000
   14       -7.689009   1.000000
   15       -7.688948   1.000000
   16       -7.688886   1.000000
   17       -7.688851   1.000000
   18       -6.903664   1.000000
   19       -6.903557   1.000000
   20       -6.903498   1.000000
   21       -6.903478   1.000000
   22       -6.903401   1.000000
   23       -6.903352   1.000000
   24       -6.720608   1.000000
   25       -6.559381   1.000000
   26       -6.559375   1.000000
   27       -6.559286   1.000000
   28       -6.559269   1.000000
   29       -6.559180   1.000000
   30       -6.559161   1.000000
   31       -6.139071   1.000000
   32       -6.139032   1.000000
   33       -6.138967   1.000000
   34       -6.138927   1.000000
   35       -6.138839   1.000000
   36       -6.138813   1.000000
   37       -5.938228   1.000000
   38       -5.938206   1.000000
   39       -5.938184   1.000000
   40       -5.938176   1.000000
   41       -5.938162   1.000000
   42       -5.938119   1.000000
   43       -5.937833   1.000000
   44       -5.937741   1.000000
   45       -5.937672   1.000000
   46       -5.937623   1.000000
   47       -5.937584   1.000000
   48       -5.937538   1.000000
   49       -5.710189   1.000000
   50       -5.606625   1.000000
   51       -5.606599   1.000000
   52       -5.606584   1.000000
   53       -5.606563   1.000000
   54       -5.606542   1.000000
   55       -5.606518   1.000000
   56       -5.511964   1.000000
   57       -5.511933   1.000000
   58       -5.511860   1.000000
   59       -5.511837   1.000000
   60       -5.511756   1.000000
   61       -5.511720   1.000000
   62       -5.158973   1.000000
   63       -5.158953   1.000000
   64       -5.158947   1.000000
   65       -5.158921   1.000000
   66       -5.158892   1.000000
   67       -5.158878   1.000000
   68       -5.075852   1.000000
   69       -5.001767   1.000000
   70       -5.001682   1.000000
   71       -5.001607   1.000000
   72       -5.001591   1.000000
   73       -5.001504   1.000000
   74       -5.001455   1.000000
   75       -4.933640   1.000000
   76       -4.903976   1.000000
   77       -4.829287   1.000000
   78       -4.829279   1.000000
   79       -4.829217   1.000000
   80       -4.789828   1.000000
   81       -4.789789   1.000000
   82       -4.789733   1.000000
   83       -4.789687   1.000000
   84       -4.789608   1.000000
   85       -4.789593   1.000000
   86       -4.706240   1.000000
   87       -4.706202   1.000000
   88       -4.706186   1.000000
   89       -4.706144   1.000000
   90       -4.706116   1.000000
   91       -4.706106   1.000000
   92       -4.688351   1.000000
   93       -4.688343   1.000000
   94       -4.688253   1.000000
   95       -4.595647   1.000000
   96       -4.595527   1.000000
   97       -4.595487   1.000000
   98       -4.595432   1.000000
   99       -4.595364   1.000000
  100       -4.595353   1.000000
  101       -4.595301   1.000000
  102       -4.595265   1.000000
  103       -4.595226   1.000000
  104       -4.595189   1.000000
  105       -4.595165   1.000000
  106       -4.595129   1.000000
  107       -4.553174   1.000000
  108       -4.553169   1.000000
  109       -4.553099   1.000000
  110       -4.482817   1.000000
  111       -4.482791   1.000000
  112       -4.482712   1.000000
  113       -4.481276   1.000000
  114       -4.478705   1.000000
  115       -4.447969   1.000000
  116       -4.447676   1.000000
  117       -4.447618   1.000000
  118       -4.447511   1.000000
  119       -4.447482   1.000000
  120       -4.447381   1.000000
  121       -4.391929   1.000000
  122       -4.391822   1.000000
  123       -4.391783   1.000000
  124       -4.391744   1.000000
  125       -4.391728   1.000000
  126       -4.391722   1.000000
  127       -4.391684   1.000000
  128       -4.391654   1.000000
  129       -4.391572   1.000000
  130       -4.391562   1.000000
  131       -4.391531   1.000000
  132       -4.391523   1.000000
  133       -4.381167   1.000000
  134       -4.381154   1.000000
  135       -4.381067   1.000000
  136       -4.381032   1.000000
  137       -4.381018   1.000000
  138       -4.380971   1.000000
  139       -4.380931   1.000000
  140       -4.380894   1.000000
  141       -4.380846   1.000000
  142       -4.380836   1.000000
  143       -4.380747   1.000000
  144       -4.380696   1.000000
  145       -4.334856   1.000000
  146       -4.334705   1.000000
  147       -4.334587   1.000000
  148       -4.334561   1.000000
  149       -4.334397   1.000000
  150       -4.334352   1.000000
  151       -4.298558   1.000000
  152       -4.298514   1.000000
  153       -4.298439   1.000000
  154       -4.298381   1.000000
  155       -4.298379   1.000000
  156       -4.298316   1.000000
  157       -4.277631   1.000000
  158       -4.277618   1.000000
  159       -4.277507   1.000000
  160       -4.239854   1.000000
  161       -4.239748   1.000000
  162       -4.239697   1.000000
  163       -4.239680   1.000000
  164       -4.239628   1.000000
  165       -4.239610   1.000000
  166       -4.239601   1.000000
  167       -4.239571   1.000000
  168       -4.239531   1.000000
  169       -4.239470   1.000000
  170       -4.239437   1.000000
  171       -4.239388   1.000000
  172       -4.177248   1.000000
  173       -4.177242   1.000000
  174       -4.177065   1.000000
  175       -4.148363   1.000000
  176       -4.148354   1.000000
  177       -4.148272   1.000000
  178       -4.148246   1.000000
  179       -4.148159   1.000000
  180       -4.148145   1.000000
  181       -4.069450   1.000000
  182       -4.069437   1.000000
  183       -4.069325   1.000000
  184       -4.041906   1.000000
  185       -4.041895   1.000000
  186       -4.041856   1.000000
  187       -4.041843   1.000000
  188       -4.041791   1.000000
  189       -4.041668   1.000000
  190       -4.041629   1.000000
  191       -4.041596   1.000000
  192       -4.041588   1.000000
  193       -4.041537   1.000000
  194       -4.041511   1.000000
  195       -4.041461   1.000000
  196       -4.008083   1.000000
  197       -4.008067   1.000000
  198       -4.007927   1.000000
  199       -3.944094   1.000000
  200       -3.944065   1.000000
  201       -3.943906   1.000000
  202       -3.942872   1.000000
  203       -3.942849   1.000000
  204       -3.942813   1.000000
  205       -3.942805   1.000000
  206       -3.942688   1.000000
  207       -3.942660   1.000000
  208       -3.897609   1.000000
  209       -3.897593   1.000000
  210       -3.897486   1.000000
  211       -3.897399   1.000000
  212       -3.897340   1.000000
  213       -3.897273   1.000000
  214       -3.897235   1.000000
  215       -3.897197   1.000000
  216       -3.897125   1.000000
  217       -3.897116   1.000000
  218       -3.897095   1.000000
  219       -3.897043   1.000000
  220       -3.885862   1.000000
  221       -3.885774   1.000000
  222       -3.885737   1.000000
  223       -3.885646   1.000000
  224       -3.885612   1.000000
  225       -3.885566   1.000000
  226       -3.802696   1.000000
  227       -3.802632   1.000000
  228       -3.802608   1.000000
  229       -3.802538   1.000000
  230       -3.802493   1.000000
  231       -3.802476   1.000000
  232       -3.802443   1.000000
  233       -3.802398   1.000000
  234       -3.802372   1.000000
  235       -3.802349   1.000000
  236       -3.802313   1.000000
  237       -3.802222   1.000000
  238       -3.771189   1.000000
  239       -3.771148   1.000000
  240       -3.771068   1.000000
  241       -3.770992   1.000000
  242       -3.770950   1.000000
  243       -3.770924   1.000000
  244       -3.755452   1.000000
  245       -3.755420   1.000000
  246       -3.755077   1.000000
  247       -3.755052   1.000000
  248       -3.751438   1.000000
  249       -3.751416   1.000000
  250       -3.751385   1.000000
  251       -3.751362   1.000000
  252       -3.751317   1.000000
  253       -3.751275   1.000000
  254       -3.745896   1.000000
  255       -3.745835   1.000000
  256       -3.705380   1.000000
  257       -3.705266   1.000000
  258       -3.705214   1.000000
  259       -3.705162   1.000000
  260       -3.705117   1.000000
  261       -3.705068   1.000000
  262       -3.704980   1.000000
  263       -3.704959   1.000000
  264       -3.704931   1.000000
  265       -3.704877   1.000000
  266       -3.704854   1.000000
  267       -3.704810   1.000000
  268       -3.694541   1.000000
  269       -3.694534   1.000000
  270       -3.694438   1.000000
  271       -3.645938   1.000000
  272       -3.645864   1.000000
  273       -3.645748   1.000000
  274       -3.645683   1.000000
  275       -3.645636   1.000000
  276       -3.645554   1.000000
  277       -3.638987   1.000000
  278       -3.638963   1.000000
  279       -3.638821   1.000000
  280       -3.638808   1.000000
  281       -3.619339   1.000000
  282       -3.619331   1.000000
  283       -3.603426   1.000000
  284       -3.603398   1.000000
  285       -3.603225   1.000000
  286       -3.603176   1.000000
  287       -3.603083   1.000000
  288       -3.603043   1.000000
  289       -3.592152   1.000000
  290       -3.592124   1.000000
  291       -3.592066   1.000000
  292       -3.592019   1.000000
  293       -3.587401   1.000000
  294       -3.587389   1.000000
  295       -3.521306   1.000000
  296       -3.521303   1.000000
  297       -3.520654   1.000000
  298       -3.520628   1.000000
  299       -3.515811   1.000000
  300       -3.515722   1.000000
  301       -3.515683   1.000000
  302       -3.515645   1.000000
  303       -3.515587   1.000000
  304       -3.515557   1.000000
  305       -3.515442   1.000000
  306       -3.515429   1.000000
  307       -3.515381   1.000000
  308       -3.515365   1.000000
  309       -3.515314   1.000000
  310       -3.515238   1.000000
  311       -3.469266   1.000000
  312       -3.469234   1.000000
  313       -3.469081   1.000000
  314       -3.469027   1.000000
  315       -3.468984   1.000000
  316       -3.468902   1.000000
  317       -3.433635   1.000000
  318       -3.433583   1.000000
  319       -3.433438   1.000000
  320       -3.433386   1.000000
  321       -3.433314   1.000000
  322       -3.433244   1.000000
  323       -3.429875   1.000000
  324       -3.429825   1.000000
  325       -3.429745   1.000000
  326       -3.429692   1.000000
  327       -3.429645   1.000000
  328       -3.429605   1.000000
  329       -3.429550   1.000000
  330       -3.429540   1.000000
  331       -3.429518   1.000000
  332       -3.429449   1.000000
  333       -3.429432   1.000000
  334       -3.429332   1.000000
  335       -3.413344   1.000000
  336       -3.413304   1.000000
  337       -3.413247   1.000000
  338       -3.413204   1.000000
  339       -3.413160   1.000000
  340       -3.413125   1.000000
  341       -3.318703   1.000000
  342       -3.318669   1.000000
  343       -3.318623   1.000000
  344       -3.293311   1.000000
  345       -3.293248   1.000000
  346       -3.293130   1.000000
  347       -3.293061   1.000000
  348       -3.292975   1.000000
  349       -3.292937   1.000000
  350       -3.253490   1.000000
  351       -3.253478   1.000000
  352       -3.239941   1.000000
  353       -3.239893   1.000000
  354       -3.239821   1.000000
  355       -3.239741   1.000000
  356       -3.239696   1.000000
  357       -3.239665   1.000000
  358       -3.239646   1.000000
  359       -3.239610   1.000000
  360       -3.239577   1.000000
  361       -3.239546   1.000000
  362       -3.239513   1.000000
  363       -3.239426   1.000000
  364       -3.212941   1.000000
  365       -3.212930   1.000000
  366       -3.175266   1.000000
  367       -3.175234   1.000000
  368       -3.175199   1.000000
  369       -3.175166   1.000000
  370       -3.175161   1.000000
  371       -3.175104   1.000000
  372       -3.169981   1.000000
  373       -3.169958   1.000000
  374       -3.169906   1.000000
  375       -3.169863   1.000000
  376       -3.169810   1.000000
  377       -3.169750   1.000000
  378       -3.165869   1.000000
  379       -3.165827   1.000000
  380       -3.165698   1.000000
  381       -3.165626   1.000000
  382       -3.165532   1.000000
  383       -3.165511   1.000000
  384       -3.099301   1.000000
  385       -3.099282   1.000000
  386       -3.099262   1.000000
  387       -3.099242   1.000000
  388       -3.099186   1.000000
  389       -3.099177   1.000000
  390       -3.099159   1.000000
  391       -3.099129   1.000000
  392       -3.099101   1.000000
  393       -3.099077   1.000000
  394       -3.099049   1.000000
  395       -3.099022   1.000000
  396       -3.062348   1.000000
  397       -3.062317   1.000000
  398       -3.062204   1.000000
  399       -3.062118   1.000000
  400       -3.062060   1.000000
  401       -3.062029   1.000000
  402       -2.990447   1.000000
  403       -2.990441   1.000000
  404       -2.990374   1.000000
  405       -2.990350   1.000000
  406       -2.990260   1.000000
  407       -2.990220   1.000000
  408       -2.978728   1.000000
  409       -2.978713   1.000000
  410       -2.978609   1.000000
  411       -2.978546   1.000000
  412       -2.978505   1.000000
  413       -2.978490   1.000000
  414       -2.962826   1.000000
  415       -2.962785   1.000000
  416       -2.962753   1.000000
  417       -2.962690   1.000000
  418       -2.962680   1.000000
  419       -2.962648   1.000000
  420       -2.939921   1.000000
  421       -2.939897   1.000000
  422       -2.939756   1.000000
  423       -2.939752   1.000000
  424       -2.939696   1.000000
  425       -2.939672   1.000000
  426       -2.918350   1.000000
  427       -2.918302   1.000000
  428       -2.918284   1.000000
  429       -2.918260   1.000000
  430       -2.918212   1.000000
  431       -2.918183   1.000000
  432       -2.918171   1.000000
  433       -2.918119   1.000000
  434       -2.918090   1.000000
  435       -2.918058   1.000000
  436       -2.918031   1.000000
  437       -2.917995   1.000000
  438       -2.915334   1.000000
  439       -2.915324   1.000000
  440       -2.915316   1.000000
  441       -2.915275   1.000000
  442       -2.915264   1.000000
  443       -2.915231   1.000000
  444       -2.854525   1.000000
  445       -2.854502   1.000000
  446       -2.854448   1.000000
  447       -2.851652   1.000000
  448       -2.851600   1.000000
  449       -2.851548   1.000000
  450       -2.851460   1.000000
  451       -2.851439   1.000000
  452       -2.851389   1.000000
  453       -2.845467   1.000000
  454       -2.845421   1.000000
  455       -2.845407   1.000000
  456       -2.845344   1.000000
  457       -2.845302   1.000000
  458       -2.845264   1.000000
  459       -2.845199   1.000000
  460       -2.845181   1.000000
  461       -2.845153   1.000000
  462       -2.845126   1.000000
  463       -2.845089   1.000000
  464       -2.845056   1.000000
  465       -2.793529   1.000000
  466       -2.793478   1.000000
  467       -2.793457   1.000000
  468       -2.793398   1.000000
  469       -2.760979   1.000000
  470       -2.760967   1.000000
  471       -2.760900   1.000000
  472       -2.760876   1.000000
  473       -2.760836   1.000000
  474       -2.760691   1.000000
  475       -2.757899   1.000000
  476       -2.757834   1.000000
  477       -2.757823   1.000000
  478       -2.757787   1.000000
  479       -2.757756   1.000000
  480       -2.757719   1.000000
  481       -2.752619   1.000000
  482       -2.752612   1.000000
  483       -2.752469   1.000000
  484       -2.752451   1.000000
  485       -2.752435   1.000000
  486       -2.752346   1.000000
  487       -2.737658   1.000000
  488       -2.737638   1.000000
  489       -2.737594   1.000000
  490       -2.737585   1.000000
  491       -2.737552   1.000000
  492       -2.737513   1.000000
  493       -2.737467   1.000000
  494       -2.737432   1.000000
  495       -2.737412   1.000000
  496       -2.737387   1.000000
  497       -2.737373   1.000000
  498       -2.737344   1.000000
  499       -2.731279   1.000000
  500       -2.731275   1.000000
  501       -2.701234   1.000000
  502       -2.701169   1.000000
  503       -2.701084   1.000000
  504       -2.701018   1.000000
  505       -2.700907   1.000000
  506       -2.700892   1.000000
  507       -2.667422   1.000000
  508       -2.667400   1.000000
  509       -2.667369   1.000000
  510       -2.667359   1.000000
  511       -2.667343   1.000000
  512       -2.667317   1.000000
  513       -2.663724   1.000000
  514       -2.633541   1.000000
  515       -2.633520   1.000000
  516       -2.633174   1.000000
  517       -2.633170   1.000000
  518       -2.627306   1.000000
  519       -2.627279   1.000000
  520       -2.627152   1.000000
  521       -2.627090   1.000000
  522       -2.627034   1.000000
  523       -2.626990   1.000000
  524       -2.622163   1.000000
  525       -2.575661   1.000000
  526       -2.575628   1.000000
  527       -2.575616   1.000000
  528       -2.575598   1.000000
  529       -2.575579   1.000000
  530       -2.575549   1.000000
  531       -2.575540   1.000000
  532       -2.575516   1.000000
  533       -2.575470   1.000000
  534       -2.575440   1.000000
  535       -2.575427   1.000000
  536       -2.575378   1.000000
  537       -2.563956   1.000000
  538       -2.563928   1.000000
  539       -2.563807   1.000000
  540       -2.563759   1.000000
  541       -2.563707   1.000000
  542       -2.563640   1.000000
  543       -2.562774   1.000000
  544       -2.562773   1.000000
  545       -2.562632   1.000000
  546       -2.538239   1.000000
  547       -2.538191   1.000000
  548       -2.538167   1.000000
  549       -2.527307   1.000000
  550       -2.527247   1.000000
  551       -2.527220   1.000000
  552       -2.527138   1.000000
  553       -2.527112   1.000000
  554       -2.527031   1.000000
  555       -2.509081   1.000000
  556       -2.509031   1.000000
  557       -2.509003   1.000000
  558       -2.508962   1.000000
  559       -2.508949   1.000000
  560       -2.508938   1.000000
  561       -2.498346   1.000000
  562       -2.498335   1.000000
  563       -2.498296   1.000000
  564       -2.498266   1.000000
  565       -2.498243   1.000000
  566       -2.498240   1.000000
  567       -2.498204   1.000000
  568       -2.498174   1.000000
  569       -2.498137   1.000000
  570       -2.498132   1.000000
  571       -2.498081   1.000000
  572       -2.498035   1.000000
  573       -2.494422   1.000000
  574       -2.494201   1.000000
  575       -2.473824   1.000000
  576       -2.473676   1.000000
  577       -2.452181   1.000000
  578       -2.452122   1.000000
  579       -2.452101   1.000000
  580       -2.452089   1.000000
  581       -2.452028   1.000000
  582       -2.452000   1.000000
  583       -2.451829   1.000000
  584       -2.451773   1.000000
  585       -2.451743   1.000000
  586       -2.451663   1.000000
  587       -2.451599   1.000000
  588       -2.451494   1.000000
  589       -2.427116   1.000000
  590       -2.427074   1.000000
  591       -2.427058   1.000000
  592       -2.427039   1.000000
  593       -2.427001   1.000000
  594       -2.426966   1.000000
  595       -2.422652   1.000000
  596       -2.409449   1.000000
  597       -2.409443   1.000000
  598       -2.409265   1.000000
  599       -2.407936   1.000000
  600       -2.407916   1.000000
  601       -2.407876   1.000000
  602       -2.407814   1.000000
  603       -2.407770   1.000000
  604       -2.407712   1.000000
  605       -2.403470   1.000000
  606       -2.403450   1.000000
  607       -2.403420   1.000000
  608       -2.403380   1.000000
  609       -2.403291   1.000000
  610       -2.403288   1.000000
  611       -2.397334   1.000000
  612       -2.397115   1.000000
  613       -2.338735   1.000000
  614       -2.338587   1.000000
  615       -2.338531   1.000000
  616       -2.338515   1.000000
  617       -2.338382   1.000000
  618       -2.338269   1.000000
  619       -2.337488   1.000000
  620       -2.331604   1.000000
  621       -2.331441   1.000000
  622       -2.330468   1.000000
  623       -2.330460   1.000000
  624       -2.330398   1.000000
  625       -2.305838   1.000000
  626       -2.305797   1.000000
  627       -2.305763   1.000000
  628       -2.305715   1.000000
  629       -2.305658   1.000000
  630       -2.305586   1.000000
  631       -2.304242   1.000000
  632       -2.304231   1.000000
  633       -2.304081   1.000000
  634       -2.303999   1.000000
  635       -2.303979   1.000000
  636       -2.303776   1.000000
  637       -2.283961   1.000000
  638       -2.283921   1.000000
  639       -2.283909   1.000000
  640       -2.279665   1.000000
  641       -2.279610   1.000000
  642       -2.279578   1.000000
  643       -2.270625   1.000000
  644       -2.270411   1.000000
  645       -2.249291   1.000000
  646       -2.249271   1.000000
  647       -2.249235   1.000000
  648       -2.249214   1.000000
  649       -2.249167   1.000000
  650       -2.249117   1.000000
  651       -2.249113   1.000000
  652       -2.249083   1.000000
  653       -2.249043   1.000000
  654       -2.249023   1.000000
  655       -2.249022   1.000000
  656       -2.248938   1.000000
  657       -2.238310   1.000000
  658       -2.238269   1.000000
  659       -2.238157   1.000000
  660       -2.238116   1.000000
  661       -2.238109   1.000000
  662       -2.238035   1.000000
  663       -2.235914   1.000000
  664       -2.235877   1.000000
  665       -2.235815   1.000000
  666       -2.235799   1.000000
  667       -2.235693   1.000000
  668       -2.235614   1.000000
  669       -2.231241   1.000000
  670       -2.231232   1.000000
  671       -2.230077   1.000000
  672       -2.230074   1.000000
  673       -2.195948   1.000000
  674       -2.195877   1.000000
  675       -2.195818   1.000000
  676       -2.195771   1.000000
  677       -2.195727   1.000000
  678       -2.195654   1.000000
  679       -2.185784   1.000000
  680       -2.185757   1.000000
  681       -2.185690   1.000000
  682       -2.185680   1.000000
  683       -2.185601   1.000000
  684       -2.185545   1.000000
  685       -2.171672   1.000000
  686       -2.142068   1.000000
  687       -2.142047   1.000000
  688       -2.142008   1.000000
  689       -2.141950   1.000000
  690       -2.141915   1.000000
  691       -2.141862   1.000000
  692       -2.141813   1.000000
  693       -2.141775   1.000000
  694       -2.141731   1.000000
  695       -2.141707   1.000000
  696       -2.141667   1.000000
  697       -2.141559   1.000000
  698       -2.140179   1.000000
  699       -2.139985   1.000000
  700       -2.133122   1.000000
  701       -2.133048   1.000000
  702       -2.133020   1.000000
  703       -2.132972   1.000000
  704       -2.132882   1.000000
  705       -2.132795   1.000000
  706       -2.131913   1.000000
  707       -2.131713   1.000000
  708       -2.131214   1.000000
  709       -2.131112   1.000000
  710       -2.130970   1.000000
  711       -2.130919   1.000000
  712       -2.130868   1.000000
  713       -2.130729   1.000000
  714       -2.129877   1.000000
  715       -2.129861   1.000000
  716       -2.128204   1.000000
  717       -2.128201   1.000000
  718       -2.112436   1.000000
  719       -2.112279   1.000000
  720       -2.112255   1.000000
  721       -2.112207   1.000000
  722       -2.112054   1.000000
  723       -2.111993   1.000000
  724       -2.055336   1.000000
  725       -2.055295   1.000000
  726       -2.055263   1.000000
  727       -2.055240   1.000000
  728       -2.055218   1.000000
  729       -2.055205   1.000000
  730       -2.051468   1.000000
  731       -2.051416   1.000000
  732       -2.051405   1.000000
  733       -2.051372   1.000000
  734       -2.051307   1.000000
  735       -2.051265   1.000000
  736       -2.051225   1.000000
  737       -2.051199   1.000000
  738       -2.051157   1.000000
  739       -2.051101   1.000000
  740       -2.051076   1.000000
  741       -2.051050   1.000000
  742       -2.016321   1.000000
  743       -2.016214   1.000000
  744       -2.016119   1.000000
  745       -2.016020   1.000000
  746       -2.015947   1.000000
  747       -2.015881   1.000000
  748       -2.009785   1.000000
  749       -2.009708   1.000000
  750       -2.009603   1.000000
  751       -2.009577   1.000000
  752       -2.009532   1.000000
  753       -2.009510   1.000000
  754       -1.959012   1.000000
  755       -1.958977   1.000000
  756       -1.958873   1.000000
  757       -1.958867   1.000000
  758       -1.958823   1.000000
  759       -1.958740   1.000000
  760       -1.952653   1.000000
  761       -1.952625   1.000000
  762       -1.952592   1.000000
  763       -1.952581   1.000000
  764       -1.952527   1.000000
  765       -1.952502   1.000000
  766       -1.952476   1.000000
  767       -1.952459   1.000000
  768       -1.952383   1.000000
  769       -1.952372   1.000000
  770       -1.952349   1.000000
  771       -1.952337   1.000000
  772       -1.951557   1.000000
  773       -1.951523   1.000000
  774       -1.951402   1.000000
  775       -1.951359   1.000000
  776       -1.951310   1.000000
  777       -1.951267   1.000000
  778       -1.921685   1.000000
  779       -1.921638   1.000000
  780       -1.921628   1.000000
  781       -1.914327   1.000000
  782       -1.914225   1.000000
  783       -1.914140   1.000000
  784       -1.914078   1.000000
  785       -1.913979   1.000000
  786       -1.913875   1.000000
  787       -1.893646   1.000000
  788       -1.893607   1.000000
  789       -1.893517   1.000000
  790       -1.893407   1.000000
  791       -1.893363   1.000000
  792       -1.893288   1.000000
  793       -1.869980   1.000000
  794       -1.869931   1.000000
  795       -1.869900   1.000000
  796       -1.869851   1.000000
  797       -1.869768   1.000000
  798       -1.869716   1.000000
  799       -1.859526   1.000000
  800       -1.859485   1.000000
  801       -1.859464   1.000000
  802       -1.859417   1.000000
  803       -1.859396   1.000000
  804       -1.859334   1.000000
  805       -1.832319   1.000000
  806       -1.832254   1.000000
  807       -1.832177   1.000000
  808       -1.832161   1.000000
  809       -1.832081   1.000000
  810       -1.832038   1.000000
  811       -1.832023   1.000000
  812       -1.832000   1.000000
  813       -1.831982   1.000000
  814       -1.831911   1.000000
  815       -1.831823   1.000000
  816       -1.831794   1.000000
  817       -1.791584   1.000000
  818       -1.791521   1.000000
  819       -1.791494   1.000000
  820       -1.791460   1.000000
  821       -1.791410   1.000000
  822       -1.791396   1.000000
  823       -1.791357   1.000000
  824       -1.791316   1.000000
  825       -1.791299   1.000000
  826       -1.791233   1.000000
  827       -1.791201   1.000000
  828       -1.791148   1.000000
  829       -1.785477   1.000000
  830       -1.785427   1.000000
  831       -1.785401   1.000000
  832       -1.785212   1.000000
  833       -1.785176   1.000000
  834       -1.785001   1.000000
  835       -1.782851   1.000000
  836       -1.782812   1.000000
  837       -1.782765   1.000000
  838       -1.782699   1.000000
  839       -1.782693   1.000000
  840       -1.782629   1.000000
  841       -1.777358   1.000000
  842       -1.777297   1.000000
  843       -1.777222   1.000000
  844       -1.777122   1.000000
  845       -1.777094   1.000000
  846       -1.777068   1.000000
  847       -1.762071   1.000000
  848       -1.762014   1.000000
  849       -1.761989   1.000000
  850       -1.761887   1.000000
  851       -1.761846   1.000000
  852       -1.761748   1.000000
  853       -1.748680   1.000000
  854       -1.748637   1.000000
  855       -1.748617   1.000000
  856       -1.720243   1.000000
  857       -1.720228   1.000000
  858       -1.720209   1.000000
  859       -1.720173   1.000000
  860       -1.720166   1.000000
  861       -1.720156   1.000000
  862       -1.705588   1.000000
  863       -1.705535   1.000000
  864       -1.705494   1.000000
  865       -1.704075   1.000000
  866       -1.704026   1.000000
  867       -1.703990   1.000000
  868       -1.703904   1.000000
  869       -1.703840   1.000000
  870       -1.703799   1.000000
  871       -1.655212   1.000000
  872       -1.655170   1.000000
  873       -1.655124   1.000000
  874       -1.655099   1.000000
  875       -1.655083   1.000000
  876       -1.655069   1.000000
  877       -1.655054   1.000000
  878       -1.655040   1.000000
  879       -1.655026   1.000000
  880       -1.655001   1.000000
  881       -1.654948   1.000000
  882       -1.654910   1.000000
  883       -1.639229   1.000000
  884       -1.639147   1.000000
  885       -1.639117   1.000000
  886       -1.638918   1.000000
  887       -1.638860   1.000000
  888       -1.638674   1.000000
  889       -1.608747   1.000000
  890       -1.606713   1.000000
  891       -1.606666   1.000000
  892       -1.606541   1.000000
  893       -1.606498   1.000000
  894       -1.606475   1.000000
  895       -1.606352   1.000000
  896       -1.537452   1.000000
  897       -1.537408   1.000000
  898       -1.537391   1.000000
  899       -1.537347   1.000000
  900       -1.537337   1.000000
  901       -1.537281   1.000000