 vasp.5.4.4.18Apr17-6-g9f103f2a35 (build May 02 2017 15:33:50) complex          
  
 executed on Intel-16.0.3.210-OMP date 2018.08.09  01:37:31
 running on    6 total cores
 distrk:  each k-point on    6 cores,    1 groups
 distr:  one band on NCORES_PER_BAND=   1 cores,    6 groups


--------------------------------------------------------------------------------------------------------


 INCAR:
 POTCAR:    PAW Ni_GW 31Mar2010                   
 POTCAR:    PAW_PBE N 08Apr2002                   

 ----------------------------------------------------------------------------- 
|                                                                             |
|           W    W    AA    RRRRR   N    N  II  N    N   GGGG   !!!           |
|           W    W   A  A   R    R  NN   N  II  NN   N  G    G  !!!           |
|           W    W  A    A  R    R  N N  N  II  N N  N  G       !!!           |
|           W WW W  AAAAAA  RRRRR   N  N N  II  N  N N  G  GGG   !            |
|           WW  WW  A    A  R   R   N   NN  II  N   NN  G    G                |
|           W    W  A    A  R    R  N    N  II  N    N   GGGG   !!!           |
|                                                                             |
|      For optimal performance we recommend to set                            |
|        NCORE= 4 - approx SQRT( number of cores)                             |
|      NCORE specifies how many cores store one orbital (NPAR=cpu/NCORE).     |
|      This setting can  greatly improve the performance of VASP for DFT.     |
|      The default,   NCORE=1            might be grossly inefficient         |
|      on modern multi-core architectures or massively parallel machines.     |
|      Do your own testing !!!!                                               |
|      Unfortunately you need to use the default for GW and RPA calculations. |
|      (for HF NCORE is supported but not extensively tested yet)             |
|                                                                             |
 ----------------------------------------------------------------------------- 

 POTCAR:    PAW Ni_GW 31Mar2010                   
   VRHFIN =Ni:                                                                  
   LEXCH  = PE                                                                  
   EATOM  =  1077.6740 eV,   79.2068 Ry                                         
                                                                                
   TITEL  = PAW Ni_GW 31Mar2010                                                 
   LULTRA =        F    use ultrasoft PP ?                                      
   IUNSCR =        1    unscreen: 0-lin 1-nonlin 2-no                           
   RPACOR =    1.800    partial core radius                                     
   POMASS =   58.690; ZVAL   =   10.000    mass and valenz                      
   RCORE  =    2.300    outmost cutoff radius                                   
   RWIGS  =    2.430; RWIGS  =    1.286    wigner-seitz radius (au A)           
   ENMAX  =  357.323; ENMIN  =  267.992 eV                                      
   RCLOC  =    1.681    cutoff for local pot                                    
   LCOR   =        T    correct aug charges                                     
   LPAW   =        T    paw PP                                                  
   EAUG   =  802.310                                                            
   DEXC   =    0.000                                                            
   RMAX   =    2.357    core radius for proj-oper                               
   RAUG   =    1.300    factor for augmentation sphere                          
   RDEP   =    2.390    radius for radial grids                                 
   RDEPT  =    1.800    core radius for aug-charge                              
                                                                                
   Atomic configuration                                                         
    9 entries                                                                   
     n  l   j            E        occ.                                          
     1  0  0.50     -8206.4253   2.0000                                         
     2  0  0.50      -976.1748   2.0000                                         
     2  1  1.50      -839.0571   6.0000                                         
     3  0  0.50      -105.9991   2.0000                                         
     3  1  1.50       -66.4603   6.0000                                         
     3  2  2.50        -4.6458   9.0000                                         
     4  0  0.50        -4.4926   1.0000                                         
     4  1  1.50        -4.0817   0.0000                                         
     4  3  2.50        -1.3606   0.0000                                         
   Description                                                                  
     l       E           TYP  RCUT    TYP  RCUT                                 
     2     -4.6457935     23  2.000                                             
     2     -6.0063761     23  2.000                                             
     0     -4.4925599     23  2.300                                             
     0     54.4233040     23  2.300                                             
     1     -2.7211652     23  2.300                                             
     1     68.0291300     23  2.300                                             
     3     27.2116520     23  2.000                                             
  local pseudopotential read in
  partial core-charges read in
  partial kinetic energy density read in
  kinetic energy density of atom read in
  atomic valenz-charges read in
  non local Contribution for L=           2  read in
    real space projection operators read in
  non local Contribution for L=           2  read in
    real space projection operators read in
  non local Contribution for L=           0  read in
    real space projection operators read in
  non local Contribution for L=           0  read in
    real space projection operators read in
  non local Contribution for L=           1  read in
    real space projection operators read in
  non local Contribution for L=           1  read in
    real space projection operators read in
  non local Contribution for L=           3  read in
    real space projection operators read in
    PAW grid and wavefunctions read in
 
   number of l-projection  operators is LMAX  =           7
   number of lm-projection operators is LMMAX =          25
 
 POTCAR:    PAW_PBE N 08Apr2002                   
   VRHFIN =N: s2p3                                                              
   LEXCH  = PE                                                                  
   EATOM  =   264.5486 eV,   19.4438 Ry                                         
                                                                                
   TITEL  = PAW_PBE N 08Apr2002                                                 
   LULTRA =        F    use ultrasoft PP ?                                      
   IUNSCR =        1    unscreen: 0-lin 1-nonlin 2-no                           
   RPACOR =    1.200    partial core radius                                     
   POMASS =   14.001; ZVAL   =    5.000    mass and valenz                      
   RCORE  =    1.500    outmost cutoff radius                                   
   RWIGS  =    1.400; RWIGS  =    0.741    wigner-seitz radius (au A)           
   ENMAX  =  400.000; ENMIN  =  300.000 eV                                      
   ICORE  =        2    local potential                                         
   LCOR   =        T    correct aug charges                                     
   LPAW   =        T    paw PP                                                  
   EAUG   =  627.112                                                            
   DEXC   =    0.000                                                            
   RMAX   =    1.529    core radius for proj-oper                               
   RAUG   =    1.300    factor for augmentation sphere                          
   RDEP   =    1.514    radius for radial grids                                 
   RDEPT  =    1.338    core radius for aug-charge                              
                                                                                
   Atomic configuration                                                         
    4 entries                                                                   
     n  l   j            E        occ.                                          
     1  0  0.50      -384.7179   2.0000                                         
     2  0  0.50       -18.5828   2.0000                                         
     2  1  0.50        -7.0898   3.0000                                         
     3  2  1.50        -6.8029   0.0000                                         
   Description                                                                  
     l       E           TYP  RCUT    TYP  RCUT                                 
     0    -18.5828119     23  1.200                                             
     0    -13.5018863     23  1.200                                             
     1     -7.0897853     23  1.500                                             
     1      9.5240782     23  1.500                                             
     2     -6.8029130      7  1.500                                             
  local pseudopotential read in
  partial core-charges read in
  partial kinetic energy density read in
  atomic valenz-charges read in
  non local Contribution for L=           0  read in
    real space projection operators read in
  non local Contribution for L=           0  read in
    real space projection operators read in
  non local Contribution for L=           1  read in
    real space projection operators read in
  non local Contribution for L=           1  read in
    real space projection operators read in
    PAW grid and wavefunctions read in
 
   number of l-projection  operators is LMAX  =           4
   number of lm-projection operators is LMMAX =           8
 
 Optimization of the real space projectors (new method)

 maximal supplied QI-value         = 16.25
 optimisation between [QCUT,QGAM] = [  8.78, 17.71] = [ 21.57, 87.87] Ry 
 Optimized for a Real-space Cutoff    1.55 Angstroem

   l    n(q)    QCUT    max X(q) W(low)/X(q) W(high)/X(q)  e(spline) 
   2      7     8.776    90.918    0.49E-03    0.31E-03    0.19E-06
   2      7     8.776    88.873    0.50E-03    0.32E-03    0.19E-06
   0      8     8.776    17.118    0.77E-04    0.31E-04    0.38E-07
   0      8     8.776     8.062    0.82E-04    0.33E-04    0.42E-07
   1      8     8.776     4.910    0.92E-04    0.24E-03    0.96E-07
   1      8     8.776     3.344    0.63E-04    0.17E-03    0.76E-07
   3      7     8.776     5.513    0.45E-03    0.35E-03    0.68E-07
 Optimization of the real space projectors (new method)

 maximal supplied QI-value         = 25.13
 optimisation between [QCUT,QGAM] = [  8.80, 17.59] = [ 21.67, 86.68] Ry 
 Optimized for a Real-space Cutoff    2.14 Angstroem

   l    n(q)    QCUT    max X(q) W(low)/X(q) W(high)/X(q)  e(spline) 
   0     11     8.797    79.467    0.70E-04    0.19E-04    0.19E-05
   0     11     8.797    66.151    0.68E-04    0.18E-04    0.19E-05
   1     11     8.797     6.738    0.26E-03    0.11E-02    0.73E-05
   1     11     8.797     5.013    0.25E-03    0.11E-02    0.72E-05
  PAW Ni_GW 31Mar2010                   :
 energy of atom  1       EATOM=-1077.6740
 kinetic energy error for atom=    0.3911 (will be added to EATOM!!)
  PAW_PBE N 08Apr2002                   :
 energy of atom  2       EATOM= -264.5486
 kinetic energy error for atom=    0.6882 (will be added to EATOM!!)
 
 
 POSCAR: New structure                           
  positions in cartesian coordinates
  No initial velocities read in
 exchange correlation table for  LEXCH =        8
   RHO(1)=    0.500       N(1)  =     2000
   RHO(2)=  100.500       N(2)  =     4000
 


--------------------------------------------------------------------------------------------------------


 ion  position               nearest neighbor table
   1  0.444  0.444  0.104-  73 2.47 199 2.47 136 2.47 190 2.52  65 2.52 127 2.52 130 2.52  67 2.52
                           191 2.52
   2  0.444  0.778  0.104-  74 2.47 200 2.47 137 2.47 191 2.52  66 2.52 131 2.52 128 2.52 192 2.52
                            68 2.52
   3  0.444  0.111  0.104- 138 2.47  75 2.47 201 2.47  64 2.52 190 2.52 132 2.52 129 2.52 192 2.52
                            69 2.52
   4  0.778  0.444  0.104-  76 2.47 202 2.47 139 2.47 193 2.52  68 2.52 130 2.52 133 2.52  70 2.52
                           194 2.52
   5  0.778  0.778  0.104-  77 2.47 203 2.47 140 2.47 194 2.52  69 2.52 134 2.52 131 2.52 195 2.52
                            71 2.52
   6  0.778  0.111  0.104- 141 2.47  78 2.47 204 2.47  67 2.52 193 2.52 135 2.52 132 2.52 195 2.52
                            72 2.52
   7  0.111  0.444  0.104-  79 2.47 205 2.47 142 2.47 196 2.52  71 2.52 127 2.52 133 2.52  64 2.52
                           197 2.52
   8  0.111  0.778  0.104-  80 2.47 206 2.47 143 2.47 197 2.52  72 2.52 128 2.52 134 2.52 198 2.52
                            65 2.52
   9  0.111  0.111  0.104- 144 2.47  81 2.47 207 2.47  70 2.52 196 2.52 129 2.52 198 2.52 135 2.52
                            66 2.52
  10  0.556  0.556  0.173- 191 2.47  68 2.47 130 2.47  82 2.48 208 2.48 145 2.48  74 2.52 199 2.52
                           139 2.52 136 2.52 200 2.52  76 2.52
  11  0.556  0.889  0.173- 192 2.47  69 2.47 131 2.47 146 2.48  83 2.48 209 2.48  75 2.52 201 2.52
                           200 2.52 137 2.52 140 2.52  77 2.52
  12  0.556  0.222  0.173- 190 2.47 132 2.47  67 2.47  84 2.48 210 2.48 147 2.48 201 2.52  73 2.52
                           138 2.52 141 2.52 199 2.52  78 2.52
  13  0.889  0.556  0.173- 194 2.47  71 2.47 133 2.47  85 2.48 148 2.48 211 2.48  77 2.52 202 2.52
                           139 2.52 142 2.52 203 2.52  79 2.52
  14  0.889  0.889  0.173- 195 2.47  72 2.47 134 2.47 149 2.48  86 2.48 212 2.48  78 2.52 204 2.52
                           203 2.52 140 2.52 143 2.52  80 2.52
  15  0.889  0.222  0.173- 193 2.47 135 2.47  70 2.47  87 2.48 150 2.48 213 2.48 204 2.52  76 2.52
                           141 2.52 144 2.52 202 2.52  81 2.52
  16  0.222  0.556  0.173- 197 2.47  65 2.47 127 2.47  88 2.48 214 2.48 151 2.48  80 2.52 205 2.52
                           136 2.52 142 2.52 206 2.52  73 2.52
  17  0.222  0.889  0.173- 198 2.47  66 2.47 128 2.47 152 2.48  89 2.48 215 2.48  81 2.52 207 2.52
                           206 2.52 143 2.52 137 2.52  74 2.52
  18  0.222  0.222  0.173- 196 2.47 129 2.47  64 2.47  90 2.48 216 2.48 153 2.48 207 2.52  79 2.52
                           144 2.52 138 2.52 205 2.52  75 2.52
  19  0.667  0.667  0.242- 154 2.48  91 2.48 217 2.48 200 2.48  77 2.48 139 2.48  83 2.52 209 2.52
                           208 2.52 145 2.52 148 2.52  85 2.52
  20  0.667  0.000  0.242-  92 2.48 218 2.48 155 2.48 201 2.48 140 2.48  78 2.48  84 2.52 146 2.52
                           149 2.52 209 2.52 210 2.52  86 2.52
  21  0.667  0.333  0.242- 156 2.48  93 2.48 219 2.48 199 2.48  76 2.48 141 2.48 210 2.52  82 2.52
                           150 2.52 147 2.52  87 2.52 208 2.52
  22  1.000  0.667  0.242- 157 2.48  94 2.48 220 2.48 203 2.48  80 2.48 142 2.48  86 2.52 212 2.52
                           211 2.52 151 2.52 148 2.52  88 2.52
  23  0.000  0.000  0.242-  95 2.48 221 2.48 158 2.48 204 2.48 143 2.48  81 2.48  87 2.52 152 2.52
                           212 2.52 149 2.52 213 2.52  89 2.52
  24  1.000  0.333  0.242- 159 2.48  96 2.48 222 2.48 202 2.48  79 2.48 144 2.48 213 2.52  85 2.52
                           153 2.52 150 2.52  90 2.52 211 2.52
  25  0.333  0.667  0.242- 160 2.48  97 2.48 223 2.48 206 2.48  74 2.48 136 2.48  89 2.52 215 2.52
                           214 2.52 151 2.52 145 2.52  82 2.52
  26  0.333  0.000  0.242-  98 2.48 224 2.48 161 2.48 207 2.48 137 2.48  75 2.48  90 2.52 152 2.52
                           146 2.52 215 2.52 216 2.52  83 2.52
  27  0.333  0.333  0.242- 162 2.48  99 2.48 225 2.48 205 2.48  73 2.48 138 2.48 216 2.52  88 2.52
                           147 2.52 153 2.52  84 2.52 214 2.52
  28  0.778  0.778  0.312- 209 2.48 100 2.48 148 2.48  86 2.48 226 2.48 163 2.48 217 2.52  92 2.52
                           157 2.52 154 2.52 218 2.52  94 2.52
  29  0.778  0.111  0.312- 210 2.48 164 2.48 101 2.48  87 2.48 149 2.48 227 2.48  93 2.52 219 2.52
                           155 2.52 158 2.52 218 2.52  95 2.52
  30  0.778  0.444  0.312- 102 2.48 150 2.48 208 2.48 228 2.48 165 2.48  85 2.48 219 2.52  91 2.52
                           156 2.52 159 2.52  96 2.52 217 2.52
  31  0.111  0.778  0.312- 212 2.48 103 2.48 151 2.48  89 2.48 229 2.48 166 2.48 220 2.52  95 2.52
                           160 2.52 157 2.52 221 2.52  97 2.52
  32  0.111  0.111  0.312- 213 2.48 167 2.48 104 2.48  90 2.48 152 2.48 230 2.48  96 2.52 222 2.52
                           161 2.52 221 2.52 158 2.52  98 2.52
  33  0.111  0.444  0.312- 105 2.48 153 2.48 211 2.48 231 2.48 168 2.48  88 2.48 222 2.52  94 2.52
                           162 2.52 159 2.52  99 2.52 220 2.52
  34  0.444  0.778  0.312- 215 2.48 106 2.48 145 2.48  83 2.48 232 2.48 169 2.48 223 2.52  98 2.52
                           154 2.52 160 2.52 224 2.52  91 2.52
  35  0.444  0.111  0.312- 216 2.48 170 2.48 107 2.48  84 2.48 146 2.48 233 2.48  99 2.52 225 2.52
                           155 2.52 161 2.52 224 2.52  92 2.52
  36  0.444  0.444  0.312- 108 2.48 147 2.48 214 2.48 234 2.48 171 2.48  82 2.48 225 2.52  97 2.52
                           162 2.52 156 2.52  93 2.52 223 2.52
  37  0.889  0.889  0.381- 218 2.48  95 2.48 157 2.48 172 2.48 109 2.48 235 2.48 101 2.52 227 2.52
                           226 2.52 163 2.52 166 2.52 103 2.52
  38  0.889  0.222  0.381- 219 2.48 158 2.48  96 2.48 110 2.48 173 2.48 236 2.48 227 2.52 102 2.52
                           164 2.52 167 2.52 228 2.52 104 2.52
  39  0.889  0.556  0.381- 217 2.48  94 2.48 159 2.48 111 2.48 174 2.48 237 2.48 100 2.52 228 2.52
                           165 2.52 168 2.52 226 2.52 105 2.52
  40  0.222  0.889  0.381- 221 2.48  98 2.48 160 2.48 175 2.48 112 2.48 238 2.48 104 2.52 230 2.52
                           229 2.52 169 2.52 166 2.52 106 2.52
  41  0.222  0.222  0.381- 222 2.48 161 2.48  99 2.48 113 2.48 239 2.48 176 2.48 230 2.52 105 2.52
                           167 2.52 170 2.52 231 2.52 107 2.52
  42  0.222  0.556  0.381- 220 2.48  97 2.48 162 2.48 114 2.48 240 2.48 177 2.48 103 2.52 231 2.52
                           171 2.52 168 2.52 229 2.52 108 2.52
  43  0.556  0.889  0.381- 224 2.48  92 2.48 154 2.48 178 2.48 115 2.48 241 2.48 107 2.52 233 2.52
                           232 2.52 169 2.52 163 2.52 100 2.52
  44  0.556  0.222  0.381- 225 2.48 155 2.48  93 2.48 116 2.48 242 2.48 179 2.48 233 2.52 108 2.52
                           170 2.52 164 2.52 234 2.52 101 2.52
  45  0.556  0.556  0.381- 223 2.48  91 2.48 156 2.48 117 2.48 243 2.48 180 2.48 106 2.52 234 2.52
                           165 2.52 171 2.52 232 2.52 102 2.52
  46  0.000  0.000  0.450- 118 2.47 244 2.47 181 2.47 227 2.48 166 2.48 104 2.48 110 2.52 175 2.52
                           235 2.52 172 2.52 236 2.52 112 2.52
  47  1.000  0.333  0.450- 182 2.47 119 2.47 245 2.47 228 2.48 105 2.48 167 2.48 236 2.52 111 2.52
                           176 2.52 173 2.52 113 2.52 237 2.52
  48  1.000  0.667  0.450- 183 2.47 120 2.47 246 2.47 226 2.48 103 2.48 168 2.48 109 2.52 235 2.52
                           237 2.52 177 2.52 174 2.52 114 2.52
  49  0.333  0.000  0.450- 121 2.47 247 2.47 184 2.47 230 2.48 169 2.48 107 2.48 113 2.52 175 2.52
                           178 2.52 238 2.52 239 2.52 115 2.52
  50  0.333  0.333  0.450- 185 2.47 122 2.47 248 2.47 231 2.48 108 2.48 170 2.48 239 2.52 114 2.52
                           179 2.52 176 2.52 116 2.52 240 2.52
  51  0.333  0.667  0.450- 186 2.47 123 2.47 249 2.47 229 2.48 106 2.48 171 2.48 112 2.52 238 2.52
                           240 2.52 177 2.52 180 2.52 117 2.52
  52  0.667  0.000  0.450- 124 2.47 250 2.47 187 2.47 233 2.48 163 2.48 101 2.48 116 2.52 178 2.52
                           172 2.52 241 2.52 242 2.52 109 2.52
  53  0.667  0.333  0.450- 188 2.47 125 2.47 251 2.47 234 2.48 102 2.48 164 2.48 242 2.52 117 2.52
                           173 2.52 179 2.52 110 2.52 243 2.52
  54  0.667  0.667  0.450- 189 2.47 126 2.47 252 2.47 232 2.48 100 2.48 165 2.48 115 2.52 241 2.52
                           243 2.52 180 2.52 174 2.52 111 2.52
  55  0.111  0.111  0.519- 236 2.47 113 2.47 175 2.47 119 2.52 245 2.52 184 2.52 244 2.52 181 2.52
                           121 2.52
  56  0.111  0.444  0.519- 176 2.47 237 2.47 114 2.47 245 2.52 120 2.52 185 2.52 182 2.52 122 2.52
                           246 2.52
  57  0.111  0.778  0.519- 235 2.47 177 2.47 112 2.47 246 2.52 118 2.52 186 2.52 183 2.52 244 2.52
                           123 2.52
  58  0.444  0.111  0.519- 239 2.47 116 2.47 178 2.47 122 2.52 248 2.52 187 2.52 184 2.52 247 2.52
                           124 2.52
  59  0.444  0.444  0.519- 179 2.47 240 2.47 117 2.47 248 2.52 123 2.52 185 2.52 188 2.52 125 2.52
                           249 2.52
  60  0.444  0.778  0.519- 238 2.47 180 2.47 115 2.47 249 2.52 121 2.52 189 2.52 186 2.52 247 2.52
                           126 2.52
  61  0.778  0.111  0.519- 242 2.47 110 2.47 172 2.47 125 2.52 251 2.52 181 2.52 187 2.52 250 2.52
                           118 2.52
  62  0.778  0.444  0.519- 173 2.47 243 2.47 111 2.47 251 2.52 126 2.52 188 2.52 182 2.52 119 2.52
                           252 2.52
  63  0.778  0.778  0.519- 241 2.47 174 2.47 109 2.47 252 2.52 124 2.52 183 2.52 189 2.52 250 2.52
                           120 2.52
  64  0.278  0.278  0.104- 138 2.47  18 2.47 205 2.47   3 2.52 129 2.52 127 2.52 196 2.52 190 2.52
                             7 2.52
  65  0.278  0.611  0.104- 136 2.47  16 2.47 206 2.47 128 2.52   1 2.52 191 2.52 197 2.52   8 2.52
                           127 2.52
  66  0.278  0.944  0.104- 137 2.47 207 2.47  17 2.47   2 2.52 198 2.52 192 2.52 129 2.52 128 2.52
                             9 2.52
  67  0.611  0.278  0.104- 141 2.47  12 2.47 199 2.47   6 2.52 132 2.52 130 2.52 193 2.52 190 2.52
                             1 2.52
  68  0.611  0.611  0.104- 139 2.47  10 2.47 200 2.47 131 2.52   4 2.52 194 2.52 191 2.52   2 2.52
                           130 2.52
  69  0.611  0.944  0.104- 140 2.47 201 2.47  11 2.47   5 2.52 192 2.52 195 2.52 132 2.52 131 2.52
                             3 2.52
  70  0.944  0.278  0.104- 144 2.47  15 2.47 202 2.47   9 2.52 135 2.52 133 2.52 193 2.52 196 2.52
                             4 2.52
  71  0.944  0.611  0.104- 142 2.47  13 2.47 203 2.47 134 2.52   7 2.52 194 2.52 197 2.52   5 2.52
                           133 2.52
  72  0.944  0.944  0.104- 143 2.47 204 2.47  14 2.47   8 2.52 195 2.52 135 2.52 198 2.52 134 2.52
                             6 2.52
  73  0.389  0.389  0.173-   1 2.47 127 2.47 190 2.47 147 2.48  27 2.48 214 2.48  12 2.52 136 2.52
                           199 2.52 205 2.52 138 2.52  16 2.52
  74  0.389  0.722  0.173-   2 2.47 128 2.47 191 2.47 145 2.48 215 2.48  25 2.48 137 2.52  10 2.52
                           206 2.52 200 2.52 136 2.52  17 2.52
  75  0.389  0.056  0.173- 192 2.47   3 2.47 129 2.47 146 2.48  26 2.48 216 2.48  11 2.52 137 2.52
                           138 2.52 207 2.52 201 2.52  18 2.52
  76  0.722  0.389  0.173-   4 2.47 130 2.47 193 2.47 150 2.48  21 2.48 208 2.48  15 2.52 139 2.52
                           202 2.52 199 2.52 141 2.52  10 2.52
  77  0.722  0.722  0.173-   5 2.47 131 2.47 194 2.47 148 2.48 209 2.48  19 2.48 140 2.52  13 2.52
                           203 2.52 200 2.52 139 2.52  11 2.52
  78  0.722  0.056  0.173- 195 2.47   6 2.47 132 2.47 149 2.48  20 2.48 210 2.48  14 2.52 140 2.52
                           141 2.52 204 2.52 201 2.52  12 2.52
  79  0.056  0.389  0.173-   7 2.47 196 2.47 133 2.47 153 2.48  24 2.48 211 2.48  18 2.52 142 2.52
                           205 2.52 202 2.52 144 2.52  13 2.52
  80  0.056  0.722  0.173-   8 2.47 197 2.47 134 2.47 151 2.48 212 2.48  22 2.48 143 2.52  16 2.52
                           206 2.52 203 2.52 142 2.52  14 2.52
  81  0.056  0.056  0.173- 198 2.47   9 2.47 135 2.47 152 2.48  23 2.48 213 2.48  17 2.52 143 2.52
                           144 2.52 207 2.52 204 2.52  15 2.52
  82  0.500  0.500  0.242- 223 2.48 156 2.48  36 2.48  10 2.48 136 2.48 199 2.48 145 2.52  21 2.52
                           214 2.52 208 2.52  25 2.52 147 2.52
  83  0.500  0.833  0.242- 154 2.48  34 2.48 224 2.48 200 2.48  11 2.48 137 2.48  19 2.52 145 2.52
                           215 2.52 209 2.52 146 2.52  26 2.52
  84  0.500  0.167  0.242- 155 2.48 225 2.48  35 2.48  12 2.48 138 2.48 201 2.48 147 2.52  20 2.52
                           216 2.52 210 2.52 146 2.52  27 2.52
  85  0.833  0.500  0.242- 217 2.48 159 2.48  30 2.48  13 2.48 139 2.48 202 2.48 148 2.52  24 2.52
                           208 2.52 211 2.52  19 2.52 150 2.52
  86  0.833  0.833  0.242- 157 2.48  28 2.48 218 2.48 203 2.48  14 2.48 140 2.48  22 2.52 148 2.52
                           209 2.52 149 2.52 212 2.52  20 2.52
  87  0.833  0.167  0.242- 158 2.48 219 2.48  29 2.48  15 2.48 141 2.48 204 2.48 150 2.52  23 2.52
                           210 2.52 213 2.52 149 2.52  21 2.52
  88  0.167  0.500  0.242- 220 2.48 162 2.48  33 2.48  16 2.48 142 2.48 205 2.48 151 2.52  27 2.52
                           211 2.52 214 2.52  22 2.52 153 2.52
  89  0.167  0.833  0.242- 160 2.48  31 2.48 221 2.48 206 2.48  17 2.48 143 2.48  25 2.52 151 2.52
                           215 2.52 212 2.52 152 2.52  23 2.52
  90  0.167  0.167  0.242- 161 2.48 222 2.48  32 2.48  18 2.48 144 2.48 207 2.48 153 2.52  26 2.52
                           216 2.52 213 2.52 152 2.52  24 2.52
  91  0.611  0.611  0.312- 165 2.48 208 2.48  19 2.48  45 2.48 232 2.48 145 2.48 154 2.52  30 2.52
                           223 2.52 217 2.52  34 2.52 156 2.52
  92  0.611  0.944  0.312- 163 2.48  20 2.48 233 2.48  43 2.48 146 2.48 209 2.48  28 2.52 224 2.52
                           218 2.52 155 2.52 154 2.52  35 2.52
  93  0.611  0.278  0.312- 164 2.48 210 2.48  21 2.48  44 2.48 234 2.48 147 2.48  29 2.52 155 2.52
                           156 2.52 219 2.52 225 2.52  36 2.52
  94  0.944  0.611  0.312- 211 2.48 168 2.48  22 2.48  39 2.48 226 2.48 148 2.48 157 2.52  33 2.52
                           217 2.52 220 2.52  28 2.52 159 2.52
  95  0.944  0.944  0.312- 166 2.48 227 2.48  23 2.48  37 2.48 149 2.48 212 2.48  31 2.52 218 2.52
                           158 2.52 221 2.52 157 2.52  29 2.52
  96  0.944  0.278  0.312- 213 2.48 167 2.48  24 2.48  38 2.48 228 2.48 150 2.48  32 2.52 158 2.52
                           159 2.52 219 2.52 222 2.52  30 2.52
  97  0.278  0.611  0.312- 171 2.48 214 2.48  25 2.48  42 2.48 229 2.48 151 2.48 160 2.52  36 2.52
                           223 2.52 220 2.52  31 2.52 162 2.52
  98  0.278  0.944  0.312- 169 2.48  26 2.48 230 2.48  40 2.48 152 2.48 215 2.48  34 2.52 221 2.52
                           224 2.52 161 2.52 160 2.52  32 2.52
  99  0.278  0.278  0.312- 170 2.48 216 2.48  27 2.48  41 2.48 231 2.48 153 2.48  35 2.52 161 2.52
                           162 2.52 222 2.52 225 2.52  33 2.52
 100  0.722  0.722  0.381-  28 2.48 154 2.48 217 2.48 174 2.48 241 2.48  54 2.48 163 2.52  39 2.52
                           226 2.52 232 2.52 165 2.52  43 2.52
 101  0.722  0.056  0.381- 218 2.48  29 2.48 155 2.48 172 2.48  52 2.48 242 2.48  37 2.52 163 2.52
                           164 2.52 227 2.52 233 2.52  44 2.52
 102  0.722  0.389  0.381-  30 2.48 156 2.48 219 2.48 173 2.48  53 2.48 243 2.48  38 2.52 165 2.52
                           234 2.52 228 2.52 164 2.52  45 2.52
 103  0.056  0.722  0.381-  31 2.48 220 2.48 157 2.48 177 2.48 235 2.48  48 2.48 166 2.52  42 2.52
                           229 2.52 226 2.52 168 2.52  37 2.52
 104  0.056  0.056  0.381- 221 2.48  32 2.48 158 2.48 175 2.48  46 2.48 236 2.48  40 2.52 166 2.52
                           167 2.52 230 2.52 227 2.52  38 2.52
 105  0.056  0.389  0.381-  33 2.48 222 2.48 159 2.48 176 2.48  47 2.48 237 2.48  41 2.52 168 2.52
                           231 2.52 228 2.52 167 2.52  39 2.52
 106  0.389  0.722  0.381-  34 2.48 160 2.48 223 2.48 180 2.48 238 2.48  51 2.48 169 2.52  45 2.52
                           229 2.52 232 2.52 171 2.52  40 2.52
 107  0.389  0.056  0.381- 224 2.48  35 2.48 161 2.48 178 2.48  49 2.48 239 2.48  43 2.52 169 2.52
                           170 2.52 230 2.52 233 2.52  41 2.52
 108  0.389  0.389  0.381-  36 2.48 162 2.48 225 2.48 179 2.48  50 2.48 240 2.48  44 2.52 171 2.52
                           234 2.52 231 2.52 170 2.52  42 2.52
 109  0.833  0.833  0.450- 183 2.47  63 2.47 250 2.47 226 2.48  37 2.48 163 2.48  48 2.52 174 2.52
                           241 2.52 172 2.52 235 2.52  52 2.52
 110  0.833  0.167  0.450- 181 2.47 251 2.47  61 2.47  38 2.48 164 2.48 227 2.48 173 2.52  46 2.52
                           242 2.52 236 2.52 172 2.52  53 2.52
 111  0.833  0.500  0.450- 252 2.47 182 2.47  62 2.47  39 2.48 165 2.48 228 2.48 174 2.52  47 2.52
                           243 2.52 237 2.52  54 2.52 173 2.52
 112  0.167  0.833  0.450- 186 2.47  57 2.47 244 2.47 229 2.48  40 2.48 166 2.48  51 2.52 177 2.52
                           238 2.52 235 2.52 175 2.52  46 2.52
 113  0.167  0.167  0.450- 184 2.47 245 2.47  55 2.47  41 2.48 167 2.48 230 2.48 176 2.52  49 2.52
                           239 2.52 236 2.52 175 2.52  47 2.52
 114  0.167  0.500  0.450- 246 2.47 185 2.47  56 2.47  42 2.48 168 2.48 231 2.48 177 2.52  50 2.52
                           237 2.52 240 2.52  48 2.52 176 2.52
 115  0.500  0.833  0.450- 189 2.47  60 2.47 247 2.47 232 2.48  43 2.48 169 2.48  54 2.52 180 2.52
                           241 2.52 238 2.52 178 2.52  49 2.52
 116  0.500  0.167  0.450- 187 2.47 248 2.47  58 2.47  44 2.48 170 2.48 233 2.48 179 2.52  52 2.52
                           242 2.52 239 2.52 178 2.52  50 2.52
 117  0.500  0.500  0.450- 249 2.47 188 2.47  59 2.47  45 2.48 171 2.48 234 2.48 180 2.52  53 2.52
                           240 2.52 243 2.52  51 2.52 179 2.52
 118  0.944  0.944  0.519-  46 2.47 172 2.47 235 2.47  57 2.52 250 2.52 181 2.52 244 2.52 183 2.52
                            61 2.52
 119  0.944  0.278  0.519- 236 2.47  47 2.47 173 2.47  55 2.52 181 2.52 182 2.52 251 2.52 245 2.52
                            62 2.52
 120  0.944  0.611  0.519- 237 2.47  48 2.47 174 2.47 183 2.52  56 2.52 252 2.52 246 2.52  63 2.52
                           182 2.52
 121  0.278  0.944  0.519-  49 2.47 175 2.47 238 2.47  60 2.52 244 2.52 247 2.52 184 2.52 186 2.52
                            55 2.52
 122  0.278  0.278  0.519- 239 2.47  50 2.47 176 2.47  58 2.52 184 2.52 185 2.52 245 2.52 248 2.52
                            56 2.52
 123  0.278  0.611  0.519- 240 2.47  51 2.47 177 2.47 186 2.52  59 2.52 249 2.52 246 2.52  57 2.52
                           185 2.52
 124  0.611  0.944  0.519-  52 2.47 178 2.47 241 2.47  63 2.52 247 2.52 250 2.52 187 2.52 189 2.52
                            58 2.52
 125  0.611  0.278  0.519- 242 2.47  53 2.47 179 2.47  61 2.52 187 2.52 188 2.52 251 2.52 248 2.52
                            59 2.52
 126  0.611  0.611  0.519- 243 2.47  54 2.47 180 2.47 189 2.52  62 2.52 249 2.52 252 2.52  60 2.52
                           188 2.52
 127  0.278  0.444  0.104- 205 2.47  73 2.47  16 2.47  64 2.52 197 2.52   1 2.52   7 2.52 190 2.52
                            65 2.52
 128  0.278  0.778  0.104- 206 2.47  74 2.47  17 2.47  65 2.52 198 2.52   8 2.52   2 2.52  66 2.52
                           191 2.52
 129  0.278  0.111  0.104-  18 2.47 207 2.47  75 2.47 196 2.52  64 2.52   9 2.52   3 2.52  66 2.52
                           192 2.52
 130  0.611  0.444  0.104- 199 2.47  76 2.47  10 2.47  67 2.52 191 2.52   4 2.52   1 2.52 193 2.52
                            68 2.52
 131  0.611  0.778  0.104- 200 2.47  77 2.47  11 2.47  68 2.52 192 2.52   2 2.52   5 2.52  69 2.52
                           194 2.52
 132  0.611  0.111  0.104-  12 2.47 201 2.47  78 2.47 190 2.52  67 2.52   3 2.52   6 2.52  69 2.52
                           195 2.52
 133  0.944  0.444  0.104- 202 2.47  13 2.47  79 2.47  70 2.52 194 2.52   4 2.52   7 2.52  71 2.52
                           196 2.52
 134  0.944  0.778  0.104- 203 2.47  14 2.47  80 2.47  71 2.52 195 2.52   5 2.52   8 2.52  72 2.52
                           197 2.52
 135  0.944  0.111  0.104-  15 2.47 204 2.47  81 2.47 193 2.52  70 2.52   6 2.52  72 2.52   9 2.52
                           198 2.52
 136  0.389  0.556  0.173-  65 2.47 191 2.47   1 2.47 214 2.48  82 2.48  25 2.48 206 2.52  73 2.52
                            16 2.52  10 2.52  74 2.52 199 2.52
 137  0.389  0.889  0.173-  66 2.47 192 2.47   2 2.47  26 2.48 215 2.48  83 2.48 207 2.52  75 2.52
                            74 2.52  11 2.52  17 2.52 200 2.52
 138  0.389  0.222  0.173-  64 2.47   3 2.47 190 2.47 216 2.48  84 2.48  27 2.48  75 2.52 205 2.52
                            12 2.52  18 2.52  73 2.52 201 2.52
 139  0.722  0.556  0.173-  68 2.47 194 2.47   4 2.47 208 2.48  85 2.48  19 2.48 200 2.52  76 2.52
                            10 2.52  13 2.52  77 2.52 202 2.52
 140  0.722  0.889  0.173-  69 2.47 195 2.47   5 2.47  20 2.48 209 2.48  86 2.48 201 2.52  78 2.52
                            77 2.52  14 2.52  11 2.52 203 2.52
 141  0.722  0.222  0.173-  67 2.47   6 2.47 193 2.47 210 2.48  87 2.48  21 2.48  78 2.52 199 2.52
                            15 2.52  12 2.52  76 2.52 204 2.52
 142  0.056  0.556  0.173-  71 2.47 197 2.47   7 2.47 211 2.48  88 2.48  22 2.48  79 2.52 203 2.52
                            16 2.52  13 2.52  80 2.52 205 2.52
 143  0.056  0.889  0.173-  72 2.47 198 2.47   8 2.47  23 2.48 212 2.48  89 2.48 204 2.52  81 2.52
                            80 2.52  17 2.52  14 2.52 206 2.52
 144  0.056  0.222  0.173-   9 2.47  70 2.47 196 2.47 213 2.48  90 2.48  24 2.48  81 2.52 202 2.52
                            18 2.52  15 2.52  79 2.52 207 2.52
 145  0.500  0.667  0.242-  34 2.48 223 2.48  91 2.48  74 2.48 200 2.48  10 2.48 215 2.52  83 2.52
                            82 2.52  19 2.52  25 2.52 208 2.52
 146  0.500  0.000  0.242- 224 2.48  92 2.48  35 2.48  75 2.48  11 2.48 201 2.48 216 2.52  20 2.52
                            26 2.52  83 2.52  84 2.52 209 2.52
 147  0.500  0.333  0.242-  36 2.48 225 2.48  93 2.48  73 2.48 199 2.48  12 2.48  84 2.52 214 2.52
                            27 2.52  21 2.52 210 2.52  82 2.52
 148  0.833  0.667  0.242-  28 2.48 217 2.48  94 2.48  77 2.48 203 2.48  13 2.48 209 2.52  86 2.52
                            85 2.52  19 2.52  22 2.52 211 2.52
 149  0.833  0.000  0.242- 218 2.48  95 2.48  29 2.48  78 2.48  14 2.48 204 2.48 210 2.52  20 2.52
                            86 2.52  23 2.52  87 2.52 212 2.52
 150  0.833  0.333  0.242-  30 2.48 219 2.48  96 2.48  76 2.48 202 2.48  15 2.48  87 2.52 208 2.52
                            21 2.52  24 2.52  85 2.52 213 2.52
 151  0.167  0.667  0.242-  31 2.48 220 2.48  97 2.48  80 2.48 206 2.48  16 2.48 212 2.52  89 2.52
                            88 2.52  25 2.52  22 2.52 214 2.52
 152  0.167  0.000  0.242- 221 2.48  98 2.48  32 2.48  81 2.48  17 2.48 207 2.48 213 2.52  26 2.52
                            23 2.52  89 2.52  90 2.52 215 2.52
 153  0.167  0.333  0.242-  33 2.48 222 2.48  99 2.48  79 2.48 205 2.48  18 2.48  90 2.52 211 2.52
                            27 2.52  24 2.52 216 2.52  88 2.52
 154  0.611  0.778  0.312-  83 2.48 232 2.48  19 2.48 209 2.48 100 2.48  43 2.48  91 2.52 224 2.52
                            34 2.52  28 2.52  92 2.52 217 2.52
 155  0.611  0.111  0.312-  84 2.48  44 2.48 233 2.48 210 2.48  20 2.48 101 2.48 225 2.52  93 2.52
                            35 2.52  29 2.52  92 2.52 218 2.52
 156  0.611  0.444  0.312- 234 2.48  21 2.48  82 2.48 102 2.48  45 2.48 208 2.48  93 2.52 223 2.52
                            30 2.52  36 2.52 219 2.52  91 2.52
 157  0.944  0.778  0.312-  86 2.48 226 2.48  22 2.48  37 2.48 212 2.48 103 2.48  94 2.52 218 2.52
                            28 2.52  31 2.52  95 2.52 220 2.52
 158  0.944  0.111  0.312-  87 2.48  38 2.48 227 2.48  23 2.48 213 2.48 104 2.48 219 2.52  96 2.52
                            29 2.52  95 2.52  32 2.52 221 2.52
 159  0.944  0.444  0.312- 228 2.48  24 2.48  85 2.48  39 2.48 105 2.48 211 2.48  96 2.52 217 2.52
                            30 2.52  33 2.52  94 2.52 222 2.52
 160  0.278  0.778  0.312-  89 2.48 229 2.48  25 2.48 215 2.48 106 2.48  40 2.48  97 2.52 221 2.52
                            34 2.52  31 2.52  98 2.52 223 2.52
 161  0.278  0.111  0.312-  90 2.48  41 2.48 230 2.48 216 2.48  26 2.48 107 2.48 222 2.52  99 2.52
                            32 2.52  35 2.52  98 2.52 224 2.52
 162  0.278  0.444  0.312- 231 2.48  27 2.48  88 2.48 108 2.48  42 2.48 214 2.48  99 2.52 220 2.52
                            36 2.52  33 2.52 225 2.52  97 2.52
 163  0.722  0.889  0.381-  92 2.48 218 2.48  28 2.48  52 2.48 241 2.48 109 2.48 233 2.52 101 2.52
                           100 2.52  37 2.52  43 2.52 226 2.52
 164  0.722  0.222  0.381-  93 2.48  29 2.48 219 2.48 242 2.48 110 2.48  53 2.48 101 2.52 234 2.52
                            38 2.52  44 2.52 102 2.52 227 2.52
 165  0.722  0.556  0.381-  91 2.48 217 2.48  30 2.48 243 2.48 111 2.48  54 2.48 232 2.52 102 2.52
                            45 2.52  39 2.52 100 2.52 228 2.52
 166  0.056  0.889  0.381-  95 2.48 221 2.48  31 2.48  46 2.48 235 2.48 112 2.48 227 2.52 104 2.52
                           103 2.52  40 2.52  37 2.52 229 2.52
 167  0.056  0.222  0.381-  32 2.48  96 2.48 222 2.48 236 2.48 113 2.48  47 2.48 104 2.52 228 2.52
                            41 2.52  38 2.52 105 2.52 230 2.52
 168  0.056  0.556  0.381-  94 2.48 220 2.48  33 2.48 237 2.48 114 2.48  48 2.48 105 2.52 226 2.52
                            42 2.52  39 2.52 103 2.52 231 2.52
 169  0.389  0.889  0.381-  98 2.48 224 2.48  34 2.48  49 2.48 238 2.48 115 2.48 230 2.52 107 2.52
                           106 2.52  43 2.52  40 2.52 232 2.52
 170  0.389  0.222  0.381-  99 2.48  35 2.48 225 2.48 239 2.48 116 2.48  50 2.48 107 2.52 231 2.52
                            44 2.52  41 2.52 108 2.52 233 2.52
 171  0.389  0.556  0.381-  97 2.48 223 2.48  36 2.48 240 2.48 117 2.48  51 2.48 229 2.52 108 2.52
                            42 2.52  45 2.52 106 2.52 234 2.52
 172  0.833  0.000  0.450- 250 2.47 118 2.47  61 2.47 101 2.48  37 2.48 227 2.48 242 2.52  52 2.52
                           109 2.52  46 2.52 110 2.52 235 2.52
 173  0.833  0.333  0.450-  62 2.47 251 2.47 119 2.47 102 2.48 228 2.48  38 2.48 110 2.52 243 2.52
                            53 2.52  47 2.52 111 2.52 236 2.52
 174  0.833  0.667  0.450-  63 2.47 252 2.47 120 2.47 100 2.48 226 2.48  39 2.48 241 2.52 109 2.52
                           111 2.52  54 2.52  48 2.52 237 2.52
 175  0.167  0.000  0.450- 244 2.47 121 2.47  55 2.47 104 2.48  40 2.48 230 2.48 236 2.52  49 2.52
                            46 2.52 112 2.52 113 2.52 238 2.52
 176  0.167  0.333  0.450-  56 2.47 245 2.47 122 2.47 105 2.48 231 2.48  41 2.48 113 2.52 237 2.52
                            50 2.52  47 2.52 239 2.52 114 2.52
 177  0.167  0.667  0.450-  57 2.47 246 2.47 123 2.47 103 2.48 229 2.48  42 2.48 235 2.52 112 2.52
                           114 2.52  51 2.52  48 2.52 240 2.52
 178  0.500  0.000  0.450- 247 2.47 124 2.47  58 2.47 107 2.48  43 2.48 233 2.48 239 2.52  52 2.52
                            49 2.52 115 2.52 116 2.52 241 2.52
 179  0.500  0.333  0.450-  59 2.47 248 2.47 125 2.47 108 2.48 234 2.48  44 2.48 116 2.52 240 2.52
                            50 2.52  53 2.52 242 2.52 117 2.52
 180  0.500  0.667  0.450-  60 2.47 249 2.47 126 2.47 106 2.48 232 2.48  45 2.48 238 2.52 115 2.52
                           117 2.52  54 2.52  51 2.52 243 2.52
 181  0.944  0.111  0.519- 110 2.47  46 2.47 236 2.47 251 2.52 119 2.52  61 2.52 118 2.52  55 2.52
                           244 2.52
 182  0.944  0.444  0.519-  47 2.47 111 2.47 237 2.47 119 2.52 252 2.52  62 2.52  56 2.52 120 2.52
                           245 2.52
 183  0.944  0.778  0.519- 109 2.47  48 2.47 235 2.47 120 2.52 250 2.52  63 2.52  57 2.52 118 2.52
                           246 2.52
 184  0.278  0.111  0.519- 113 2.47 239 2.47  49 2.47 245 2.52 122 2.52  55 2.52  58 2.52 121 2.52
                           247 2.52
 185  0.278  0.444  0.519-  50 2.47 114 2.47 240 2.47 122 2.52 246 2.52  59 2.52  56 2.52 248 2.52
                           123 2.52
 186  0.278  0.778  0.519- 112 2.47  51 2.47 238 2.47 123 2.52 244 2.52  57 2.52  60 2.52 121 2.52
                           249 2.52
 187  0.611  0.111  0.519- 116 2.47 242 2.47  52 2.47 248 2.52 125 2.52  58 2.52  61 2.52 124 2.52
                           250 2.52
 188  0.611  0.444  0.519-  53 2.47 117 2.47 243 2.47 125 2.52 249 2.52  62 2.52  59 2.52 251 2.52
                           126 2.52
 189  0.611  0.778  0.519- 115 2.47  54 2.47 241 2.47 126 2.52 247 2.52  60 2.52  63 2.52 124 2.52
                           252 2.52
 190  0.444  0.278  0.104-  12 2.47 138 2.47  73 2.47 132 2.52   3 2.52   1 2.52  67 2.52  64 2.52
                           127 2.52
 191  0.444  0.611  0.104-  10 2.47 136 2.47  74 2.47   2 2.52 130 2.52  65 2.52  68 2.52 128 2.52
                             1 2.52
 192  0.444  0.944  0.104-  11 2.47  75 2.47 137 2.47 131 2.52  69 2.52  66 2.52   3 2.52   2 2.52
                           129 2.52
 193  0.778  0.278  0.104-  15 2.47 141 2.47  76 2.47 135 2.52   6 2.52   4 2.52  67 2.52  70 2.52
                           130 2.52
 194  0.778  0.611  0.104-  13 2.47 139 2.47  77 2.47   5 2.52 133 2.52  71 2.52  68 2.52 131 2.52
                             4 2.52
 195  0.778  0.944  0.104-  14 2.47  78 2.47 140 2.47 134 2.52  72 2.52  69 2.52   6 2.52   5 2.52
                           132 2.52
 196  0.111  0.278  0.104-  18 2.47 144 2.47  79 2.47 129 2.52   9 2.52   7 2.52  64 2.52  70 2.52
                           133 2.52
 197  0.111  0.611  0.104-  16 2.47 142 2.47  80 2.47   8 2.52 127 2.52  65 2.52  71 2.52   7 2.52
                           134 2.52
 198  0.111  0.944  0.104-  17 2.47  81 2.47 143 2.47 128 2.52  66 2.52   9 2.52  72 2.52   8 2.52
                           135 2.52
 199  0.556  0.389  0.173- 130 2.47   1 2.47  67 2.47  21 2.48 147 2.48  82 2.48 141 2.52  10 2.52
                            73 2.52  76 2.52  12 2.52 136 2.52
 200  0.556  0.722  0.173- 131 2.47   2 2.47  68 2.47  19 2.48  83 2.48 145 2.48  11 2.52 139 2.52
                            74 2.52  77 2.52  10 2.52 137 2.52
 201  0.556  0.056  0.173-  69 2.47 132 2.47   3 2.47  20 2.48 146 2.48  84 2.48 140 2.52  11 2.52
                            12 2.52  75 2.52  78 2.52 138 2.52
 202  0.889  0.389  0.173- 133 2.47   4 2.47  70 2.47  24 2.48 150 2.48  85 2.48  13 2.52 144 2.52
                            76 2.52  79 2.52  15 2.52 139 2.52
 203  0.889  0.722  0.173- 134 2.47   5 2.47  71 2.47  86 2.48  22 2.48 148 2.48  14 2.52 142 2.52
                            77 2.52  80 2.52  13 2.52 140 2.52
 204  0.889  0.056  0.173-  72 2.47 135 2.47   6 2.47  23 2.48 149 2.48  87 2.48 143 2.52  14 2.52
                            15 2.52  78 2.52  81 2.52 141 2.52
 205  0.222  0.389  0.173- 127 2.47   7 2.47  64 2.47  27 2.48 153 2.48  88 2.48 138 2.52  16 2.52
                            79 2.52  73 2.52  18 2.52 142 2.52
 206  0.222  0.722  0.173- 128 2.47   8 2.47  65 2.47  25 2.48  89 2.48 151 2.48  17 2.52 136 2.52
                            74 2.52  80 2.52  16 2.52 143 2.52
 207  0.222  0.056  0.173-  66 2.47 129 2.47   9 2.47  26 2.48 152 2.48  90 2.48 137 2.52  17 2.52
                            18 2.52  75 2.52  81 2.52 144 2.52
 208  0.667  0.500  0.242-  91 2.48  30 2.48 156 2.48 139 2.48  10 2.48  76 2.48  19 2.52 150 2.52
                            82 2.52  85 2.52 145 2.52  21 2.52
 209  0.667  0.833  0.242-  28 2.48 154 2.48  92 2.48  77 2.48 140 2.48  11 2.48 148 2.52  19 2.52
                            86 2.52  83 2.52  20 2.52 146 2.52
 210  0.667  0.167  0.242-  29 2.48  93 2.48 155 2.48 141 2.48  12 2.48  78 2.48  21 2.52 149 2.52
                            87 2.52  84 2.52  20 2.52 147 2.52
 211  0.000  0.500  0.242-  94 2.48  33 2.48 159 2.48 142 2.48  79 2.48  13 2.48  22 2.52 153 2.52
                            88 2.52  85 2.52  24 2.52 148 2.52
 212  0.000  0.833  0.242-  31 2.48  95 2.48 157 2.48  80 2.48 143 2.48  14 2.48 151 2.52  22 2.52
                            89 2.52  23 2.52  86 2.52 149 2.52
 213  0.000  0.167  0.242-  32 2.48  96 2.48 158 2.48 144 2.48  81 2.48  15 2.48  24 2.52 152 2.52
                            90 2.52  87 2.52  23 2.52 150 2.52
 214  0.333  0.500  0.242-  97 2.48  36 2.48 162 2.48 136 2.48  16 2.48  73 2.48  25 2.52 147 2.52
                            82 2.52  88 2.52 151 2.52  27 2.52
 215  0.333  0.833  0.242-  34 2.48 160 2.48  98 2.48  74 2.48 137 2.48  17 2.48 145 2.52  25 2.52
                            89 2.52  83 2.52  26 2.52 152 2.52
 216  0.333  0.167  0.242-  35 2.48  99 2.48 161 2.48 138 2.48  18 2.48  75 2.48  27 2.52 146 2.52
                            90 2.52  84 2.52  26 2.52 153 2.52
 217  0.778  0.611  0.312-  39 2.48  85 2.48 148 2.48 165 2.48 100 2.48  19 2.48  28 2.52 159 2.52
                            94 2.52  91 2.52 154 2.52  30 2.52
 218  0.778  0.944  0.312-  37 2.48 149 2.48 101 2.48 163 2.48  20 2.48  86 2.48 157 2.52  92 2.52
                            95 2.52  29 2.52  28 2.52 155 2.52
 219  0.778  0.278  0.312-  38 2.48  87 2.48 150 2.48 164 2.48 102 2.48  21 2.48 158 2.52  29 2.52
                            30 2.52  93 2.52  96 2.52 156 2.52
 220  0.111  0.611  0.312-  42 2.48  88 2.48 151 2.48 168 2.48 103 2.48  22 2.48  31 2.52 162 2.52
                            97 2.52  94 2.52  33 2.52 157 2.52
 221  0.111  0.944  0.312-  40 2.48 152 2.48 104 2.48 166 2.48  23 2.48  89 2.48 160 2.52  98 2.52
                            32 2.52  95 2.52  31 2.52 158 2.52
 222  0.111  0.278  0.312-  41 2.48  90 2.48 153 2.48 167 2.48 105 2.48  24 2.48 161 2.52  32 2.52
                            33 2.52  99 2.52  96 2.52 159 2.52
 223  0.444  0.611  0.312-  45 2.48  82 2.48 145 2.48 171 2.48 106 2.48  25 2.48  34 2.52 156 2.52
                            97 2.52  91 2.52 160 2.52  36 2.52
 224  0.444  0.944  0.312-  43 2.48 146 2.48 107 2.48 169 2.48  26 2.48  83 2.48 154 2.52  92 2.52
                            98 2.52  35 2.52  34 2.52 161 2.52
 225  0.444  0.278  0.312-  44 2.48  84 2.48 147 2.48 170 2.48 108 2.48  27 2.48 155 2.52  35 2.52
                            36 2.52  93 2.52  99 2.52 162 2.52
 226  0.889  0.722  0.381- 157 2.48  28 2.48  94 2.48 109 2.48  48 2.48 174 2.48  37 2.52 168 2.52
                           100 2.52 103 2.52  39 2.52 163 2.52
 227  0.889  0.056  0.381-  95 2.48 158 2.48  29 2.48  46 2.48 172 2.48 110 2.48 166 2.52  37 2.52
                            38 2.52 101 2.52 104 2.52 164 2.52
 228  0.889  0.389  0.381- 159 2.48  30 2.48  96 2.48  47 2.48 173 2.48 111 2.48  39 2.52 167 2.52
                           102 2.52 105 2.52  38 2.52 165 2.52
 229  0.222  0.722  0.381- 160 2.48  31 2.48  97 2.48  51 2.48 112 2.48 177 2.48  40 2.52 171 2.52
                           106 2.52 103 2.52  42 2.52 166 2.52
 230  0.222  0.056  0.381-  98 2.48 161 2.48  32 2.48  49 2.48 175 2.48 113 2.48 169 2.52  40 2.52
                            41 2.52 107 2.52 104 2.52 167 2.52
 231  0.222  0.389  0.381- 162 2.48  33 2.48  99 2.48  50 2.48 176 2.48 114 2.48 170 2.52  42 2.52
                           105 2.52 108 2.52  41 2.52 168 2.52
 232  0.556  0.722  0.381- 154 2.48  34 2.48  91 2.48  54 2.48 115 2.48 180 2.48  43 2.52 165 2.52
                           100 2.52 106 2.52  45 2.52 169 2.52
 233  0.556  0.056  0.381-  92 2.48 155 2.48  35 2.48  52 2.48 178 2.48 116 2.48 163 2.52  43 2.52
                            44 2.52 101 2.52 107 2.52 170 2.52
 234  0.556  0.389  0.381- 156 2.48  36 2.48  93 2.48  53 2.48 179 2.48 117 2.48 164 2.52  45 2.52
                           108 2.52 102 2.52  44 2.52 171 2.52
 235  0.000  0.833  0.450-  57 2.47 118 2.47 183 2.47 103 2.48 166 2.48  37 2.48 177 2.52  48 2.52
                           112 2.52  46 2.52 109 2.52 172 2.52
 236  0.000  0.167  0.450-  55 2.47 119 2.47 181 2.47 167 2.48 104 2.48  38 2.48  47 2.52 175 2.52
                           113 2.52 110 2.52  46 2.52 173 2.52
 237  0.000  0.500  0.450- 120 2.47  56 2.47 182 2.47 168 2.48 105 2.48  39 2.48  48 2.52 176 2.52
                           114 2.52 111 2.52  47 2.52 174 2.52
 238  0.333  0.833  0.450-  60 2.47 186 2.47 121 2.47 106 2.48 169 2.48  40 2.48 180 2.52  51 2.52
                           112 2.52 115 2.52  49 2.52 175 2.52
 239  0.333  0.167  0.450-  58 2.47 122 2.47 184 2.47 170 2.48  41 2.48 107 2.48  50 2.52 178 2.52
                           113 2.52 116 2.52  49 2.52 176 2.52
 240  0.333  0.500  0.450- 123 2.47  59 2.47 185 2.47 171 2.48  42 2.48 108 2.48  51 2.52 179 2.52
                           117 2.52 114 2.52 177 2.52  50 2.52
 241  0.667  0.833  0.450-  63 2.47 189 2.47 124 2.47 100 2.48 163 2.48  43 2.48 174 2.52  54 2.52
                           109 2.52 115 2.52  52 2.52 178 2.52
 242  0.667  0.167  0.450-  61 2.47 125 2.47 187 2.47 164 2.48  44 2.48 101 2.48  53 2.52 172 2.52
                           110 2.52 116 2.52  52 2.52 179 2.52
 243  0.667  0.500  0.450- 126 2.47  62 2.47 188 2.47 165 2.48  45 2.48 102 2.48  54 2.52 173 2.52
                           111 2.52 117 2.52 180 2.52  53 2.52
 244  0.111  0.944  0.519- 175 2.47  46 2.47 112 2.47 186 2.52 121 2.52  55 2.52 118 2.52  57 2.52
                           181 2.52
 245  0.111  0.278  0.519- 113 2.47 176 2.47  47 2.47 184 2.52  55 2.52  56 2.52 122 2.52 119 2.52
                           182 2.52
 246  0.111  0.611  0.519- 114 2.47 177 2.47  48 2.47  57 2.52 185 2.52 123 2.52 120 2.52  56 2.52
                           183 2.52
 247  0.444  0.944  0.519- 178 2.47  49 2.47 115 2.47 189 2.52 124 2.52 121 2.52  58 2.52  60 2.52
                           184 2.52
 248  0.444  0.278  0.519- 116 2.47 179 2.47  50 2.47 187 2.52  58 2.52  59 2.52 122 2.52 125 2.52
                           185 2.52
 249  0.444  0.611  0.519- 117 2.47 180 2.47  51 2.47  60 2.52 188 2.52 123 2.52 126 2.52 186 2.52
                            59 2.52
 250  0.778  0.944  0.519- 172 2.47  52 2.47 109 2.47 183 2.52 118 2.52 124 2.52  61 2.52  63 2.52
                           187 2.52
 251  0.778  0.278  0.519- 110 2.47 173 2.47  53 2.47 181 2.52  61 2.52  62 2.52 125 2.52 119 2.52
                           188 2.52
 252  0.778  0.611  0.519- 111 2.47 174 2.47  54 2.47  63 2.52 182 2.52 120 2.52 126 2.52 189 2.52
                            62 2.52
 253  0.556  0.389  0.726- 254 1.46
 254  0.500  0.500  0.726- 253 1.46
 
  LATTYP: Found a hexagonal cell.
 ALAT       =    15.1462217588
 C/A-ratio  =     1.9146689162
  
  Lattice vectors:
  
 A1 = (   0.0000000000,  -7.5731108794,  13.1170128145)
 A2 = (   0.0000000000,  15.1462217588,   0.0000000000)
 A3 = ( -29.0000000000,   0.0000000000,   0.0000000000)


Analysis of symmetry for initial positions (statically):
=====================================================================
 Subroutine PRICEL returns:
 Original cell was already a primitive cell.
 

 Routine SETGRP: Setting up the symmetry group for a 
 hexagonal supercell.


 Subroutine GETGRP returns: Found  1 space group operations
 (whereof  1 operations were pure point group operations)
 out of a pool of 24 trial point group operations.


The static configuration has the point symmetry C_1 .


Analysis of symmetry for dynamics (positions and initial velocities):
=====================================================================
 Subroutine PRICEL returns:
 Original cell was already a primitive cell.
 

 Routine SETGRP: Setting up the symmetry group for a 
 hexagonal supercell.


 Subroutine GETGRP returns: Found  1 space group operations
 (whereof  1 operations were pure point group operations)
 out of a pool of 24 trial point group operations.


The dynamic configuration has the point symmetry C_1 .


 Subroutine INISYM returns: Found  1 space group operations
 (whereof  1 operations are pure point group operations),
 and found     1 'primitive' translations

 
 
 KPOINTS: Automatic generation                    

Automatic generation of k-mesh.
Space group operators:
 irot       det(A)        alpha          n_x          n_y          n_z        tau_x        tau_y        tau_z
    1     1.000000     0.000000     1.000000     0.000000     0.000000     0.000000     0.000000     0.000000
 
 Subroutine IBZKPT returns following result:
 ===========================================
 
 Found      4 irreducible k-points:
 
 Following reciprocal coordinates:
            Coordinates               Weight
  0.000000  0.000000  0.000000      1.000000
  0.500000  0.000000  0.000000      1.000000
  0.000000  0.500000  0.000000      1.000000
  0.500000  0.500000  0.000000      1.000000
 
 Following cartesian coordinates:
            Coordinates               Weight
  0.000000  0.000000  0.000000      1.000000
  0.000000 -0.033012  0.019059      1.000000
  0.000000  0.000000 -0.038118      1.000000
  0.000000 -0.033012 -0.019059      1.000000
 


--------------------------------------------------------------------------------------------------------




 Dimension of arrays:
   k-points           NKPTS =      4   k-points in BZ     NKDIM =      4   number of bands    NBANDS=   1518
   number of dos      NEDOS =    301   number of ions     NIONS =    254
   non local maximal  LDIM  =      7   non local SUM 2l+1 LMDIM =     25
   total plane-waves  NPLWV = 516096
   max r-space proj   IRMAX =   3739   max aug-charges    IRDMAX=   3103
   dimension x,y,z NGX =    64 NGY =   64 NGZ =  126
   dimension x,y,z NGXF=   128 NGYF=  128 NGZF=  252
   support grid    NGXF=   128 NGYF=  128 NGZF=  252
   ions per type =             252   2
   NGX,Y,Z   is equivalent  to a cutoff of   7.02,  7.02,  7.22 a.u.
   NGXF,Y,Z  is equivalent  to a cutoff of  14.05, 14.05, 14.45 a.u.

 SYSTEM =  NiAl                                    
 POSCAR =  New structure                           

 Startparameter for this run:
   NWRITE =      2    write-flag & timer
   PREC   = normal    normal or accurate (medium, high low for compatibility)
   ISTART =      0    job   : 0-new  1-cont  2-samecut
   ICHARG =      2    charge: 1-file 2-atom 10-const
   ISPIN  =      1    spin polarized calculation?
   LNONCOLLINEAR =      F non collinear calculations
   LSORBIT =      F    spin-orbit coupling
   INIWAV =      1    electr: 0-lowe 1-rand  2-diag
   LASPH  =      F    aspherical Exc in radial PAW
   METAGGA=      F    non-selfconsistent MetaGGA calc.

 Electronic Relaxation 1
   ENCUT  =  300.0 eV  22.05 Ry    4.70 a.u.  21.39 21.39 40.96*2*pi/ulx,y,z
   ENINI  =  300.0     initial cutoff
   ENAUG  =  802.3 eV  augmentation charge cutoff
   NELM   =     60;   NELMIN=  6; NELMDL= -5     # of ELM steps 
   EDIFF  = 0.5E-05   stopping-criterion for ELM
   LREAL  =      T    real-space projection
   NLSPLINE    = F    spline interpolate recip. space projectors
   LCOMPAT=      F    compatible to vasp.4.4
   GGA_COMPAT  = T    GGA compatible to vasp.4.4-vasp.4.6
   LMAXPAW     = -100 max onsite density
   LMAXMIX     =    2 max onsite mixed and CHGCAR
   VOSKOWN=      0    Vosko Wilk Nusair interpolation
   ROPT   =   -0.00050  -0.00050
 Ionic relaxation
   EDIFFG = 0.5E-04   stopping-criterion for IOM
   NSW    =      0    number of steps for IOM
   NBLOCK =      1;   KBLOCK =      1    inner block; outer block 
   IBRION =     -1    ionic relax: 0-MD 1-quasi-New 2-CG
   NFREE  =      0    steps in history (QN), initial steepest desc. (CG)
   ISIF   =      0    stress and relaxation
   IWAVPR =     10    prediction:  0-non 1-charg 2-wave 3-comb
   ISYM   =      2    0-nonsym 1-usesym 2-fastsym
   LCORR  =      T    Harris-Foulkes like correction to forces

   POTIM  = 0.5000    time-step for ionic-motion
   TEIN   =    0.0    initial temperature
   TEBEG  =    0.0;   TEEND  =   0.0 temperature during run
   SMASS  =  -3.00    Nose mass-parameter (am)
   estimated Nose-frequenzy (Omega)   =  0.10E-29 period in steps =****** mass=  -0.524E-26a.u.
   SCALEE = 1.0000    scale energy and forces
   NPACO  =    256;   APACO  = 16.0  distance and # of slots for P.C.
   PSTRESS=    0.0 pullay stress

  Mass of Ions in am
   POMASS =  58.69 14.00
  Ionic Valenz
   ZVAL   =  10.00  5.00
  Atomic Wigner-Seitz radii
   RWIGS  =  -1.00 -1.00
  virtual crystal weights 
   VCA    =   1.00  1.00
   NELECT =    2530.0000    total number of electrons
   NUPDOWN=      -1.0000    fix difference up-down

 DOS related values:
   EMIN   =  10.00;   EMAX   =-10.00  energy-range for DOS
   EFERMI =   0.00
   ISMEAR =     0;   SIGMA  =   0.05  broadening in eV -4-tet -1-fermi 0-gaus

 Electronic relaxation 2 (details)
   IALGO  =     38    algorithm
   LDIAG  =      T    sub-space diagonalisation (order eigenvalues)
   LSUBROT=      F    optimize rotation matrix (better conditioning)
   TURBO    =      0    0=normal 1=particle mesh
   IRESTART =      0    0=no restart 2=restart with 2 vectors
   NREBOOT  =      0    no. of reboots
   NMIN     =      0    reboot dimension
   EREF     =   0.00    reference energy to select bands
   IMIX   =      4    mixing-type and parameters
     AMIX     =   0.40;   BMIX     =  1.00
     AMIX_MAG =   1.60;   BMIX_MAG =  1.00
     AMIN     =   0.10
     WC   =   100.;   INIMIX=   1;  MIXPRE=   1;  MAXMIX= -45

 Intra band minimization:
   WEIMIN = 0.0000     energy-eigenvalue tresh-hold
   EBREAK =  0.82E-09  absolut break condition
   DEPER  =   0.30     relativ break condition  

   TIME   =   0.40     timestep for ELM

  volume/ion in A,a.u.               =      22.68       153.07
  Fermi-wavevector in a.u.,A,eV,Ry     =   1.244331  2.351445 21.066712  1.548360
  Thomas-Fermi vector in A             =   2.378602
 
 Write flags
   LWAVE        =      F    write WAVECAR
   LDOWNSAMPLE  =      F    k-point downsampling of WAVECAR
   LCHARG       =      F    write CHGCAR
   LVTOT        =      F    write LOCPOT, total local potential
   LVHAR        =      F    write LOCPOT, Hartree potential only
   LELF         =      F    write electronic localiz. function (ELF)
   LORBIT       =      0    0 simple, 1 ext, 2 COOP (PROOUT), +10 PAW based schemes


 Dipole corrections
   LMONO  =      F    monopole corrections only (constant potential shift)
   LDIPOL =      F    correct potential (dipole corrections)
   IDIPOL =      0    1-x, 2-y, 3-z, 4-all directions 
   EPSILON=  1.0000000 bulk dielectric constant

 Exchange correlation treatment:
   GGA     =    --    GGA type
   LEXCH   =     8    internal setting for exchange type
   VOSKOWN=      0    Vosko Wilk Nusair interpolation
   LHFCALC =     F    Hartree Fock is set to
   LHFONE  =     F    Hartree Fock one center treatment
   AEXX    =    0.0000 exact exchange contribution

 Linear response parameters
   LEPSILON=     F    determine dielectric tensor
   LRPA    =     F    only Hartree local field effects (RPA)
   LNABLA  =     F    use nabla operator in PAW spheres
   LVEL    =     F    velocity operator in full k-point grid
   LINTERFAST=   F  fast interpolation
   KINTER  =     0    interpolate to denser k-point grid
   CSHIFT  =0.1000    complex shift for real part using Kramers Kronig
   OMEGAMAX=  -1.0    maximum frequency
   DEG_THRESHOLD= 0.2000000E-02 threshold for treating states as degnerate
   RTIME   =   -0.100 relaxation time in fs
  (WPLASMAI=    0.000 imaginary part of plasma frequency in eV, 0.658/RTIME)
   DFIELD  = 0.0000000 0.0000000 0.0000000 field for delta impulse in time
 
 Orbital magnetization related:
   ORBITALMAG=     F  switch on orbital magnetization
   LCHIMAG   =     F  perturbation theory with respect to B field
   DQ        =  0.001000  dq finite difference perturbation B field
   LLRAUG    =     F  two centre corrections for induced B field



--------------------------------------------------------------------------------------------------------


 Static calculation
 charge density and potential will be updated during run
 non-spin polarized calculation
 Variant of blocked Davidson
 Davidson routine will perform the subspace rotation
 perform sub-space diagonalisation
    after iterative eigenvector-optimisation
 modified Broyden-mixing scheme, WC =      100.0
 initial mixing is a Kerker type mixing with AMIX =  0.4000 and BMIX =      1.0000
 Hartree-type preconditioning will be used
 using additional bands          253
 real space projection scheme for non local part
 use partial core corrections
 calculate Harris-corrections to forces 
   (improved forces if not selfconsistent)
 use gradient corrections 
 use of overlap-Matrix (Vanderbilt PP)
 Gauss-broadening in eV      SIGMA  =   0.05


--------------------------------------------------------------------------------------------------------


  energy-cutoff  :      300.00
  volume of cell :     5761.52
      direct lattice vectors                 reciprocal lattice vectors
     0.000000000-15.146221759  0.000000000     0.000000000 -0.066023066  0.038118435
     0.000000000 -7.573110879-13.117012814     0.000000000  0.000000000 -0.076236870
    29.000000000  0.000000000  0.000000000     0.034482759  0.000000000  0.000000000

  length of vectors
    15.146221759 15.146221759 29.000000000     0.076236870  0.076236870  0.034482759


 
 k-points in units of 2pi/SCALE and weight: Automatic generation                    
   0.00000000  0.00000000  0.00000000       0.250
   0.00000000 -0.03301153  0.01905922       0.250
   0.00000000  0.00000000 -0.03811843       0.250
   0.00000000 -0.03301153 -0.01905922       0.250
 
 k-points in reciprocal lattice and weights: Automatic generation                    
   0.00000000  0.00000000  0.00000000       0.250
   0.50000000  0.00000000  0.00000000       0.250
   0.00000000  0.50000000  0.00000000       0.250
   0.50000000  0.50000000  0.00000000       0.250
 
 position of ions in fractional coordinates (direct lattice) 
   0.44444450  0.44444418  0.10434517
   0.44444439  0.77777770  0.10434517
   0.44444423  0.11111143  0.10434517
   0.77777779  0.44444418  0.10434517
   0.77777768  0.77777770  0.10434517
   0.77777752  0.11111143  0.10434517
   0.11111120  0.44444418  0.10434517
   0.11111109  0.77777770  0.10434517
   0.11111093  0.11111143  0.10434517
   0.55555543  0.55555561  0.17318552
   0.55555532  0.88888912  0.17318552
   0.55555554  0.22222209  0.17318552
   0.88888873  0.55555561  0.17318552
   0.88888862  0.88888912  0.17318552
   0.88888884  0.22222209  0.17318552
   0.22222214  0.55555561  0.17318552
   0.22222203  0.88888912  0.17318552
   0.22222225  0.22222209  0.17318552
   0.66666637  0.66666703  0.24249897
   0.66666659  0.00000000  0.24249897
   0.66666648  0.33333352  0.24249897
   0.99999978  0.66666703  0.24249897
   0.00000000  0.00000000  0.24249897
   0.99999989  0.33333352  0.24249897
   0.33333307  0.66666703  0.24249897
   0.33333329  0.00000000  0.24249897
   0.33333318  0.33333352  0.24249897
   0.77777768  0.77777770  0.31173069
   0.77777752  0.11111143  0.31173069
   0.77777779  0.44444418  0.31173069
   0.11111109  0.77777770  0.31173069
   0.11111093  0.11111143  0.31173069
   0.11111120  0.44444418  0.31173069
   0.44444439  0.77777770  0.31173069
   0.44444423  0.11111143  0.31173069
   0.44444450  0.44444418  0.31173069
   0.88888862  0.88888912  0.38096241
   0.88888884  0.22222209  0.38096241
   0.88888873  0.55555561  0.38096241
   0.22222203  0.88888912  0.38096241
   0.22222225  0.22222209  0.38096241
   0.22222214  0.55555561  0.38096241
   0.55555532  0.88888912  0.38096241
   0.55555554  0.22222209  0.38096241
   0.55555543  0.55555561  0.38096241
   0.00000000  0.00000000  0.45027586
   0.99999989  0.33333352  0.45027586
   0.99999978  0.66666703  0.45027586
   0.33333329  0.00000000  0.45027586
   0.33333318  0.33333352  0.45027586
   0.33333307  0.66666703  0.45027586
   0.66666659  0.00000000  0.45027586
   0.66666648  0.33333352  0.45027586
   0.66666637  0.66666703  0.45027586
   0.11111093  0.11111143  0.51911621
   0.11111120  0.44444418  0.51911621
   0.11111109  0.77777770  0.51911621
   0.44444423  0.11111143  0.51911621
   0.44444450  0.44444418  0.51911621
   0.44444439  0.77777770  0.51911621
   0.77777752  0.11111143  0.51911621
   0.77777779  0.44444418  0.51911621
   0.77777768  0.77777770  0.51911621
   0.27777824  0.27777742  0.10434517
   0.27777813  0.61111094  0.10434517
   0.27777802  0.94444445  0.10434517
   0.61111153  0.27777742  0.10434517
   0.61111142  0.61111094  0.10434517
   0.61111131  0.94444445  0.10434517
   0.94444483  0.27777742  0.10434517
   0.94444472  0.61111094  0.10434517
   0.94444461  0.94444445  0.10434517
   0.38888917  0.38888885  0.17318552
   0.38888906  0.72222236  0.17318552
   0.38888928  0.05555533  0.17318552
   0.72222247  0.38888885  0.17318552
   0.72222236  0.72222236  0.17318552
   0.72222258  0.05555533  0.17318552
   0.05555588  0.38888885  0.17318552
   0.05555577  0.72222236  0.17318552
   0.05555599  0.05555533  0.17318552
   0.50000011  0.50000027  0.24249897
   0.50000038  0.83333303  0.24249897
   0.50000022  0.16666676  0.24249897
   0.83333340  0.50000027  0.24249897
   0.83333367  0.83333303  0.24249897
   0.83333351  0.16666676  0.24249897
   0.16666681  0.50000027  0.24249897
   0.16666708  0.83333303  0.24249897
   0.16666692  0.16666676  0.24249897
   0.61111142  0.61111094  0.31173069
   0.61111131  0.94444445  0.31173069
   0.61111153  0.27777742  0.31173069
   0.94444472  0.61111094  0.31173069
   0.94444461  0.94444445  0.31173069
   0.94444483  0.27777742  0.31173069
   0.27777813  0.61111094  0.31173069
   0.27777802  0.94444445  0.31173069
   0.27777824  0.27777742  0.31173069
   0.72222236  0.72222236  0.38096241
   0.72222258  0.05555533  0.38096241
   0.72222247  0.38888885  0.38096241
   0.05555577  0.72222236  0.38096241
   0.05555599  0.05555533  0.38096241
   0.05555588  0.38888885  0.38096241
   0.38888906  0.72222236  0.38096241
   0.38888928  0.05555533  0.38096241
   0.38888917  0.38888885  0.38096241
   0.83333367  0.83333303  0.45027586
   0.83333351  0.16666676  0.45027586
   0.83333340  0.50000027  0.45027586
   0.16666708  0.83333303  0.45027586
   0.16666692  0.16666676  0.45027586
   0.16666681  0.50000027  0.45027586
   0.50000038  0.83333303  0.45027586
   0.50000022  0.16666676  0.45027586
   0.50000011  0.50000027  0.45027586
   0.94444461  0.94444445  0.51911621
   0.94444483  0.27777742  0.51911621
   0.94444472  0.61111094  0.51911621
   0.27777802  0.94444445  0.51911621
   0.27777824  0.27777742  0.51911621
   0.27777813  0.61111094  0.51911621
   0.61111131  0.94444445  0.51911621
   0.61111153  0.27777742  0.51911621
   0.61111142  0.61111094  0.51911621
   0.27777785  0.44444418  0.10434517
   0.27777774  0.77777770  0.10434517
   0.27777758  0.11111143  0.10434517
   0.61111115  0.44444418  0.10434517
   0.61111104  0.77777770  0.10434517
   0.61111088  0.11111143  0.10434517
   0.94444444  0.44444418  0.10434517
   0.94444433  0.77777770  0.10434517
   0.94444417  0.11111143  0.10434517
   0.38888879  0.55555561  0.17318552
   0.38888868  0.88888912  0.17318552
   0.38888890  0.22222209  0.17318552
   0.72222208  0.55555561  0.17318552
   0.72222197  0.88888912  0.17318552
   0.72222219  0.22222209  0.17318552
   0.05555549  0.55555561  0.17318552
   0.05555538  0.88888912  0.17318552
   0.05555560  0.22222209  0.17318552
   0.49999972  0.66666703  0.24249897
   0.49999994  0.00000000  0.24249897
   0.49999983  0.33333352  0.24249897
   0.83333302  0.66666703  0.24249897
   0.83333324  0.00000000  0.24249897
   0.83333313  0.33333352  0.24249897
   0.16666643  0.66666703  0.24249897
   0.16666665  0.00000000  0.24249897
   0.16666654  0.33333352  0.24249897
   0.61111104  0.77777770  0.31173069
   0.61111088  0.11111143  0.31173069
   0.61111115  0.44444418  0.31173069
   0.94444433  0.77777770  0.31173069
   0.94444417  0.11111143  0.31173069
   0.94444444  0.44444418  0.31173069
   0.27777774  0.77777770  0.31173069
   0.27777758  0.11111143  0.31173069
   0.27777785  0.44444418  0.31173069
   0.72222197  0.88888912  0.38096241
   0.72222219  0.22222209  0.38096241
   0.72222208  0.55555561  0.38096241
   0.05555538  0.88888912  0.38096241
   0.05555560  0.22222209  0.38096241
   0.05555549  0.55555561  0.38096241
   0.38888868  0.88888912  0.38096241
   0.38888890  0.22222209  0.38096241
   0.38888879  0.55555561  0.38096241
   0.83333324  0.00000000  0.45027586
   0.83333313  0.33333352  0.45027586
   0.83333302  0.66666703  0.45027586
   0.16666665  0.00000000  0.45027586
   0.16666654  0.33333352  0.45027586
   0.16666643  0.66666703  0.45027586
   0.49999994  0.00000000  0.45027586
   0.49999983  0.33333352  0.45027586
   0.49999972  0.66666703  0.45027586
   0.94444417  0.11111143  0.51911621
   0.94444444  0.44444418  0.51911621
   0.94444433  0.77777770  0.51911621
   0.27777758  0.11111143  0.51911621
   0.27777785  0.44444418  0.51911621
   0.27777774  0.77777770  0.51911621
   0.61111088  0.11111143  0.51911621
   0.61111115  0.44444418  0.51911621
   0.61111104  0.77777770  0.51911621
   0.44444488  0.27777742  0.10434517
   0.44444477  0.61111094  0.10434517
   0.44444466  0.94444445  0.10434517
   0.77777818  0.27777742  0.10434517
   0.77777807  0.61111094  0.10434517
   0.77777796  0.94444445  0.10434517
   0.11111159  0.27777742  0.10434517
   0.11111148  0.61111094  0.10434517
   0.11111137  0.94444445  0.10434517
   0.55555582  0.38888885  0.17318552
   0.55555571  0.72222236  0.17318552
   0.55555593  0.05555533  0.17318552
   0.88888911  0.38888885  0.17318552
   0.88888900  0.72222236  0.17318552
   0.88888922  0.05555533  0.17318552
   0.22222252  0.38888885  0.17318552
   0.22222241  0.72222236  0.17318552
   0.22222264  0.05555533  0.17318552
   0.66666675  0.50000027  0.24249897
   0.66666702  0.83333303  0.24249897
   0.66666686  0.16666676  0.24249897
   0.00000016  0.50000027  0.24249897
   0.00000043  0.83333303  0.24249897
   0.00000027  0.16666676  0.24249897
   0.33333346  0.50000027  0.24249897
   0.33333373  0.83333303  0.24249897
   0.33333357  0.16666676  0.24249897
   0.77777807  0.61111094  0.31173069
   0.77777796  0.94444445  0.31173069
   0.77777818  0.27777742  0.31173069
   0.11111148  0.61111094  0.31173069
   0.11111137  0.94444445  0.31173069
   0.11111159  0.27777742  0.31173069
   0.44444477  0.61111094  0.31173069
   0.44444466  0.94444445  0.31173069
   0.44444488  0.27777742  0.31173069
   0.88888900  0.72222236  0.38096241
   0.88888922  0.05555533  0.38096241
   0.88888911  0.38888885  0.38096241
   0.22222241  0.72222236  0.38096241
   0.22222264  0.05555533  0.38096241
   0.22222252  0.38888885  0.38096241
   0.55555571  0.72222236  0.38096241
   0.55555593  0.05555533  0.38096241
   0.55555582  0.38888885  0.38096241
   0.00000043  0.83333303  0.45027586
   0.00000027  0.16666676  0.45027586
   0.00000016  0.50000027  0.45027586
   0.33333373  0.83333303  0.45027586
   0.33333357  0.16666676  0.45027586
   0.33333346  0.50000027  0.45027586
   0.66666702  0.83333303  0.45027586
   0.66666686  0.16666676  0.45027586
   0.66666675  0.50000027  0.45027586
   0.11111137  0.94444445  0.51911621
   0.11111159  0.27777742  0.51911621
   0.11111148  0.61111094  0.51911621
   0.44444466  0.94444445  0.51911621
   0.44444488  0.27777742  0.51911621
   0.44444477  0.61111094  0.51911621
   0.77777796  0.94444445  0.51911621
   0.77777818  0.27777742  0.51911621
   0.77777807  0.61111094  0.51911621
   0.55561801  0.38880804  0.72586207
   0.49996510  0.50011387  0.72586207
 
 position of ions in cartesian coordinates  (Angst):
   3.02601000-10.09748000 -5.82978000
   3.02601000-12.62185000-10.20212000
   3.02601000 -7.57311000 -1.45745000
   3.02601000-15.14622000 -5.82978000
   3.02601000-17.67059000-10.20212000
   3.02601000-12.62185000 -1.45745000
   3.02601000 -5.04874000 -5.82978000
   3.02601000 -7.57311000-10.20212000
   3.02601000 -2.52437000 -1.45745000
   5.02238000-12.62185000 -7.28723000
   5.02238000-15.14622000-11.65957000
   5.02238000-10.09748000 -2.91489000
   5.02238000-17.67059000 -7.28723000
   5.02238000-20.19496000-11.65957000
   5.02238000-15.14622000 -2.91489000
   5.02238000 -7.57311000 -7.28723000
   5.02238000-10.09748000-11.65957000
   5.02238000 -5.04874000 -2.91489000
   7.03247000-15.14622000 -8.74468000
   7.03247000-10.09748000  0.00000000
   7.03247000-12.62185000 -4.37234000
   7.03247000-20.19496176 -8.74468000
   7.03247000  0.00000000  0.00000000
   7.03247000-17.67059176 -4.37234000
   7.03247000-10.09748000 -8.74468000
   7.03247000 -5.04874000  0.00000000
   7.03247000 -7.57311000 -4.37234000
   9.04019000-17.67059000-10.20212000
   9.04019000-12.62185000 -1.45745000
   9.04019000-15.14622000 -5.82978000
   9.04019000 -7.57311000-10.20212000
   9.04019000 -2.52437000 -1.45745000
   9.04019000 -5.04874000 -5.82978000
   9.04019000-12.62185000-10.20212000
   9.04019000 -7.57311000 -1.45745000
   9.04019000-10.09748000 -5.82978000
  11.04791000-20.19496000-11.65957000
  11.04791000-15.14622000 -2.91489000
  11.04791000-17.67059000 -7.28723000
  11.04791000-10.09748000-11.65957000
  11.04791000 -5.04874000 -2.91489000
  11.04791000 -7.57311000 -7.28723000
  11.04791000-15.14622000-11.65957000
  11.04791000-10.09748000 -2.91489000
  11.04791000-12.62185000 -7.28723000
  13.05800000  0.00000000  0.00000000
  13.05800000-17.67059176 -4.37234000
  13.05800000-20.19496176 -8.74468000
  13.05800000 -5.04874000  0.00000000
  13.05800000 -7.57311000 -4.37234000
  13.05800000-10.09748000 -8.74468000
  13.05800000-10.09748000  0.00000000
  13.05800000-12.62185000 -4.37234000
  13.05800000-15.14622000 -8.74468000
  15.05437000 -2.52437000 -1.45745000
  15.05437000 -5.04874000 -5.82978000
  15.05437000 -7.57311000-10.20212000
  15.05437000 -7.57311000 -1.45745000
  15.05437000-10.09748000 -5.82978000
  15.05437000-12.62185000-10.20212000
  15.05437000-12.62185000 -1.45745000
  15.05437000-15.14622000 -5.82978000
  15.05437000-17.67059000-10.20212000
   3.02601000 -6.31093000 -3.64361000
   3.02601000 -8.83530000 -8.01595000
   3.02601000-11.35967000-12.38829000
   3.02601000-11.35967000 -3.64361000
   3.02601000-13.88404000 -8.01595000
   3.02601000-16.40841000-12.38829000
   3.02601000-16.40841000 -3.64361000
   3.02601000-18.93278000 -8.01595000
   3.02601000-21.45715000-12.38829000
   5.02238000 -8.83530000 -5.10106000
   5.02238000-11.35967000 -9.47340000
   5.02238000 -6.31093000 -0.72872000
   5.02238000-13.88404000 -5.10106000
   5.02238000-16.40841000 -9.47340000
   5.02238000-11.35967000 -0.72872000
   5.02238000 -3.78656000 -5.10106000
   5.02238000 -6.31093000 -9.47340000
   5.02238000 -1.26219000 -0.72872000
   7.03247000-11.35967000 -6.55851000
   7.03247000-13.88404000-10.93084000
   7.03247000 -8.83530000 -2.18617000
   7.03247000-16.40841000 -6.55851000
   7.03247000-18.93278000-10.93084000
   7.03247000-13.88404000 -2.18617000
   7.03247000 -6.31093000 -6.55851000
   7.03247000 -8.83530000-10.93084000
   7.03247000 -3.78656000 -2.18617000
   9.04019000-13.88404000 -8.01595000
   9.04019000-16.40841000-12.38829000
   9.04019000-11.35967000 -3.64361000
   9.04019000-18.93278000 -8.01595000
   9.04019000-21.45715000-12.38829000
   9.04019000-16.40841000 -3.64361000
   9.04019000 -8.83530000 -8.01595000
   9.04019000-11.35967000-12.38829000
   9.04019000 -6.31093000 -3.64361000
  11.04791000-16.40841000 -9.47340000
  11.04791000-11.35967000 -0.72872000
  11.04791000-13.88404000 -5.10106000
  11.04791000 -6.31093000 -9.47340000
  11.04791000 -1.26219000 -0.72872000
  11.04791000 -3.78656000 -5.10106000
  11.04791000-11.35967000 -9.47340000
  11.04791000 -6.31093000 -0.72872000
  11.04791000 -8.83530000 -5.10106000
  13.05800000-18.93278000-10.93084000
  13.05800000-13.88404000 -2.18617000
  13.05800000-16.40841000 -6.55851000
  13.05800000 -8.83530000-10.93084000
  13.05800000 -3.78656000 -2.18617000
  13.05800000 -6.31093000 -6.55851000
  13.05800000-13.88404000-10.93084000
  13.05800000 -8.83530000 -2.18617000
  13.05800000-11.35967000 -6.55851000
  15.05437000-21.45715000-12.38829000
  15.05437000-16.40841000 -3.64361000
  15.05437000-18.93278000 -8.01595000
  15.05437000-11.35967000-12.38829000
  15.05437000 -6.31093000 -3.64361000
  15.05437000 -8.83530000 -8.01595000
  15.05437000-16.40841000-12.38829000
  15.05437000-11.35967000 -3.64361000
  15.05437000-13.88404000 -8.01595000
   3.02601000 -7.57311000 -5.82978000
   3.02601000-10.09748000-10.20212000
   3.02601000 -5.04874000 -1.45745000
   3.02601000-12.62185000 -5.82978000
   3.02601000-15.14622000-10.20212000
   3.02601000-10.09748000 -1.45745000
   3.02601000-17.67059000 -5.82978000
   3.02601000-20.19496000-10.20212000
   3.02601000-15.14622000 -1.45745000
   5.02238000-10.09748000 -7.28723000
   5.02238000-12.62185000-11.65957000
   5.02238000 -7.57311000 -2.91489000
   5.02238000-15.14622000 -7.28723000
   5.02238000-17.67059000-11.65957000
   5.02238000-12.62185000 -2.91489000
   5.02238000 -5.04874000 -7.28723000
   5.02238000 -7.57311000-11.65957000
   5.02238000 -2.52437000 -2.91489000
   7.03247000-12.62185000 -8.74468000
   7.03247000 -7.57311000  0.00000000
   7.03247000-10.09748000 -4.37234000
   7.03247000-17.67059000 -8.74468000
   7.03247000-12.62185000  0.00000000
   7.03247000-15.14622000 -4.37234000
   7.03247000 -7.57311000 -8.74468000
   7.03247000 -2.52437000  0.00000000
   7.03247000 -5.04874000 -4.37234000
   9.04019000-15.14622000-10.20212000
   9.04019000-10.09748000 -1.45745000
   9.04019000-12.62185000 -5.82978000
   9.04019000-20.19496000-10.20212000
   9.04019000-15.14622000 -1.45745000
   9.04019000-17.67059000 -5.82978000
   9.04019000-10.09748000-10.20212000
   9.04019000 -5.04874000 -1.45745000
   9.04019000 -7.57311000 -5.82978000
  11.04791000-17.67059000-11.65957000
  11.04791000-12.62185000 -2.91489000
  11.04791000-15.14622000 -7.28723000
  11.04791000 -7.57311000-11.65957000
  11.04791000 -2.52437000 -2.91489000
  11.04791000 -5.04874000 -7.28723000
  11.04791000-12.62185000-11.65957000
  11.04791000 -7.57311000 -2.91489000
  11.04791000-10.09748000 -7.28723000
  13.05800000-12.62185000  0.00000000
  13.05800000-15.14622000 -4.37234000
  13.05800000-17.67059000 -8.74468000
  13.05800000 -2.52437000  0.00000000
  13.05800000 -5.04874000 -4.37234000
  13.05800000 -7.57311000 -8.74468000
  13.05800000 -7.57311000  0.00000000
  13.05800000-10.09748000 -4.37234000
  13.05800000-12.62185000 -8.74468000
  15.05437000-15.14622000 -1.45745000
  15.05437000-17.67059000 -5.82978000
  15.05437000-20.19496000-10.20212000
  15.05437000 -5.04874000 -1.45745000
  15.05437000 -7.57311000 -5.82978000
  15.05437000-10.09748000-10.20212000
  15.05437000-10.09748000 -1.45745000
  15.05437000-12.62185000 -5.82978000
  15.05437000-15.14622000-10.20212000
   3.02601000 -8.83530000 -3.64361000
   3.02601000-11.35967000 -8.01595000
   3.02601000-13.88404000-12.38829000
   3.02601000-13.88404000 -3.64361000
   3.02601000-16.40841000 -8.01595000
   3.02601000-18.93278000-12.38829000
   3.02601000 -3.78656000 -3.64361000
   3.02601000 -6.31093000 -8.01595000
   3.02601000 -8.83530000-12.38829000
   5.02238000-11.35967000 -5.10106000
[...]
     11.04791     -7.57311     -7.28723         0.009878      0.001202     -0.000932
     11.04791    -15.14622    -11.65957         0.007115      0.000560      0.008907
     11.04791    -10.09748     -2.91489         0.008880     -0.000937      0.000916
     11.04791    -12.62185     -7.28723         0.009374     -0.008547     -0.005114
     13.05800      0.00000      0.00000         0.031279     -0.000652     -0.001101
     13.05800    -17.67059     -4.37234         0.027200      0.000489      0.001107
     13.05800    -20.19496     -8.74468         0.028714     -0.000732      0.000397
     13.05800     -5.04874      0.00000         0.027721      0.001682     -0.000049
     13.05800     -7.57311     -4.37234         0.022294      0.000914     -0.001232
     13.05800    -10.09748     -8.74468         0.028564      0.001175     -0.001443
     13.05800    -10.09748      0.00000         0.028569     -0.000437      0.000513
     13.05800    -12.62185     -4.37234         0.018409     -0.002058      0.001868
     13.05800    -15.14622     -8.74468         0.023081     -0.000313     -0.000666
     15.05437     -2.52437     -1.45745        -0.056803     -0.000640      0.000217
     15.05437     -5.04874     -5.82978        -0.057856     -0.002615      0.000030
     15.05437     -7.57311    -10.20212        -0.056534      0.000988      0.000593
     15.05437     -7.57311     -1.45745        -0.057060      0.000503     -0.002386
     15.05437    -10.09748     -5.82978        -0.048826      0.003253      0.001265
     15.05437    -12.62185    -10.20212        -0.054168     -0.005407      0.001971
     15.05437    -12.62185     -1.45745        -0.055659     -0.000656      0.000028
     15.05437    -15.14622     -5.82978        -0.054351     -0.000908     -0.005726
     15.05437    -17.67059    -10.20212        -0.051700      0.004350      0.003564
      3.02601     -6.31093     -3.64361        -0.013713      0.000064     -0.000452
      3.02601     -8.83530     -8.01595        -0.010963      0.004532     -0.001022
      3.02601    -11.35967    -12.38829        -0.012740     -0.001495      0.000011
      3.02601    -11.35967     -3.64361        -0.004840      0.000015      0.003866
      3.02601    -13.88404     -8.01595        -0.010484     -0.003634     -0.001747
      3.02601    -16.40841    -12.38829        -0.011070     -0.003770      0.002556
      3.02601    -16.40841     -3.64361        -0.014808      0.000088     -0.001439
      3.02601    -18.93278     -8.01595        -0.011238     -0.000763     -0.004994
      3.02601    -21.45715    -12.38829        -0.010775      0.005360      0.003435
      5.02238     -8.83530     -5.10106         0.037527      0.001296     -0.002445
      5.02238    -11.35967     -9.47340         0.037792      0.000060      0.000407
      5.02238     -6.31093     -0.72872         0.039728      0.000214      0.001647
      5.02238    -13.88404     -5.10106         0.037304     -0.000234     -0.000256
      5.02238    -16.40841     -9.47340         0.046208      0.002082      0.001326
      5.02238    -11.35967     -0.72872         0.046687     -0.000072     -0.003047
      5.02238     -3.78656     -5.10106         0.039878     -0.000643     -0.002388
      5.02238     -6.31093     -9.47340         0.046577     -0.002247      0.004179
      5.02238     -1.26219     -0.72872         0.041075     -0.000222     -0.000011
      7.03247    -11.35967     -6.55851         0.015482      0.000433     -0.000093
      7.03247    -13.88404    -10.93084         0.021203     -0.000737     -0.003511
      7.03247     -8.83530     -2.18617         0.021402      0.002104      0.002198
      7.03247    -16.40841     -6.55851         0.021105     -0.003449      0.000772
      7.03247    -18.93278    -10.93084         0.029062     -0.000079      0.000748
      7.03247    -13.88404     -2.18617         0.022695     -0.001473      0.001412
      7.03247     -6.31093     -6.55851         0.019603      0.003117      0.000158
      7.03247     -8.83530    -10.93084         0.021630      0.000702     -0.002010
      7.03247     -3.78656     -2.18617         0.030097     -0.000343     -0.000156
      9.04019    -13.88404     -8.01595        -0.034434      0.003988      0.001945
      9.04019    -16.40841    -12.38829        -0.033286      0.003510     -0.001686
      9.04019    -11.35967     -3.64361        -0.028014     -0.000374     -0.004193
      9.04019    -18.93278     -8.01595        -0.032864     -0.000116      0.003698
      9.04019    -21.45715    -12.38829        -0.033546     -0.002957     -0.002188
      9.04019    -16.40841     -3.64361        -0.032456     -0.000142     -0.000509
      9.04019     -8.83530     -8.01595        -0.034138     -0.003937      0.002777
      9.04019    -11.35967    -12.38829        -0.032983     -0.000666     -0.000150
      9.04019     -6.31093     -3.64361        -0.032683      0.000821     -0.000382
     11.04791    -16.40841     -9.47340         0.008625     -0.000089      0.000589
     11.04791    -11.35967     -0.72872         0.007585     -0.000009     -0.001183
     11.04791    -13.88404     -5.10106         0.009660     -0.000445      0.000564
     11.04791     -6.31093     -9.47340         0.009345      0.000057      0.001579
     11.04791     -1.26219     -0.72872         0.006660     -0.008937     -0.005556
     11.04791     -3.78656     -5.10106         0.007466     -0.000060      0.009530
     11.04791    -11.35967     -9.47340         0.009349     -0.000252      0.000185
     11.04791     -6.31093     -0.72872         0.006958      0.009315     -0.004962
     11.04791     -8.83530     -5.10106         0.009707      0.000662     -0.000761
     13.05800    -18.93278    -10.93084         0.021198      0.000340      0.002185
     13.05800    -13.88404     -2.18617         0.027773      0.000424     -0.003235
     13.05800    -16.40841     -6.55851         0.028341      0.000123      0.000109
     13.05800     -8.83530    -10.93084         0.028477     -0.001559      0.002514
     13.05800     -3.78656     -2.18617         0.019524     -0.000534      0.000331
     13.05800     -6.31093     -6.55851         0.028374     -0.000554     -0.000695
     13.05800    -13.88404    -10.93084         0.027914      0.001435      0.000777
     13.05800     -8.83530     -2.18617         0.027999      0.000111     -0.001294
     13.05800    -11.35967     -6.55851         0.017797      0.000417     -0.000080
     15.05437    -21.45715    -12.38829        -0.059714      0.002596      0.001983
     15.05437    -16.40841     -3.64361        -0.054991     -0.004689      0.001564
     15.05437    -18.93278     -8.01595        -0.056370     -0.000527     -0.002178
     15.05437    -11.35967    -12.38829        -0.055383     -0.001264     -0.005633
     15.05437     -6.31093     -3.64361        -0.055200      0.004745      0.001845
     15.05437     -8.83530     -8.01595        -0.055029      0.000741      0.000998
     15.05437    -16.40841    -12.38829        -0.055577     -0.001745      0.001735
     15.05437    -11.35967     -3.64361        -0.050512      0.000223     -0.000772
     15.05437    -13.88404     -8.01595        -0.056852     -0.000304     -0.000129
      3.02601     -7.57311     -5.82978        -0.015817     -0.000773     -0.002712
      3.02601    -10.09748    -10.20212        -0.011940      0.000661      0.002368
      3.02601     -5.04874     -1.45745        -0.008904      0.003046     -0.001175
      3.02601    -12.62185     -5.82978        -0.007715     -0.003505      0.001373
      3.02601    -15.14622    -10.20212        -0.009799     -0.000213      0.004441
      3.02601    -10.09748     -1.45745        -0.009508     -0.004598     -0.001556
      3.02601    -17.67059     -5.82978        -0.010067      0.003372      0.000786
      3.02601    -20.19496    -10.20212        -0.015997      0.000108      0.000722
      3.02601    -15.14622     -1.45745        -0.010003      0.001116     -0.003848
      5.02238    -10.09748     -7.28723         0.036101      0.000191     -0.000351
      5.02238    -12.62185    -11.65957         0.038878      0.001284      0.000633
      5.02238     -7.57311     -2.91489         0.037637     -0.000091     -0.001442
      5.02238    -15.14622     -7.28723         0.046275      0.001974     -0.002265
      5.02238    -17.67059    -11.65957         0.036542     -0.002423      0.000841
      5.02238    -12.62185     -2.91489         0.047451      0.002678      0.000679
      5.02238     -5.04874     -7.28723         0.038385     -0.001075     -0.001120
      5.02238     -7.57311    -11.65957         0.039800      0.001080      0.001016
      5.02238     -2.52437     -2.91489         0.049234     -0.003116      0.001822
      7.03247    -12.62185     -8.74468         0.019437      0.003122      0.002549
      7.03247     -7.57311      0.00000         0.031314      0.000685      0.000203
      7.03247    -10.09748     -4.37234         0.012937     -0.002067     -0.003529
      7.03247    -17.67059     -8.74468         0.020875     -0.002818      0.001945
      7.03247    -12.62185      0.00000         0.021688     -0.003615      0.000328
      7.03247    -15.14622     -4.37234         0.030592      0.000540      0.000360
      7.03247     -7.57311     -8.74468         0.026224     -0.000406      0.000190
      7.03247     -2.52437      0.00000         0.023144      0.002767      0.000715
      7.03247     -5.04874     -4.37234         0.022769      0.001359     -0.002639
      9.04019    -15.14622    -10.20212        -0.033482      0.001003     -0.005522
      9.04019    -10.09748     -1.45745        -0.033656      0.003239      0.002170
      9.04019    -12.62185     -5.82978        -0.027467      0.002551     -0.001174
      9.04019    -20.19496    -10.20212        -0.032722      0.000326     -0.000861
      9.04019    -15.14622     -1.45745        -0.033221     -0.000289      0.002872
      9.04019    -17.67059     -5.82978        -0.033365     -0.002659     -0.000051
      9.04019    -10.09748    -10.20212        -0.033168     -0.000819     -0.000379
      9.04019     -5.04874     -1.45745        -0.033258     -0.003202      0.002692
      9.04019     -7.57311     -5.82978        -0.033144     -0.000098      0.000178
     11.04791    -17.67059    -11.65957         0.007602     -0.000455      0.000222
     11.04791    -12.62185     -2.91489         0.008940     -0.000497      0.000239
     11.04791    -15.14622     -7.28723         0.008715      0.000255     -0.000100
     11.04791     -7.57311    -11.65957         0.007219     -0.000675      0.008361
     11.04791     -2.52437     -2.91489         0.007747     -0.000844      0.001639
     11.04791     -5.04874     -7.28723         0.008799     -0.008305     -0.004899
     11.04791    -12.62185    -11.65957         0.008641      0.000585     -0.001117
     11.04791     -7.57311     -2.91489         0.008432      0.000752      0.000866
     11.04791    -10.09748     -7.28723         0.009520      0.008576     -0.005328
     13.05800    -12.62185      0.00000         0.028149      0.000520     -0.000916
     13.05800    -15.14622     -4.37234         0.021137      0.001327      0.001007
     13.05800    -17.67059     -8.74468         0.028756     -0.000447     -0.000856
     13.05800     -2.52437      0.00000         0.027000     -0.002780     -0.000046
     13.05800     -5.04874     -4.37234         0.027477     -0.000504      0.000517
     13.05800     -7.57311     -8.74468         0.022691      0.000000      0.001269
     13.05800     -7.57311      0.00000         0.031581      0.001583      0.000446
     13.05800    -10.09748     -4.37234         0.019140     -0.000638      0.000153
     13.05800    -12.62185     -8.74468         0.027637      0.000654     -0.002001
     15.05437    -15.14622     -1.45745        -0.059547      0.000435     -0.002961
     15.05437    -17.67059     -5.82978        -0.059023      0.002354      0.000580
     15.05437    -20.19496    -10.20212        -0.052998     -0.005472      0.003511
     15.05437     -5.04874     -1.45745        -0.056719     -0.000370      0.001404
     15.05437     -7.57311     -5.82978        -0.052693     -0.000097     -0.006646
     15.05437    -10.09748    -10.20212        -0.054219      0.004917      0.003009
     15.05437    -10.09748     -1.45745        -0.054777      0.000057     -0.000613
     15.05437    -12.62185     -5.82978        -0.050096     -0.002387      0.001719
     15.05437    -15.14622    -10.20212        -0.055289      0.000551     -0.000402
      3.02601     -8.83530     -3.64361        -0.014172     -0.000831     -0.001046
      3.02601    -11.35967     -8.01595        -0.007581      0.000516     -0.003594
      3.02601    -13.88404    -12.38829        -0.010340      0.003692      0.001988
      3.02601    -13.88404     -3.64361        -0.017098      0.001114     -0.001004
      3.02601    -16.40841     -8.01595        -0.009535      0.003178     -0.001940
      3.02601    -18.93278    -12.38829        -0.017672     -0.000577      0.001138
      3.02601     -3.78656     -3.64361        -0.006100      0.000246      0.003400
      3.02601     -6.31093     -8.01595        -0.012973     -0.003762     -0.002692
      3.02601     -8.83530    -12.38829        -0.007498     -0.002920      0.002581
      5.02238    -11.35967     -5.10106         0.033988     -0.000776     -0.002608
      5.02238    -13.88404     -9.47340         0.046791     -0.001394      0.002738
      5.02238     -8.83530     -0.72872         0.038422      0.000379      0.001219
      5.02238    -16.40841     -5.10106         0.037975      0.002183      0.000428
      5.02238    -18.93278     -9.47340         0.036109     -0.002250     -0.001067
      5.02238    -13.88404     -0.72872         0.039645      0.000327      0.000235
      5.02238     -6.31093     -5.10106         0.037854     -0.001531     -0.002566
      5.02238     -8.83530     -9.47340         0.047225      0.003587      0.004837
      5.02238     -3.78656     -0.72872         0.049918     -0.000432     -0.003100
      7.03247    -13.88404     -6.55851         0.019592      0.003848      0.001512
      7.03247    -16.40841    -10.93084         0.021668      0.000836     -0.002841
      7.03247    -11.35967     -2.18617         0.028784     -0.001461     -0.000843
      7.03247     -3.78656     -6.55851         0.029693     -0.000826      0.000198
      7.03247     -6.31093    -10.93084         0.020870     -0.001452     -0.002186
      7.03247     -1.26219     -2.18617         0.023588      0.002140      0.002236
      7.03247     -8.83530     -6.55851         0.018760     -0.003051     -0.001040
      7.03247    -11.35967    -10.93084         0.029938      0.000325     -0.000049
      7.03247     -6.31093     -2.18617         0.022895     -0.000427      0.002323
      9.04019    -16.40841     -8.01595        -0.033237     -0.004020      0.003382
      9.04019    -18.93278    -12.38829        -0.032738     -0.000885      0.000704
      9.04019    -13.88404     -3.64361        -0.032682     -0.001036      0.000008
      9.04019     -6.31093     -8.01595        -0.033752      0.003380      0.002298
      9.04019     -8.83530    -12.38829        -0.033321      0.002808     -0.002596
      9.04019     -3.78656     -3.64361        -0.033335      0.000747     -0.004280
      9.04019    -11.35967     -8.01595        -0.028990      0.000634      0.003132
      9.04019    -13.88404    -12.38829        -0.033830     -0.001773     -0.002113
      9.04019     -8.83530     -3.64361        -0.032949      0.000445     -0.000979
     11.04791    -18.93278     -9.47340         0.008605     -0.001044      0.000975
     11.04791    -13.88404     -0.72872         0.006894      0.006686     -0.005725
     11.04791    -16.40841     -5.10106         0.008258     -0.000249      0.001163
     11.04791     -8.83530     -9.47340         0.009148      0.000948      0.000946
     11.04791     -3.78656     -0.72872         0.008185      0.000705     -0.001737
     11.04791     -6.31093     -5.10106         0.009099      0.001552     -0.001281
     11.04791    -13.88404     -9.47340         0.009023      0.000226      0.000327
     11.04791     -8.83530     -0.72872         0.007045     -0.007571     -0.004759
     11.04791    -11.35967     -5.10106         0.011089     -0.001012      0.009313
     13.05800     -6.31093    -10.93084         0.028766      0.000312      0.002990
     13.05800     -1.26219     -2.18617         0.026255     -0.000157     -0.001713
     13.05800     -3.78656     -6.55851         0.032180     -0.000890     -0.000737
     13.05800    -11.35967    -10.93084         0.021736     -0.000203      0.000110
     13.05800     -6.31093     -2.18617         0.027791      0.002118     -0.000809
     13.05800     -8.83530     -6.55851         0.027603      0.001923     -0.001564
     13.05800    -16.40841    -10.93084         0.028991     -0.000487      0.002219
     13.05800    -11.35967     -2.18617         0.022157     -0.001416     -0.001699
     13.05800    -13.88404     -6.55851         0.027313     -0.000827      0.001372
     15.05437     -8.83530    -12.38829        -0.059622     -0.002176      0.001658
     15.05437     -3.78656     -3.64361        -0.057031      0.000272     -0.001238
     15.05437     -6.31093     -8.01595        -0.053787     -0.000059      0.000452
     15.05437    -13.88404    -12.38829        -0.057431      0.003054      0.001646
     15.05437     -8.83530     -3.64361        -0.052156     -0.005187      0.001667
     15.05437    -11.35967     -8.01595        -0.052207      0.000397     -0.002672
     15.05437    -18.93278    -12.38829        -0.053693     -0.000712     -0.005068
     15.05437    -13.88404     -3.64361        -0.052894      0.004825      0.002565
     15.05437    -16.40841     -8.01595        -0.055408     -0.000634      0.000879
     21.05000    -11.36000     -5.10000        -0.005872      0.007103    -14.846862
     21.05000    -11.36000     -6.56000         0.006313     -0.006224     14.853036
 -----------------------------------------------------------------------------------
    total drift:                               -0.315235      0.000912      0.006261


--------------------------------------------------------------------------------------------------------



  FREE ENERGIE OF THE ION-ELECTRON SYSTEM (eV)
  ---------------------------------------------------
  free  energy   TOTEN  =     -1301.10484772 eV

  energy  without entropy=    -1299.71487049  energy(sigma->0) =    -1300.40985910
 


--------------------------------------------------------------------------------------------------------


    POTLOK:  cpu time    0.6454: real time    0.6465


--------------------------------------------------------------------------------------------------------


     LOOP+:  cpu time 6763.5802: real time 7396.0925
    4ORBIT:  cpu time    0.0000: real time    0.0000

 total amount of memory used by VASP MPI-rank0  1418762. kBytes
=======================================================================

   base      :      30000. kBytes
   nonlr-proj:      91262. kBytes
   fftplans  :      25882. kBytes
   grid      :      60674. kBytes
   one-center:       7620. kBytes
   wavefun   :    1203324. kBytes
 
  
  
 General timing and accounting informations for this job:
 ========================================================
  
                  Total CPU time used (sec):     6814.937
                            User time (sec):     1750.113
                          System time (sec):     5064.824
                         Elapsed time (sec):     7451.598
  
                   Maximum memory used (kb):     1816020.
                   Average memory used (kb):           0.
  
                          Minor page faults:    150529385
                          Major page faults:           38
                 Voluntary context switches:        94532
