  10  10   0   0
  0.3048625E+03  0.1450000E-08  0.1450000E-08  0.1450000E-08  0.1000000E-14
   600.000000000000     
  CAR 
 NiAl                                    
      1.17508542    -28.93117377  301     -8.85406217      1.00000000
    -28.931  0.0000E+00  0.0000E+00
    -28.831  0.0000E+00  0.0000E+00
    -28.730  0.0000E+00  0.0000E+00
    -28.630  0.0000E+00  0.0000E+00
    -28.530  0.0000E+00  0.0000E+00
    -28.429  0.0000E+00  0.0000E+00
    -28.329  0.0000E+00  0.0000E+00
    -28.229  0.0000E+00  0.0000E+00
    -28.128  0.0000E+00  0.0000E+00
    -28.028  0.0000E+00  0.0000E+00
    -27.928  0.0000E+00  0.0000E+00
    -27.827  0.7224E-12  0.7250E-13
    -27.727  0.3393E-04  0.3405E-05
    -27.627  0.7062E+00  0.7087E-01
    -27.526  0.1621E+02  0.1698E+01
    -27.426  0.3008E+01  0.2000E+01
    -27.326  0.1082E-02  0.2000E+01
    -27.225  0.1952E-09  0.2000E+01
    -27.125  0.1145E-11  0.2000E+01
    -27.024  0.4544E-04  0.2000E+01
    -26.924  0.8059E+00  0.2081E+01
    -26.824  0.1639E+02  0.3726E+01
    -26.723  0.4246E+01  0.4152E+01
    -26.623  0.1770E+02  0.5928E+01
    -26.523  0.1808E+02  0.7743E+01
    -26.422  0.2561E+01  0.8000E+01
    -26.322  0.7110E-03  0.8000E+01
    -26.222  0.8759E-02  0.8001E+01
    -26.121  0.6223E+01  0.8625E+01
    -26.021  0.1351E+02  0.9981E+01
    -25.921  0.1869E+00  0.1000E+02
    -25.820  0.2110E-05  0.1000E+02
    -25.720  0.8850E-14  0.1000E+02
    -25.619  0.0000E+00  0.1000E+02
    -25.519  0.0000E+00  0.1000E+02
    -25.419  0.0000E+00  0.1000E+02
    -25.318  0.0000E+00  0.1000E+02
    -25.218  0.0000E+00  0.1000E+02
    -25.118  0.0000E+00  0.1000E+02
    -25.017  0.0000E+00  0.1000E+02
    -24.917  0.0000E+00  0.1000E+02
    -24.817  0.0000E+00  0.1000E+02
    -24.716  0.0000E+00  0.1000E+02
    -24.616  0.0000E+00  0.1000E+02
    -24.516  0.0000E+00  0.1000E+02
    -24.415  0.0000E+00  0.1000E+02
    -24.315  0.0000E+00  0.1000E+02
    -24.215  0.0000E+00  0.1000E+02
    -24.114  0.0000E+00  0.1000E+02
    -24.014  0.0000E+00  0.1000E+02
    -23.913  0.0000E+00  0.1000E+02
    -23.813  0.0000E+00  0.1000E+02
    -23.713  0.0000E+00  0.1000E+02
    -23.612  0.0000E+00  0.1000E+02
    -23.512  0.0000E+00  0.1000E+02
    -23.412  0.0000E+00  0.1000E+02
    -23.311  0.0000E+00  0.1000E+02
    -23.211  0.0000E+00  0.1000E+02
    -23.111  0.0000E+00  0.1000E+02
    -23.010  0.0000E+00  0.1000E+02
    -22.910  0.0000E+00  0.1000E+02
    -22.810  0.0000E+00  0.1000E+02
    -22.709  0.0000E+00  0.1000E+02
    -22.609  0.0000E+00  0.1000E+02
    -22.509  0.0000E+00  0.1000E+02
    -22.408  0.0000E+00  0.1000E+02
    -22.308  0.0000E+00  0.1000E+02
    -22.207  0.0000E+00  0.1000E+02
    -22.107  0.0000E+00  0.1000E+02
    -22.007  0.0000E+00  0.1000E+02
    -21.906  0.0000E+00  0.1000E+02
    -21.806  0.0000E+00  0.1000E+02
    -21.706  0.0000E+00  0.1000E+02
    -21.605  0.0000E+00  0.1000E+02
    -21.505  0.0000E+00  0.1000E+02
    -21.405  0.0000E+00  0.1000E+02
    -21.304  0.0000E+00  0.1000E+02
    -21.204  0.0000E+00  0.1000E+02
    -21.104  0.0000E+00  0.1000E+02
    -21.003  0.0000E+00  0.1000E+02
    -20.903  0.0000E+00  0.1000E+02
    -20.802  0.0000E+00  0.1000E+02
    -20.702  0.0000E+00  0.1000E+02
    -20.602  0.0000E+00  0.1000E+02
    -20.501  0.0000E+00  0.1000E+02
    -20.401  0.0000E+00  0.1000E+02
    -20.301  0.0000E+00  0.1000E+02
    -20.200  0.0000E+00  0.1000E+02
    -20.100  0.0000E+00  0.1000E+02
    -20.000  0.0000E+00  0.1000E+02
    -19.899  0.0000E+00  0.1000E+02
    -19.799  0.0000E+00  0.1000E+02
    -19.699  0.0000E+00  0.1000E+02
    -19.598  0.0000E+00  0.1000E+02
    -19.498  0.0000E+00  0.1000E+02
    -19.398  0.0000E+00  0.1000E+02
    -19.297  0.0000E+00  0.1000E+02
    -19.197  0.0000E+00  0.1000E+02
    -19.096  0.0000E+00  0.1000E+02
    -18.996  0.0000E+00  0.1000E+02
    -18.896  0.0000E+00  0.1000E+02
    -18.795  0.0000E+00  0.1000E+02
    -18.695  0.0000E+00  0.1000E+02
    -18.595  0.0000E+00  0.1000E+02
    -18.494  0.0000E+00  0.1000E+02
    -18.394  0.0000E+00  0.1000E+02
    -18.294  0.0000E+00  0.1000E+02
    -18.193  0.0000E+00  0.1000E+02
    -18.093  0.0000E+00  0.1000E+02
    -17.993  0.0000E+00  0.1000E+02
    -17.892  0.0000E+00  0.1000E+02
    -17.792  0.0000E+00  0.1000E+02
    -17.692  0.0000E+00  0.1000E+02
    -17.591  0.0000E+00  0.1000E+02
    -17.491  0.0000E+00  0.1000E+02
    -17.390  0.0000E+00  0.1000E+02
    -17.290  0.0000E+00  0.1000E+02
    -17.190  0.0000E+00  0.1000E+02
    -17.089  0.0000E+00  0.1000E+02
    -16.989  0.0000E+00  0.1000E+02
    -16.889  0.0000E+00  0.1000E+02
    -16.788  0.0000E+00  0.1000E+02
    -16.688  0.0000E+00  0.1000E+02
    -16.588  0.0000E+00  0.1000E+02
    -16.487  0.0000E+00  0.1000E+02
    -16.387  0.0000E+00  0.1000E+02
    -16.287  0.0000E+00  0.1000E+02
    -16.186  0.0000E+00  0.1000E+02
    -16.086  0.0000E+00  0.1000E+02
    -15.985  0.0000E+00  0.1000E+02
    -15.885  0.0000E+00  0.1000E+02
    -15.785  0.0000E+00  0.1000E+02
    -15.684  0.0000E+00  0.1000E+02
    -15.584  0.0000E+00  0.1000E+02
    -15.484  0.0000E+00  0.1000E+02
    -15.383  0.0000E+00  0.1000E+02
    -15.283  0.0000E+00  0.1000E+02
    -15.183  0.0000E+00  0.1000E+02
    -15.082  0.0000E+00  0.1000E+02
    -14.982  0.4425E-14  0.1000E+02
    -14.882  0.1302E-05  0.1000E+02
    -14.781  0.1466E+00  0.1001E+02
    -14.681  0.1291E+02  0.1131E+02
    -14.581  0.6863E+01  0.1200E+02
    -14.480  0.1202E-01  0.1200E+02
    -14.380  0.1490E-07  0.1200E+02
    -14.279  0.5095E-02  0.1200E+02
    -14.179  0.6457E+01  0.1265E+02
    -14.079  0.3194E+02  0.1585E+02
    -13.978  0.1834E+02  0.1769E+02
    -13.878  0.3047E+01  0.1800E+02
    -13.778  0.4362E+00  0.1804E+02
    -13.677  0.1539E+02  0.1959E+02
    -13.577  0.4098E+01  0.2000E+02
    -13.477  0.2517E-02  0.2000E+02
    -13.376  0.8107E-09  0.2000E+02
    -13.276  0.0000E+00  0.2000E+02
    -13.176  0.0000E+00  0.2000E+02
    -13.075  0.0000E+00  0.2000E+02
    -12.975  0.0000E+00  0.2000E+02
    -12.875  0.0000E+00  0.2000E+02
    -12.774  0.0000E+00  0.2000E+02
    -12.674  0.0000E+00  0.2000E+02
    -12.573  0.0000E+00  0.2000E+02
    -12.473  0.0000E+00  0.2000E+02
    -12.373  0.0000E+00  0.2000E+02
    -12.272  0.0000E+00  0.2000E+02
    -12.172  0.0000E+00  0.2000E+02
    -12.072  0.0000E+00  0.2000E+02
    -11.971  0.2213E-13  0.2000E+02
    -11.871  0.3532E-05  0.2000E+02
    -11.771  0.2414E+00  0.2002E+02
    -11.670  0.1412E+02  0.2144E+02
    -11.570  0.5560E+01  0.2200E+02
    -11.470  0.6242E-02  0.2200E+02
    -11.369  0.1035E+01  0.2210E+02
    -11.269  0.1665E+02  0.2377E+02
    -11.168  0.2247E+01  0.2400E+02
    -11.068  0.6324E+00  0.2406E+02
    -10.968  0.1605E+02  0.2567E+02
    -10.867  0.3249E+01  0.2600E+02
    -10.767  0.3743E+01  0.2638E+02
    -10.667  0.1626E+02  0.2801E+02
    -10.566  0.2590E+02  0.3061E+02
    -10.466  0.3315E+02  0.3393E+02
    -10.366  0.9195E+01  0.3486E+02
    -10.265  0.2465E+02  0.3733E+02
    -10.165  0.1558E+02  0.3889E+02
    -10.065  0.1095E+02  0.3999E+02
     -9.964  0.1005E+01  0.4009E+02
     -9.864  0.1719E+02  0.4182E+02
     -9.764  0.2650E+02  0.4448E+02
     -9.663  0.1507E+02  0.4599E+02
     -9.563  0.1420E+01  0.4613E+02
     -9.462  0.1680E+02  0.4782E+02
     -9.362  0.1808E+01  0.4800E+02
     -9.262  0.5668E-01  0.4801E+02
     -9.161  0.1048E+02  0.4906E+02
     -9.061  0.9361E+01  0.5000E+02
     -8.961  0.3602E-01  0.5000E+02
     -8.860  0.8979E-07  0.5000E+02
     -8.760  0.0000E+00  0.5000E+02
     -8.660  0.0000E+00  0.5000E+02
     -8.559  0.0000E+00  0.5000E+02
     -8.459  0.0000E+00  0.5000E+02
     -8.359  0.0000E+00  0.5000E+02
     -8.258  0.0000E+00  0.5000E+02
     -8.158  0.0000E+00  0.5000E+02
     -8.058  0.0000E+00  0.5000E+02
     -7.957  0.0000E+00  0.5000E+02
     -7.857  0.0000E+00  0.5000E+02
     -7.756  0.0000E+00  0.5000E+02
     -7.656  0.0000E+00  0.5000E+02
     -7.556  0.0000E+00  0.5000E+02
     -7.455  0.0000E+00  0.5000E+02
     -7.355  0.0000E+00  0.5000E+02
     -7.255  0.0000E+00  0.5000E+02
     -7.154  0.0000E+00  0.5000E+02
     -7.054  0.0000E+00  0.5000E+02
     -6.954  0.0000E+00  0.5000E+02
     -6.853  0.0000E+00  0.5000E+02
     -6.753  0.0000E+00  0.5000E+02
     -6.653  0.0000E+00  0.5000E+02
     -6.552  0.0000E+00  0.5000E+02
     -6.452  0.0000E+00  0.5000E+02
     -6.351  0.0000E+00  0.5000E+02
     -6.251  0.0000E+00  0.5000E+02
     -6.151  0.0000E+00  0.5000E+02
     -6.050  0.0000E+00  0.5000E+02
     -5.950  0.0000E+00  0.5000E+02
     -5.850  0.0000E+00  0.5000E+02
     -5.749  0.0000E+00  0.5000E+02
     -5.649  0.0000E+00  0.5000E+02
     -5.549  0.0000E+00  0.5000E+02
     -5.448  0.0000E+00  0.5000E+02
     -5.348  0.0000E+00  0.5000E+02
     -5.248  0.0000E+00  0.5000E+02
     -5.147  0.0000E+00  0.5000E+02
     -5.047  0.0000E+00  0.5000E+02
     -4.947  0.0000E+00  0.5000E+02
     -4.846  0.0000E+00  0.5000E+02
     -4.746  0.0000E+00  0.5000E+02
     -4.645  0.0000E+00  0.5000E+02
     -4.545  0.0000E+00  0.5000E+02
     -4.445  0.0000E+00  0.5000E+02
     -4.344  0.0000E+00  0.5000E+02
     -4.244  0.0000E+00  0.5000E+02
     -4.144  0.0000E+00  0.5000E+02
     -4.043  0.0000E+00  0.5000E+02
     -3.943  0.0000E+00  0.5000E+02
     -3.843  0.0000E+00  0.5000E+02
     -3.742  0.0000E+00  0.5000E+02
     -3.642  0.8435E-09  0.5000E+02
     -3.542  0.2576E-02  0.5000E+02
     -3.441  0.4132E+01  0.5041E+02
     -3.341  0.1649E+02  0.5207E+02
     -3.240  0.1714E+02  0.5379E+02
     -3.140  0.2089E+01  0.5400E+02
     -3.040  0.3296E-01  0.5400E+02
     -2.939  0.9493E+01  0.5496E+02
     -2.839  0.2873E+02  0.5784E+02
     -2.739  0.4144E+02  0.6200E+02
     -2.638  0.2221E+02  0.6423E+02
     -2.538  0.1688E+02  0.6592E+02
     -2.438  0.7863E+00  0.6600E+02
     -2.337  0.2468E-01  0.6600E+02
     -2.237  0.8452E+01  0.6685E+02
     -2.137  0.1137E+02  0.6799E+02
     -2.036  0.9772E-01  0.6800E+02
     -1.936  0.7680E+01  0.6877E+02
     -1.836  0.1212E+02  0.6999E+02
     -1.735  0.1076E+00  0.7000E+02
     -1.635  0.7110E-06  0.7000E+02
     -1.534  0.2213E-14  0.7000E+02
     -1.434  0.0000E+00  0.7000E+02
     -1.334  0.0000E+00  0.7000E+02
     -1.233  0.0000E+00  0.7000E+02
     -1.133  0.0000E+00  0.7000E+02
     -1.033  0.0000E+00  0.7000E+02
     -0.932  0.0000E+00  0.7000E+02
     -0.832  0.0000E+00  0.7000E+02
     -0.732  0.0000E+00  0.7000E+02
     -0.631  0.0000E+00  0.7000E+02
     -0.531  0.0000E+00  0.7000E+02
     -0.431  0.1952E-09  0.7000E+02
     -0.330  0.1082E-02  0.7000E+02
     -0.230  0.3008E+01  0.7030E+02
     -0.130  0.1621E+02  0.7193E+02
     -0.029  0.7062E+00  0.7200E+02
      0.071  0.3393E-04  0.7200E+02
      0.172  0.7213E-12  0.7200E+02
      0.272  0.0000E+00  0.7200E+02
      0.372  0.0000E+00  0.7200E+02
      0.473  0.0000E+00  0.7200E+02
      0.573  0.0000E+00  0.7200E+02
      0.673  0.0000E+00  0.7200E+02
      0.774  0.0000E+00  0.7200E+02
      0.874  0.0000E+00  0.7200E+02
      0.974  0.0000E+00  0.7200E+02
      1.075  0.0000E+00  0.7200E+02
      1.175  0.0000E+00  0.7200E+02
      1.22732154    -29.77218636  301     -9.40292638      1.00000000
    -29.772  0.0000E+00  0.0000E+00
    -29.669  0.0000E+00  0.0000E+00
    -29.566  0.0000E+00  0.0000E+00
    -29.462  0.0000E+00  0.0000E+00
    -29.359  0.0000E+00  0.0000E+00
    -29.256  0.0000E+00  0.0000E+00
    -29.152  0.0000E+00  0.0000E+00
    -29.049  0.0000E+00  0.0000E+00
    -28.946  0.0000E+00  0.0000E+00
    -28.842  0.0000E+00  0.0000E+00
    -28.739  0.0000E+00  0.0000E+00
    -28.636  0.1268E-12  0.1310E-13
    -28.532  0.1675E-04  0.1731E-05
    -28.429  0.6087E+00  0.6290E-01
    -28.326  0.1596E+02  0.1712E+01
    -28.222  0.2785E+01  0.2000E+01
    -28.119  0.6518E-03  0.2000E+01
    -28.016  0.4753E-10  0.2000E+01
    -27.912  0.0000E+00  0.2000E+01
    -27.809  0.4298E-14  0.2000E+01
    -27.706  0.1980E-05  0.2000E+01
    -27.602  0.2232E+00  0.2023E+01
    -27.499  0.1415E+02  0.3485E+01
    -27.396  0.9822E+01  0.4500E+01
    -27.292  0.4012E+02  0.8645E+01
    -27.189  0.1310E+02  0.9998E+01
    -27.086  0.1825E-01  0.1000E+02
    -26.982  0.1149E-07  0.1000E+02
    -26.879  0.0000E+00  0.1000E+02
    -26.776  0.0000E+00  0.1000E+02
    -26.672  0.0000E+00  0.1000E+02
    -26.569  0.0000E+00  0.1000E+02
    -26.466  0.0000E+00  0.1000E+02
    -26.362  0.0000E+00  0.1000E+02
    -26.259  0.0000E+00  0.1000E+02
    -26.156  0.0000E+00  0.1000E+02
    -26.052  0.0000E+00  0.1000E+02
    -25.949  0.0000E+00  0.1000E+02
    -25.846  0.0000E+00  0.1000E+02
    -25.742  0.0000E+00  0.1000E+02
    -25.639  0.0000E+00  0.1000E+02
    -25.536  0.0000E+00  0.1000E+02
    -25.432  0.0000E+00  0.1000E+02
    -25.329  0.0000E+00  0.1000E+02
    -25.226  0.0000E+00  0.1000E+02
    -25.122  0.0000E+00  0.1000E+02
    -25.019  0.0000E+00  0.1000E+02
    -24.916  0.0000E+00  0.1000E+02
    -24.812  0.0000E+00  0.1000E+02
    -24.709  0.0000E+00  0.1000E+02
    -24.606  0.0000E+00  0.1000E+02
    -24.502  0.0000E+00  0.1000E+02
    -24.399  0.0000E+00  0.1000E+02
    -24.296  0.0000E+00  0.1000E+02
    -24.192  0.0000E+00  0.1000E+02
    -24.089  0.0000E+00  0.1000E+02
    -23.986  0.0000E+00  0.1000E+02
    -23.882  0.0000E+00  0.1000E+02
    -23.779  0.0000E+00  0.1000E+02
    -23.676  0.0000E+00  0.1000E+02
    -23.572  0.0000E+00  0.1000E+02
    -23.469  0.0000E+00  0.1000E+02
    -23.366  0.0000E+00  0.1000E+02
    -23.262  0.0000E+00  0.1000E+02
    -23.159  0.0000E+00  0.1000E+02
    -23.056  0.0000E+00  0.1000E+02
    -22.952  0.0000E+00  0.1000E+02
    -22.849  0.0000E+00  0.1000E+02
    -22.746  0.0000E+00  0.1000E+02
    -22.642  0.0000E+00  0.1000E+02
    -22.539  0.0000E+00  0.1000E+02
    -22.436  0.0000E+00  0.1000E+02
    -22.332  0.0000E+00  0.1000E+02
    -22.229  0.0000E+00  0.1000E+02
    -22.126  0.0000E+00  0.1000E+02
    -22.022  0.0000E+00  0.1000E+02
    -21.919  0.0000E+00  0.1000E+02
    -21.816  0.0000E+00  0.1000E+02
    -21.712  0.0000E+00  0.1000E+02
    -21.609  0.0000E+00  0.1000E+02
    -21.506  0.0000E+00  0.1000E+02
    -21.402  0.0000E+00  0.1000E+02
    -21.299  0.0000E+00  0.1000E+02
    -21.196  0.0000E+00  0.1000E+02
    -21.092  0.0000E+00  0.1000E+02
    -20.989  0.0000E+00  0.1000E+02
    -20.886  0.0000E+00  0.1000E+02
    -20.782  0.0000E+00  0.1000E+02
    -20.679  0.0000E+00  0.1000E+02
    -20.576  0.0000E+00  0.1000E+02
    -20.472  0.0000E+00  0.1000E+02
    -20.369  0.0000E+00  0.1000E+02
    -20.266  0.0000E+00  0.1000E+02
    -20.162  0.0000E+00  0.1000E+02
    -20.059  0.0000E+00  0.1000E+02
    -19.956  0.0000E+00  0.1000E+02
    -19.852  0.0000E+00  0.1000E+02
    -19.749  0.0000E+00  0.1000E+02
    -19.646  0.0000E+00  0.1000E+02
    -19.542  0.0000E+00  0.1000E+02
    -19.439  0.0000E+00  0.1000E+02
    -19.336  0.0000E+00  0.1000E+02
    -19.232  0.0000E+00  0.1000E+02
    -19.129  0.0000E+00  0.1000E+02
    -19.026  0.0000E+00  0.1000E+02
    -18.922  0.0000E+00  0.1000E+02
    -18.819  0.0000E+00  0.1000E+02
    -18.716  0.0000E+00  0.1000E+02
    -18.612  0.0000E+00  0.1000E+02
    -18.509  0.0000E+00  0.1000E+02
    -18.406  0.0000E+00  0.1000E+02
    -18.302  0.0000E+00  0.1000E+02
    -18.199  0.0000E+00  0.1000E+02
    -18.096  0.0000E+00  0.1000E+02
    -17.992  0.0000E+00  0.1000E+02
    -17.889  0.0000E+00  0.1000E+02
    -17.786  0.0000E+00  0.1000E+02
    -17.682  0.0000E+00  0.1000E+02
    -17.579  0.0000E+00  0.1000E+02
    -17.476  0.0000E+00  0.1000E+02
    -17.372  0.0000E+00  0.1000E+02
    -17.269  0.0000E+00  0.1000E+02
    -17.166  0.0000E+00  0.1000E+02
    -17.062  0.0000E+00  0.1000E+02
    -16.959  0.0000E+00  0.1000E+02
    -16.856  0.0000E+00  0.1000E+02
    -16.752  0.0000E+00  0.1000E+02
    -16.649  0.0000E+00  0.1000E+02
    -16.546  0.0000E+00  0.1000E+02
    -16.442  0.0000E+00  0.1000E+02
    -16.339  0.0000E+00  0.1000E+02
    -16.236  0.0000E+00  0.1000E+02
    -16.132  0.0000E+00  0.1000E+02
    -16.029  0.0000E+00  0.1000E+02
    -15.926  0.0000E+00  0.1000E+02
    -15.822  0.0000E+00  0.1000E+02
    -15.719  0.0000E+00  0.1000E+02
    -15.616  0.0000E+00  0.1000E+02
    -15.512  0.0000E+00  0.1000E+02
    -15.409  0.0000E+00  0.1000E+02
    -15.306  0.0000E+00  0.1000E+02
    -15.202  0.0000E+00  0.1000E+02
    -15.099  0.0000E+00  0.1000E+02
    -14.996  0.0000E+00  0.1000E+02
    -14.892  0.0000E+00  0.1000E+02
    -14.789  0.0000E+00  0.1000E+02
    -14.686  0.0000E+00  0.1000E+02
    -14.582  0.0000E+00  0.1000E+02
    -14.479  0.0000E+00  0.1000E+02
    -14.376  0.0000E+00  0.1000E+02
    -14.272  0.0000E+00  0.1000E+02
    -14.169  0.4196E-09  0.1000E+02
    -14.066  0.2355E-02  0.1000E+02
    -13.962  0.4670E+01  0.1048E+02
    -13.859  0.2979E+02  0.1356E+02
    -13.756  0.3358E+02  0.1703E+02
    -13.652  0.9376E+01  0.1800E+02
    -13.549  0.1649E-01  0.1800E+02
    -13.446  0.6813E+01  0.1870E+02
    -13.342  0.1243E+02  0.1999E+02
    -13.239  0.1060E+00  0.2000E+02
    -13.136  0.4436E-06  0.2000E+02
    -13.032  0.0000E+00  0.2000E+02
    -12.929  0.0000E+00  0.2000E+02
    -12.826  0.0000E+00  0.2000E+02
    -12.722  0.0000E+00  0.2000E+02
    -12.619  0.0000E+00  0.2000E+02
    -12.516  0.0000E+00  0.2000E+02
    -12.412  0.0000E+00  0.2000E+02
    -12.309  0.0000E+00  0.2000E+02
    -12.206  0.0000E+00  0.2000E+02
    -12.102  0.0000E+00  0.2000E+02
    -11.999  0.0000E+00  0.2000E+02
    -11.896  0.2604E-06  0.2000E+02
    -11.792  0.8076E-01  0.2001E+02
    -11.689  0.1186E+02  0.2123E+02
    -11.586  0.1947E+02  0.2325E+02
    -11.482  0.7293E+01  0.2400E+02
    -11.379  0.1170E-01  0.2400E+02
    -11.276  0.2722E-01  0.2400E+02
    -11.172  0.9151E+01  0.2495E+02
    -11.069  0.1361E+02  0.2635E+02
    -10.966  0.2351E+02  0.2878E+02
    -10.862  0.6324E+02  0.3532E+02
    -10.759  0.2867E+02  0.3828E+02
    -10.656  0.1606E+02  0.3994E+02
    -10.552  0.5727E+00  0.4000E+02
    -10.449  0.1464E-04  0.4000E+02
    -10.346  0.1042E-12  0.4000E+02
    -10.242  0.8932E-06  0.4000E+02
    -10.139  0.1508E+00  0.4002E+02
    -10.036  0.1326E+02  0.4139E+02
     -9.933  0.7683E+01  0.4218E+02
     -9.829  0.2995E+02  0.4527E+02
     -9.726  0.2680E+02  0.4804E+02
     -9.623  0.1748E+02  0.4985E+02
     -9.519  0.1449E+01  0.5000E+02
     -9.416  0.1241E-03  0.5000E+02
     -9.313  0.3094E-11  0.5000E+02
     -9.209  0.0000E+00  0.5000E+02
     -9.106  0.0000E+00  0.5000E+02
     -9.003  0.0000E+00  0.5000E+02
     -8.899  0.0000E+00  0.5000E+02
     -8.796  0.0000E+00  0.5000E+02
     -8.693  0.0000E+00  0.5000E+02
     -8.589  0.0000E+00  0.5000E+02
     -8.486  0.0000E+00  0.5000E+02
     -8.383  0.0000E+00  0.5000E+02
     -8.279  0.0000E+00  0.5000E+02
     -8.176  0.0000E+00  0.5000E+02
     -8.073  0.0000E+00  0.5000E+02
     -7.969  0.0000E+00  0.5000E+02
     -7.866  0.0000E+00  0.5000E+02
     -7.763  0.0000E+00  0.5000E+02
     -7.659  0.0000E+00  0.5000E+02
     -7.556  0.0000E+00  0.5000E+02
     -7.453  0.0000E+00  0.5000E+02
     -7.349  0.0000E+00  0.5000E+02
     -7.246  0.0000E+00  0.5000E+02
     -7.143  0.0000E+00  0.5000E+02
     -7.039  0.0000E+00  0.5000E+02
     -6.936  0.0000E+00  0.5000E+02
     -6.833  0.0000E+00  0.5000E+02
     -6.729  0.0000E+00  0.5000E+02
     -6.626  0.0000E+00  0.5000E+02
     -6.523  0.0000E+00  0.5000E+02
     -6.419  0.0000E+00  0.5000E+02
     -6.316  0.0000E+00  0.5000E+02
     -6.213  0.0000E+00  0.5000E+02
     -6.109  0.0000E+00  0.5000E+02
     -6.006  0.0000E+00  0.5000E+02
     -5.903  0.0000E+00  0.5000E+02
     -5.799  0.0000E+00  0.5000E+02
     -5.696  0.0000E+00  0.5000E+02
     -5.593  0.0000E+00  0.5000E+02
     -5.489  0.0000E+00  0.5000E+02
     -5.386  0.0000E+00  0.5000E+02
     -5.283  0.0000E+00  0.5000E+02
     -5.179  0.0000E+00  0.5000E+02
     -5.076  0.0000E+00  0.5000E+02
     -4.973  0.0000E+00  0.5000E+02
     -4.869  0.0000E+00  0.5000E+02
     -4.766  0.0000E+00  0.5000E+02
     -4.663  0.0000E+00  0.5000E+02
     -4.559  0.0000E+00  0.5000E+02
     -4.456  0.0000E+00  0.5000E+02
     -4.353  0.0000E+00  0.5000E+02
     -4.249  0.0000E+00  0.5000E+02
     -4.146  0.0000E+00  0.5000E+02
     -4.043  0.0000E+00  0.5000E+02
     -3.939  0.0000E+00  0.5000E+02
     -3.836  0.0000E+00  0.5000E+02
     -3.733  0.0000E+00  0.5000E+02
     -3.629  0.0000E+00  0.5000E+02
     -3.526  0.0000E+00  0.5000E+02
     -3.423  0.0000E+00  0.5000E+02
     -3.319  0.0000E+00  0.5000E+02
     -3.216  0.0000E+00  0.5000E+02
     -3.113  0.0000E+00  0.5000E+02
     -3.009  0.0000E+00  0.5000E+02
     -2.906  0.1762E-12  0.5000E+02
     -2.803  0.2065E-04  0.5000E+02
     -2.699  0.6702E+00  0.5007E+02
     -2.596  0.2000E+02  0.5214E+02
     -2.493  0.3264E+02  0.5551E+02
     -2.389  0.2532E+02  0.5812E+02
     -2.286  0.5218E+02  0.6352E+02
     -2.183  0.2219E+02  0.6581E+02
     -2.079  0.1845E+01  0.6600E+02
     -1.976  0.2245E-03  0.6600E+02
     -1.873  0.1914E-01  0.6600E+02
     -1.769  0.8345E+01  0.6686E+02
     -1.666  0.1117E+02  0.6802E+02
     -1.563  0.1429E+02  0.6949E+02
     -1.459  0.4887E+01  0.7000E+02
     -1.356  0.3215E-02  0.7000E+02
     -1.253  0.7201E-09  0.7000E+02
     -1.149  0.0000E+00  0.7000E+02
     -1.046  0.0000E+00  0.7000E+02
     -0.943  0.0000E+00  0.7000E+02
     -0.839  0.0000E+00  0.7000E+02
     -0.736  0.0000E+00  0.7000E+02
     -0.633  0.0000E+00  0.7000E+02
     -0.529  0.0000E+00  0.7000E+02
     -0.426  0.4753E-10  0.7000E+02
     -0.323  0.6518E-03  0.7000E+02
     -0.219  0.2785E+01  0.7029E+02
     -0.116  0.1596E+02  0.7194E+02
     -0.013  0.6087E+00  0.7200E+02
      0.091  0.1675E-04  0.7200E+02
      0.194  0.1268E-12  0.7200E+02
      0.297  0.0000E+00  0.7200E+02
      0.401  0.0000E+00  0.7200E+02
      0.504  0.0000E+00  0.7200E+02
      0.607  0.0000E+00  0.7200E+02
      0.711  0.0000E+00  0.7200E+02
      0.814  0.0000E+00  0.7200E+02
      0.917  0.0000E+00  0.7200E+02
      1.021  0.0000E+00  0.7200E+02
      1.124  0.0000E+00  0.7200E+02
      1.227  0.0000E+00  0.7200E+02
      1.23103357    -29.87836723  301     -9.54059646      1.00000000
    -29.878  0.0000E+00  0.0000E+00
    -29.775  0.0000E+00  0.0000E+00
    -29.671  0.0000E+00  0.0000E+00
    -29.567  0.0000E+00  0.0000E+00
    -29.464  0.0000E+00  0.0000E+00
    -29.360  0.0000E+00  0.0000E+00
    -29.256  0.0000E+00  0.0000E+00
    -29.152  0.0000E+00  0.0000E+00
    -29.049  0.0000E+00  0.0000E+00
    -28.945  0.0000E+00  0.0000E+00
    -28.841  0.0000E+00  0.0000E+00
    -28.738  0.1017E-12  0.1055E-13
    -28.634  0.1534E-04  0.1591E-05
    -28.530  0.5984E+00  0.6205E-01
    -28.427  0.1890E+02  0.2022E+01
    -28.323  0.2732E+02  0.4855E+01
    -28.219  0.2963E+02  0.7928E+01
    -28.116  0.6937E+00  0.8000E+01
    -28.012  0.1324E-04  0.8000E+01
    -27.908  0.5201E-02  0.8001E+01
    -27.804  0.5761E+01  0.8598E+01
    -27.701  0.1337E+02  0.9984E+01
    -27.597  0.1557E+00  0.1000E+02
    -27.493  0.9030E-06  0.1000E+02
    -27.390  0.0000E+00  0.1000E+02
    -27.286  0.0000E+00  0.1000E+02
    -27.182  0.0000E+00  0.1000E+02
    -27.079  0.0000E+00  0.1000E+02
    -26.975  0.0000E+00  0.1000E+02
    -26.871  0.0000E+00  0.1000E+02
    -26.767  0.0000E+00  0.1000E+02
    -26.664  0.0000E+00  0.1000E+02
    -26.560  0.0000E+00  0.1000E+02
    -26.456  0.0000E+00  0.1000E+02
    -26.353  0.0000E+00  0.1000E+02
    -26.249  0.0000E+00  0.1000E+02
    -26.145  0.0000E+00  0.1000E+02
    -26.042  0.0000E+00  0.1000E+02
    -25.938  0.0000E+00  0.1000E+02
    -25.834  0.0000E+00  0.1000E+02
    -25.730  0.0000E+00  0.1000E+02
    -25.627  0.0000E+00  0.1000E+02
    -25.523  0.0000E+00  0.1000E+02
    -25.419  0.0000E+00  0.1000E+02
    -25.316  0.0000E+00  0.1000E+02
    -25.212  0.0000E+00  0.1000E+02
    -25.108  0.0000E+00  0.1000E+02
    -25.005  0.0000E+00  0.1000E+02
    -24.901  0.0000E+00  0.1000E+02
    -24.797  0.0000E+00  0.1000E+02
    -24.693  0.0000E+00  0.1000E+02
    -24.590  0.0000E+00  0.1000E+02
    -24.486  0.0000E+00  0.1000E+02
    -24.382  0.0000E+00  0.1000E+02
    -24.279  0.0000E+00  0.1000E+02
    -24.175  0.0000E+00  0.1000E+02
    -24.071  0.0000E+00  0.1000E+02
    -23.968  0.0000E+00  0.1000E+02
    -23.864  0.0000E+00  0.1000E+02
    -23.760  0.0000E+00  0.1000E+02
    -23.656  0.0000E+00  0.1000E+02
    -23.553  0.0000E+00  0.1000E+02
    -23.449  0.0000E+00  0.1000E+02
    -23.345  0.0000E+00  0.1000E+02
    -23.242  0.0000E+00  0.1000E+02
    -23.138  0.0000E+00  0.1000E+02
    -23.034  0.0000E+00  0.1000E+02
    -22.931  0.0000E+00  0.1000E+02
    -22.827  0.0000E+00  0.1000E+02
    -22.723  0.0000E+00  0.1000E+02
    -22.620  0.0000E+00  0.1000E+02
    -22.516  0.0000E+00  0.1000E+02
    -22.412  0.0000E+00  0.1000E+02
    -22.308  0.0000E+00  0.1000E+02
    -22.205  0.0000E+00  0.1000E+02
    -22.101  0.0000E+00  0.1000E+02
    -21.997  0.0000E+00  0.1000E+02
    -21.894  0.0000E+00  0.1000E+02
    -21.790  0.0000E+00  0.1000E+02
    -21.686  0.0000E+00  0.1000E+02
    -21.583  0.0000E+00  0.1000E+02
    -21.479  0.0000E+00  0.1000E+02
    -21.375  0.0000E+00  0.1000E+02
    -21.271  0.0000E+00  0.1000E+02
    -21.168  0.0000E+00  0.1000E+02
    -21.064  0.0000E+00  0.1000E+02
    -20.960  0.0000E+00  0.1000E+02
    -20.857  0.0000E+00  0.1000E+02
    -20.753  0.0000E+00  0.1000E+02
    -20.649  0.0000E+00  0.1000E+02
    -20.546  0.0000E+00  0.1000E+02
    -20.442  0.0000E+00  0.1000E+02
    -20.338  0.0000E+00  0.1000E+02
    -20.234  0.0000E+00  0.1000E+02
    -20.131  0.0000E+00  0.1000E+02
    -20.027  0.0000E+00  0.1000E+02
    -19.923  0.0000E+00  0.1000E+02
    -19.820  0.0000E+00  0.1000E+02
    -19.716  0.0000E+00  0.1000E+02
    -19.612  0.0000E+00  0.1000E+02
    -19.509  0.0000E+00  0.1000E+02
    -19.405  0.0000E+00  0.1000E+02
    -19.301  0.0000E+00  0.1000E+02
    -19.197  0.0000E+00  0.1000E+02
    -19.094  0.0000E+00  0.1000E+02
    -18.990  0.0000E+00  0.1000E+02
    -18.886  0.0000E+00  0.1000E+02
    -18.783  0.0000E+00  0.1000E+02
    -18.679  0.0000E+00  0.1000E+02
    -18.575  0.0000E+00  0.1000E+02
    -18.472  0.0000E+00  0.1000E+02
    -18.368  0.0000E+00  0.1000E+02
    -18.264  0.0000E+00  0.1000E+02
    -18.160  0.0000E+00  0.1000E+02
    -18.057  0.0000E+00  0.1000E+02
    -17.953  0.0000E+00  0.1000E+02
    -17.849  0.0000E+00  0.1000E+02
    -17.746  0.0000E+00  0.1000E+02
    -17.642  0.0000E+00  0.1000E+02
    -17.538  0.0000E+00  0.1000E+02
    -17.435  0.0000E+00  0.1000E+02
    -17.331  0.0000E+00  0.1000E+02
    -17.227  0.0000E+00  0.1000E+02
    -17.124  0.0000E+00  0.1000E+02
    -17.020  0.0000E+00  0.1000E+02
    -16.916  0.0000E+00  0.1000E+02
    -16.812  0.0000E+00  0.1000E+02
    -16.709  0.0000E+00  0.1000E+02
    -16.605  0.0000E+00  0.1000E+02
    -16.501  0.0000E+00  0.1000E+02
    -16.398  0.0000E+00  0.1000E+02
    -16.294  0.0000E+00  0.1000E+02
    -16.190  0.0000E+00  0.1000E+02
    -16.087  0.0000E+00  0.1000E+02
    -15.983  0.0000E+00  0.1000E+02
    -15.879  0.0000E+00  0.1000E+02
    -15.775  0.0000E+00  0.1000E+02
    -15.672  0.0000E+00  0.1000E+02
    -15.568  0.0000E+00  0.1000E+02
    -15.464  0.0000E+00  0.1000E+02
    -15.361  0.0000E+00  0.1000E+02
    -15.257  0.0000E+00  0.1000E+02
    -15.153  0.0000E+00  0.1000E+02
    -15.050  0.0000E+00  0.1000E+02
    -14.946  0.0000E+00  0.1000E+02
    -14.842  0.0000E+00  0.1000E+02
    -14.738  0.0000E+00  0.1000E+02
    -14.635  0.0000E+00  0.1000E+02
    -14.531  0.0000E+00  0.1000E+02
    -14.427  0.0000E+00  0.1000E+02
    -14.324  0.0000E+00  0.1000E+02
    -14.220  0.0000E+00  0.1000E+02
    -14.116  0.0000E+00  0.1000E+02
    -14.013  0.1717E-11  0.1000E+02
    -13.909  0.9035E-04  0.1000E+02
    -13.805  0.1293E+01  0.1013E+02
    -13.701  0.1653E+02  0.1185E+02
    -13.598  0.1591E+01  0.1201E+02
    -13.494  0.1307E+02  0.1337E+02
    -13.390  0.1972E+02  0.1541E+02
    -13.287  0.3829E+02  0.1938E+02
    -13.183  0.5937E+01  0.2000E+02
    -13.079  0.2199E-02  0.2000E+02
    -12.976  0.3080E-09  0.2000E+02
    -12.872  0.0000E+00  0.2000E+02
    -12.768  0.0000E+00  0.2000E+02
    -12.664  0.0000E+00  0.2000E+02
    -12.561  0.0000E+00  0.2000E+02
    -12.457  0.0000E+00  0.2000E+02
    -12.353  0.0000E+00  0.2000E+02
    -12.250  0.0000E+00  0.2000E+02
    -12.146  0.0000E+00  0.2000E+02
    -12.042  0.0000E+00  0.2000E+02
    -11.939  0.1121E-07  0.2000E+02
    -11.835  0.1562E-01  0.2000E+02
    -11.731  0.8014E+01  0.2083E+02
    -11.628  0.2260E+02  0.2318E+02
    -11.524  0.2349E+02  0.2561E+02
    -11.420  0.3847E+02  0.2960E+02
    -11.316  0.5857E+02  0.3568E+02
    -11.213  0.3141E+01  0.3600E+02
    -11.109  0.7595E+01  0.3679E+02
    -11.005  0.2505E+02  0.3939E+02
    -10.902  0.5916E+01  0.4000E+02
    -10.798  0.5426E-02  0.4000E+02
    -10.694  0.1685E-08  0.4000E+02
    -10.591  0.0000E+00  0.4000E+02
    -10.487  0.0000E+00  0.4000E+02
    -10.383  0.0000E+00  0.4000E+02
    -10.279  0.1025E-06  0.4000E+02
    -10.176  0.5124E-01  0.4001E+02
    -10.072  0.1071E+02  0.4112E+02
     -9.968  0.1108E+02  0.4227E+02
     -9.865  0.3227E+02  0.4561E+02
     -9.761  0.3643E+02  0.4939E+02
     -9.657  0.5892E+01  0.5000E+02
     -9.554  0.3349E-02  0.5000E+02
     -9.450  0.7094E-09  0.5000E+02
     -9.346  0.0000E+00  0.5000E+02
     -9.242  0.0000E+00  0.5000E+02
     -9.139  0.0000E+00  0.5000E+02
     -9.035  0.0000E+00  0.5000E+02
     -8.931  0.0000E+00  0.5000E+02
     -8.828  0.0000E+00  0.5000E+02
     -8.724  0.0000E+00  0.5000E+02
     -8.620  0.0000E+00  0.5000E+02
     -8.517  0.0000E+00  0.5000E+02
     -8.413  0.0000E+00  0.5000E+02
     -8.309  0.0000E+00  0.5000E+02
     -8.205  0.0000E+00  0.5000E+02
     -8.102  0.0000E+00  0.5000E+02
     -7.998  0.0000E+00  0.5000E+02
     -7.894  0.0000E+00  0.5000E+02
     -7.791  0.0000E+00  0.5000E+02
     -7.687  0.0000E+00  0.5000E+02
     -7.583  0.0000E+00  0.5000E+02
     -7.480  0.0000E+00  0.5000E+02
     -7.376  0.0000E+00  0.5000E+02
     -7.272  0.0000E+00  0.5000E+02
     -7.169  0.0000E+00  0.5000E+02