   10   10   20    1
  0.3048625E+03  0.1450000E-08  0.1450000E-08  0.1450000E-08  0.1000000E-14
   600.000000000000     
  CAR 
 NiAl                                    
     50      1     36
 
  0.0000000E+00  0.0000000E+00  0.0000000E+00  0.1000000E+01
    1      -28.199999   1.000000
    2      -28.040267   1.000000
    3      -28.005729   1.000000
    4      -27.648409   1.000000
    5      -27.447651   1.000000
    6      -13.765741   1.000000
    7      -13.696771   1.000000
    8      -13.498463   1.000000
    9      -13.457872   1.000000
   10      -13.391612   1.000000
   11      -11.347494   1.000000
   12      -11.342117   1.000000
   13      -11.258828   1.000000
   14      -11.257859   1.000000
   15      -11.249374   1.000000
   16      -11.247651   1.000000
   17      -11.076494   1.000000
   18      -11.074569   1.000000
   19      -10.970423   1.000000
   20      -10.970066   1.000000
   21       -9.878826   1.000000
   22       -9.861979   1.000000
   23       -9.852095   1.000000
   24       -9.850257   1.000000
   25       -9.844401   1.000000
   26       -2.312755   0.000000
   27       -2.311425   0.000000
   28       -2.210924   0.000000
   29       -2.204912   0.000000
   30       -1.910142   0.000000
   31       -1.908451   0.000000
   32       -1.856450   0.000000
   33       -1.854486   0.000000
   34       -1.749248   0.000000
   35       -1.746306   0.000000
   36       -0.311838   0.000000
