          18
 Energy:  -72.1725937000000     
 X  0.0000000E+00  0.0000000E+00  0.0000000E+00
 X   14.50000      0.0000000E+00  0.0000000E+00
 X  0.0000000E+00   14.50000      0.0000000E+00
 X  0.0000000E+00  0.0000000E+00   14.50000    
 X   14.50000       14.50000      0.0000000E+00
 X   14.50000      0.0000000E+00   14.50000    
 X  0.0000000E+00   14.50000       14.50000    
 X   14.50000       14.50000       14.50000    
 N   0.0000000E+00  0.0000000E+00  0.0000000E+00
 N    1.100000      0.0000000E+00  0.0000000E+00
 N   0.5000000       14.00000       2.000000    
 N   0.5000000      0.5000000       2.000000    
 N    2.000000       1.900000      0.0000000E+00
 N    2.000000       2.900000      0.0000000E+00
 N    2.000000       5.000000      0.0000000E+00
 N    2.000000       5.000000       1.000000    
 N    2.000000       3.000000       5.000000    
 N    3.000000       3.000000       5.000000    
          18
 Energy:  -75.8105624000000     
 X  0.0000000E+00  0.0000000E+00  0.0000000E+00
 X   14.50000      0.0000000E+00  0.0000000E+00
 X  0.0000000E+00   14.50000      0.0000000E+00
 X  0.0000000E+00  0.0000000E+00   14.50000    
 X   14.50000       14.50000      0.0000000E+00
 X   14.50000      0.0000000E+00   14.50000    
 X  0.0000000E+00   14.50000       14.50000    
 X   14.50000       14.50000       14.50000    
 N    14.49474       14.49934       14.49331    
 N    1.106410       14.49930       14.49656    
 N   0.5003500       13.97626       2.006320    
 N   0.5001100      0.5185900       1.999300    
 N    2.010990       1.877420      8.7000001E-03
 N    2.001080       2.917410       14.49977    
 N    1.995190       5.004360       14.48082    
 N    2.000150       5.004880       1.023170    
 N    1.974530       3.000740       4.996400    
 N    3.016460       3.001680       4.995660    
          18
 Energy:  -78.0317331000000     
 X  0.0000000E+00  0.0000000E+00  0.0000000E+00
 X   14.50000      0.0000000E+00  0.0000000E+00
 X  0.0000000E+00   14.50000      0.0000000E+00
 X  0.0000000E+00  0.0000000E+00   14.50000    
 X   14.50000       14.50000      0.0000000E+00
 X   14.50000      0.0000000E+00   14.50000    
 X  0.0000000E+00   14.50000       14.50000    
 X   14.50000       14.50000       14.50000    
 N    14.48769       14.49877       14.48405    
 N    1.113800       14.49673       14.49061    
 N   0.5006300       13.94157       2.015250    
 N   0.5001000      0.5481200       2.001110    
 N    2.023160       1.845020      1.7589999E-02
 N    2.001930       2.943500       14.49878    
 N    1.990340       5.010630       14.45126    
 N    2.000370       5.010840       1.057260    
 N    1.938270       3.001450       4.992790    
 N    3.043700       3.003350       4.991300    
          18
 Energy:  -77.6352184000000     
 X  0.0000000E+00  0.0000000E+00  0.0000000E+00
 X   14.50000      0.0000000E+00  0.0000000E+00
 X  0.0000000E+00   14.50000      0.0000000E+00
 X  0.0000000E+00  0.0000000E+00   14.50000    
 X   14.50000       14.50000      0.0000000E+00
 X   14.50000      0.0000000E+00   14.50000    
 X  0.0000000E+00   14.50000       14.50000    
 X   14.50000       14.50000       14.50000    
 N    14.48021       14.49830       14.47240    
 N    1.120780       14.49223       14.48229    
 N   0.5008700       13.90492       2.026550    
 N   0.4999600      0.5796000       2.005330    
 N    2.036540       1.811390      2.6660001E-02
 N    2.002580       2.969670       14.49699    
 N    1.985490       5.018790       14.42029    
 N    2.000630       5.017940       1.093390    
 N    1.900240       3.002140       4.989170    
 N    3.072700       3.005020       4.986920    
          18
 Energy:  -75.9526198000000     
 X  0.0000000E+00  0.0000000E+00  0.0000000E+00
 X   14.50000      0.0000000E+00  0.0000000E+00
 X  0.0000000E+00   14.50000      0.0000000E+00
 X  0.0000000E+00  0.0000000E+00   14.50000    
 X   14.50000       14.50000      0.0000000E+00
 X   14.50000      0.0000000E+00   14.50000    
 X  0.0000000E+00   14.50000       14.50000    
 X   14.50000       14.50000       14.50000    
 N    14.47349       14.49793       14.45860    
 N    1.126110       14.48577       14.47174    
 N   0.5010600       13.87202       2.039910    
 N   0.4996800      0.6073100       2.011870    
 N    2.051060       1.782050      3.5859998E-02
 N    2.003140       2.990390       14.49444    
 N    1.980710       5.028800       14.39355    
 N    2.000850       5.026240       1.125950    
 N    1.866210       3.002830       4.985530    
 N    3.097700       3.006650       4.982540    
          18
 Energy:  -74.2449129000000     
 X  0.0000000E+00  0.0000000E+00  0.0000000E+00
 X   14.50000      0.0000000E+00  0.0000000E+00
 X  0.0000000E+00   14.50000      0.0000000E+00
 X  0.0000000E+00  0.0000000E+00   14.50000    
 X   14.50000       14.50000      0.0000000E+00
 X   14.50000      0.0000000E+00   14.50000    
 X  0.0000000E+00   14.50000       14.50000    
 X   14.50000       14.50000       14.50000    
 N    14.46845       14.49763       14.44290    
 N    1.128840       14.47739       14.45911    
 N   0.5012100       13.84577       2.055030    
 N   0.4992700      0.6283700       2.020620    
 N    2.066590       1.759840      4.5139998E-02
 N    2.003760       3.002920       14.49117    
 N    1.976040       5.040550       14.37387    
 N    2.000980       5.035760       1.152110    
 N    1.839100       3.003520       4.981880    
 N    3.115760       3.008250       4.978180    
          18
 Energy:  -73.1650650000000     
 X  0.0000000E+00  0.0000000E+00  0.0000000E+00
 X   14.50000      0.0000000E+00  0.0000000E+00
 X  0.0000000E+00   14.50000      0.0000000E+00
 X  0.0000000E+00  0.0000000E+00   14.50000    
 X   14.50000       14.50000      0.0000000E+00
 X   14.50000      0.0000000E+00   14.50000    
 X  0.0000000E+00   14.50000       14.50000    
 X   14.50000       14.50000       14.50000    
 N    14.46567       14.49739       14.42552    
 N    1.128390       14.46717       14.44454    
 N   0.5013100       13.82755       2.071660    
 N   0.4987400      0.6414000       2.031450    
 N    2.083020       1.746010      5.4450002E-02
 N    2.004530       3.006100       14.48726    
 N    1.971540       5.053880       14.36257    
 N    2.000980       5.046460       1.170520    
 N    1.820320       3.004220       4.978200    
 N    3.125500       3.009810       4.973840    
          18
 Energy:  -72.9792761000000     
 X  0.0000000E+00  0.0000000E+00  0.0000000E+00
 X   14.50000      0.0000000E+00  0.0000000E+00
 X  0.0000000E+00   14.50000      0.0000000E+00
 X  0.0000000E+00  0.0000000E+00   14.50000    
 X   14.50000       14.50000      0.0000000E+00
 X   14.50000      0.0000000E+00   14.50000    
 X  0.0000000E+00   14.50000       14.50000    
 X   14.50000       14.50000       14.50000    
 N    14.46538       14.49716       14.40665    
 N    1.124550       14.45523       14.42818    
 N   0.5013600       13.81804       2.089550    
 N   0.4980900      0.6457400       2.044230    
 N    2.100200       1.741010      6.3730001E-02
 N    2.005570       2.999580       14.48283    
 N    1.967250       5.068670       14.36024    
 N    2.000800       5.058320       1.180560    
 N    1.810490       3.004940       4.974490    
 N    3.126310       3.011300       4.969540    
          18
 Energy:  -73.7441050000000     
 X  0.0000000E+00  0.0000000E+00  0.0000000E+00
 X   14.50000      0.0000000E+00  0.0000000E+00
 X  0.0000000E+00   14.50000      0.0000000E+00
 X  0.0000000E+00  0.0000000E+00   14.50000    
 X   14.50000       14.50000      0.0000000E+00
 X   14.50000      0.0000000E+00   14.50000    
 X  0.0000000E+00   14.50000       14.50000    
 X   14.50000       14.50000       14.50000    
 N    14.46743       14.49690       14.38643    
 N    1.117490       14.44172       14.41016    
 N   0.5013500       13.81752       2.108530    
 N   0.4973400      0.6411200       2.058850    
 N    2.117990       1.744790      7.2910003E-02
 N    2.006990       2.983480       14.47799    
 N    1.963180       5.084800       14.36710    
 N    2.000410       5.071260       1.181980    
 N    1.809800       3.005680       4.970750    
 N    3.118010       3.012740       4.965290    
          18
 Energy:  -75.3557826000000     
 X  0.0000000E+00  0.0000000E+00  0.0000000E+00
 X   14.50000      0.0000000E+00  0.0000000E+00
 X  0.0000000E+00   14.50000      0.0000000E+00
 X  0.0000000E+00  0.0000000E+00   14.50000    
 X   14.50000       14.50000      0.0000000E+00
 X   14.50000      0.0000000E+00   14.50000    
 X  0.0000000E+00   14.50000       14.50000    
 X   14.50000       14.50000       14.50000    
 N    14.47132       14.49658       14.36498    
 N    1.107730       14.42675       14.39061    
 N   0.5012800       13.82599       2.128420    
 N   0.4965100      0.6275400       2.075210    
 N    2.136260       1.756800      8.1950001E-02
 N    2.008870       2.958410       14.47289    
 N    1.959380       5.102160       14.38310    
 N    1.999790       5.085220       1.174770    
 N    1.818110       3.006450       4.966980    
 N    3.100740       3.014100       4.961080    
          18
 Energy:  -77.4989924000000     
 X  0.0000000E+00  0.0000000E+00  0.0000000E+00
 X   14.50000      0.0000000E+00  0.0000000E+00
 X  0.0000000E+00   14.50000      0.0000000E+00
 X  0.0000000E+00  0.0000000E+00   14.50000    
 X   14.50000       14.50000      0.0000000E+00
 X   14.50000      0.0000000E+00   14.50000    
 X  0.0000000E+00   14.50000       14.50000    
 X   14.50000       14.50000       14.50000    
 N    14.47617       14.49620       14.34240    
 N    1.096260       14.41046       14.36965    
 N   0.5011400       13.84315       2.149090    
 N   0.4956300      0.6053100       2.093180    
 N    2.154940       1.775760      9.0820000E-02
 N    2.011200       2.925730       14.46762    
 N    1.955840       5.120630       14.40785    
 N    1.998920       5.100110       1.159270    
 N    1.834910       3.007240       4.963190    
 N    3.075000       3.015400       4.956930    
          18
 Energy:  -79.5222273000000     
 X  0.0000000E+00  0.0000000E+00  0.0000000E+00
 X   14.50000      0.0000000E+00  0.0000000E+00
 X  0.0000000E+00   14.50000      0.0000000E+00
 X  0.0000000E+00  0.0000000E+00   14.50000    
 X   14.50000       14.50000      0.0000000E+00
 X   14.50000      0.0000000E+00   14.50000    
 X  0.0000000E+00   14.50000       14.50000    
 X   14.50000       14.50000       14.50000    
 N    14.48075       14.49583       14.31875    
 N    1.084360       14.39292       14.34743    
 N   0.5009200       13.86815       2.170440    
 N   0.4946900      0.5752500       2.112660    
 N    2.174140       1.799020      9.9670000E-02
 N    2.013800       2.888200       14.46209    
 N    1.952570       5.140110       14.44039    
 N    1.997790       5.115840       1.136370    
 N    1.858960       3.008060       4.959370    
 N    3.042010       3.016620       4.952830    
          18
 Energy:  -80.3727573000000     
 X  0.0000000E+00  0.0000000E+00  0.0000000E+00
 X   14.50000      0.0000000E+00  0.0000000E+00
 X  0.0000000E+00   14.50000      0.0000000E+00
 X  0.0000000E+00  0.0000000E+00   14.50000    
 X   14.50000       14.50000      0.0000000E+00
 X   14.50000      0.0000000E+00   14.50000    
 X  0.0000000E+00   14.50000       14.50000    
 X   14.50000       14.50000       14.50000    
 N    14.48365       14.49559       14.29413    
 N    1.073540       14.37415       14.32409    
 N   0.5006200       13.89907       2.192410    
 N   0.4937200      0.5393000       2.133440    
 N    2.194380       1.821730      0.1089900    
 N    2.016080       2.850730       14.45589    
 N    1.949500       5.160490       14.47853    
 N    1.996480       5.132270       1.108230    
 N    1.887660       3.008880       4.955540    
 N    3.004370       3.017790       4.948760    
          18
 Energy:  -79.0978852000000     
 X  0.0000000E+00  0.0000000E+00  0.0000000E+00
 X   14.50000      0.0000000E+00  0.0000000E+00
 X  0.0000000E+00   14.50000      0.0000000E+00
 X  0.0000000E+00  0.0000000E+00   14.50000    
 X   14.50000       14.50000      0.0000000E+00
 X   14.50000      0.0000000E+00   14.50000    
 X  0.0000000E+00   14.50000       14.50000    
 X   14.50000       14.50000       14.50000    
 N    14.48365       14.49563       14.26859    
 N    1.065100       14.35415       14.29980    
 N   0.5002700       13.93174       2.215090    
 N   0.4927100      0.5016100       2.155220    
 N    2.216800       1.836820      0.1198000    
 N    2.016820       2.820470       14.44803    
 N    1.946470       5.181750      1.7680001E-02
 N    1.995140       5.149210       1.079370    
 N    1.915790       3.009680       4.951710    
 N    2.967270       3.018940       4.944700    
          18
 Energy:  -76.4325071000000     
 X  0.0000000E+00  0.0000000E+00  0.0000000E+00
 X   14.50000      0.0000000E+00  0.0000000E+00
 X  0.0000000E+00   14.50000      0.0000000E+00
 X  0.0000000E+00  0.0000000E+00   14.50000    
 X   14.50000       14.50000      0.0000000E+00
 X   14.50000      0.0000000E+00   14.50000    
 X  0.0000000E+00   14.50000       14.50000    
 X   14.50000       14.50000       14.50000    
 N    14.48011       14.49610       14.24226    
 N    1.059740       14.33290       14.27472    
 N   0.4999100       13.95842       2.238800    
 N   0.4916000      0.4699200       2.177440    
 N    2.242870       1.837710      0.1334200    
 N    2.014450       2.804080       14.43725    
 N    1.943110       5.204030      4.9729999E-02
 N    1.994150       5.166320       1.057840    
 N    1.934770       3.010370       4.947960    
 N    2.939290       3.020160       4.940580    
          18
 Energy:  -75.6506798000000     
 X  0.0000000E+00  0.0000000E+00  0.0000000E+00
 X   14.50000      0.0000000E+00  0.0000000E+00
 X  0.0000000E+00   14.50000      0.0000000E+00
 X  0.0000000E+00  0.0000000E+00   14.50000    
 X   14.50000       14.50000      0.0000000E+00
 X   14.50000      0.0000000E+00   14.50000    
 X  0.0000000E+00   14.50000       14.50000    
 X   14.50000       14.50000       14.50000    
 N    14.47323       14.49703       14.21526    
 N    1.057320       14.31047       14.24896    
 N   0.4996300       13.96885       2.264070    
 N   0.4903100      0.4545000       2.199360    
 N    2.273260       1.823250      0.1504800    
 N    2.008250       2.802740       14.42295    
 N    1.938900       5.227670      6.4900003E-02
 N    1.994040       5.183110       1.053350    
 N    1.935440       3.010860       4.944340    
 N    2.929610       3.021530       4.936330    
          18
 Energy:  -78.3066528000000     
 X  0.0000000E+00  0.0000000E+00  0.0000000E+00
 X   14.50000      0.0000000E+00  0.0000000E+00
 X  0.0000000E+00   14.50000      0.0000000E+00
 X  0.0000000E+00  0.0000000E+00   14.50000    
 X   14.50000       14.50000      0.0000000E+00
 X   14.50000      0.0000000E+00   14.50000    
 X  0.0000000E+00   14.50000       14.50000    
 X   14.50000       14.50000       14.50000    
 N    14.46401       14.49831       14.18769    
 N    1.056890       14.28707       14.22263    
 N   0.4995100       13.95712       2.291270    
 N   0.4887700      0.4612700       2.220400    
 N    2.306970       1.798730      0.1701700    
 N    1.999150       2.811180       14.40596    
 N    1.933510       5.252900      5.8759999E-02
 N    1.995140       5.199210       1.070300    
 N    1.915380       3.011100       4.940900    
 N    2.940670       3.023110       4.931920    
          18
 Energy:  -81.0514348000000     
 X  0.0000000E+00  0.0000000E+00  0.0000000E+00
 X   14.50000      0.0000000E+00  0.0000000E+00
 X  0.0000000E+00   14.50000      0.0000000E+00
 X  0.0000000E+00  0.0000000E+00   14.50000    
 X   14.50000       14.50000      0.0000000E+00
 X   14.50000      0.0000000E+00   14.50000    
 X  0.0000000E+00   14.50000       14.50000    
 X   14.50000       14.50000       14.50000    
 N    14.45388       14.49972       14.15969    
 N    1.057050       14.26300       14.19576    
 N   0.4995400       13.92769       2.320110    
 N   0.4869900      0.4857600       2.240680    
 N    2.342100       1.771380      0.1908900    
 N    1.989010       2.822210       14.38787    
 N    1.927150       5.279550      3.6740001E-02
 N    1.997230       5.214710       1.103280    
 N    1.881440       3.011150       4.937590    
 N    2.965620       3.024840       4.927380    
          18
 Energy:  -81.3519151000000     
 X  0.0000000E+00  0.0000000E+00  0.0000000E+00
 X   14.50000      0.0000000E+00  0.0000000E+00
 X  0.0000000E+00   14.50000      0.0000000E+00
 X  0.0000000E+00  0.0000000E+00   14.50000    
 X   14.50000       14.50000      0.0000000E+00
 X   14.50000      0.0000000E+00   14.50000    
 X  0.0000000E+00   14.50000       14.50000    
 X   14.50000       14.50000       14.50000    
 N    14.44431      9.5000002E-04   14.13135    
 N    1.056370       14.23864       14.16838    
 N   0.4996100       13.89073       2.349850    
 N   0.4850900      0.5177900       2.260820    
 N    2.376870       1.746560      0.2111700    
 N    1.979570       2.830470       14.37015    
 N    1.920400       5.307080      8.6899996E-03
 N    1.999750       5.230070       1.142450    
 N    1.843170       3.011120       4.934330    
 N    2.994860       3.026600       4.922820    
          18
 Energy:  -79.8751878000000     
 X  0.0000000E+00  0.0000000E+00  0.0000000E+00
 X   14.50000      0.0000000E+00  0.0000000E+00
 X  0.0000000E+00   14.50000      0.0000000E+00
 X  0.0000000E+00  0.0000000E+00   14.50000    
 X   14.50000       14.50000      0.0000000E+00
 X   14.50000      0.0000000E+00   14.50000    
 X  0.0000000E+00   14.50000       14.50000    
 X   14.50000       14.50000       14.50000    
 N    14.43650      1.6899999E-03   14.10274    
 N    1.053690       14.21436       14.14051    
 N   0.4996400       13.85459       2.379810    
 N   0.4831600      0.5489900       2.281390    
 N    2.410090       1.727240      0.2299800    
 N    1.972000       2.832990       14.35384    
 N    1.913760       5.334950       14.48227    
 N    2.002180       5.245750       1.180130    
 N    1.807460       3.011110       4.931050    
 N    3.021520       3.028310       4.918290    
          18
 Energy:  -77.9910249000000     
 X  0.0000000E+00  0.0000000E+00  0.0000000E+00
 X   14.50000      0.0000000E+00  0.0000000E+00
 X  0.0000000E+00   14.50000      0.0000000E+00
 X  0.0000000E+00  0.0000000E+00   14.50000    
 X   14.50000       14.50000      0.0000000E+00
 X   14.50000      0.0000000E+00   14.50000    
 X  0.0000000E+00   14.50000       14.50000    
 X   14.50000       14.50000       14.50000    
 N    14.43129      1.7000000E-03   14.07395    
 N    1.048180       14.19049       14.11216    
 N   0.4995600       13.82395       2.409570    
 N   0.4812700      0.5747000       2.302720    
 N    2.440990       1.714830      0.2466700    
 N    1.967040       2.828400       14.33955    
 N    1.907520       5.362790       14.46173    
 N    2.004190       5.262070       1.212090    
 N    1.778020       3.011170       4.927720    
 N    3.041930       3.029920       4.913840    
          18
 Energy:  -78.0833549000000     
 X  0.0000000E+00  0.0000000E+00  0.0000000E+00
 X   14.50000      0.0000000E+00  0.0000000E+00
 X  0.0000000E+00   14.50000      0.0000000E+00
 X  0.0000000E+00  0.0000000E+00   14.50000    
 X   14.50000       14.50000      0.0000000E+00
 X   14.50000      0.0000000E+00   14.50000    
 X  0.0000000E+00   14.50000       14.50000    
 X   14.50000       14.50000       14.50000    
 N    14.43262      7.8000000E-04   14.06457    
 N    1.043210       14.18343       14.10261    
 N   0.4993800       13.82187       2.418700    
 N   0.4807400      0.5752300       2.310490    
 N    2.448090       1.718320      0.2494900    
 N    1.968520       2.819250       14.33741    
 N    1.906110       5.371430       14.46303    
 N    2.004240       5.268100       1.214620    
 N    1.776620       3.011290       4.926570    
 N    3.040470       3.030300       4.912510    
          18
 Energy:  -78.9106933000000     
 X  0.0000000E+00  0.0000000E+00  0.0000000E+00
 X   14.50000      0.0000000E+00  0.0000000E+00
 X  0.0000000E+00   14.50000      0.0000000E+00
 X  0.0000000E+00  0.0000000E+00   14.50000    
 X   14.50000       14.50000      0.0000000E+00
 X   14.50000      0.0000000E+00   14.50000    
 X  0.0000000E+00   14.50000       14.50000    
 X   14.50000       14.50000       14.50000    
 N    14.43664       14.49903       14.05506    
 N    1.035340       14.17693       14.09264    
 N   0.4990300       13.82762       2.427370    
 N   0.4802900      0.5679600       2.319190    
 N    2.452390       1.729070      0.2497800    
 N    1.973050       2.802640       14.33770    
 N    1.905290       5.379750       14.47226    
 N    2.003690       5.274950       1.209390    
 N    1.783270       3.011500       4.925340    
 N    3.031000       3.030550       4.911290    
          18
 Energy:  -80.2508121000000     
 X  0.0000000E+00  0.0000000E+00  0.0000000E+00
 X   14.50000      0.0000000E+00  0.0000000E+00
 X  0.0000000E+00   14.50000      0.0000000E+00
 X  0.0000000E+00  0.0000000E+00   14.50000    
 X   14.50000       14.50000      0.0000000E+00
 X   14.50000      0.0000000E+00   14.50000    
 X  0.0000000E+00   14.50000       14.50000    
 X   14.50000       14.50000       14.50000    
 N    14.44262       14.49664       14.04539    
 N    1.025340       14.17080       14.08229    
 N   0.4985400       13.84079       2.435610    
 N   0.4799200      0.5532900       2.328770    
 N    2.454070       1.746450      0.2477200    
 N    1.980440       2.779220       14.34026    
 N    1.905040       5.387750       14.48897    
 N    2.002550       5.282590       1.196810    
 N    1.797470       3.011810       4.924020    
 N    3.014010       3.030660       4.910150    
          18
 Energy:  -81.6079881000000     
 X  0.0000000E+00  0.0000000E+00  0.0000000E+00
 X   14.50000      0.0000000E+00  0.0000000E+00
 X  0.0000000E+00   14.50000      0.0000000E+00
 X  0.0000000E+00  0.0000000E+00   14.50000    
 X   14.50000       14.50000      0.0000000E+00
 X   14.50000      0.0000000E+00   14.50000    
 X  0.0000000E+00   14.50000       14.50000    
 X   14.50000       14.50000       14.50000    
 N    14.44939       14.49395       14.03556    
 N    1.014370       14.16469       14.07161    
 N   0.4979100       13.86034       2.443490    
 N   0.4796200      0.5322600       2.339130    
 N    2.453660       1.769100      0.2437500    
 N    1.990150       2.750390       14.34466    
 N    1.905290       5.395490      1.2070000E-02
 N    2.000910       5.290920       1.177970    
 N    1.818060       3.012190       4.922650    
 N    2.990640       3.030660       4.909110    
          18
 Energy:  -82.1631875000000     
 X  0.0000000E+00  0.0000000E+00  0.0000000E+00
 X   14.50000      0.0000000E+00  0.0000000E+00
 X  0.0000000E+00   14.50000      0.0000000E+00
 X  0.0000000E+00  0.0000000E+00   14.50000    
 X   14.50000       14.50000      0.0000000E+00
 X   14.50000      0.0000000E+00   14.50000    
 X  0.0000000E+00   14.50000       14.50000    
 X   14.50000       14.50000       14.50000    
 N    14.45548       14.49143       14.02553    
 N    1.003920       14.15818       14.06068    
 N   0.4971800       13.88417       2.451190    
 N   0.4793500      0.5069500       2.350090    
 N    2.452320       1.794410      0.2388600    
 N    2.001030       2.718760       14.34992    
 N    1.905860       5.403130      3.9340001E-02
 N    1.998950       5.299760       1.155030    
 N    1.842690       3.012620       4.921240    
 N    2.963220       3.030590       4.908120    
          18
 Energy:  -81.1385207000000     
 X  0.0000000E+00  0.0000000E+00  0.0000000E+00
 X   14.50000      0.0000000E+00  0.0000000E+00
 X  0.0000000E+00   14.50000      0.0000000E+00
 X  0.0000000E+00  0.0000000E+00   14.50000    
 X   14.50000       14.50000      0.0000000E+00
 X   14.50000      0.0000000E+00   14.50000    
 X  0.0000000E+00   14.50000       14.50000    
 X   14.50000       14.50000       14.50000    
 N    14.45940       14.48956       14.01525    
 N   0.9955000       14.15079       14.04956    
 N   0.4964100       13.90850       2.459030    
 N   0.4790700      0.4811100       2.361290    
 N    2.452170       1.817880      0.2349100    
 N    2.010940       2.688890       14.35420    
 N    1.906440       5.410990      6.6869996E-02
 N    1.996980       5.308730       1.131890    
 N    1.867150       3.013030       4.919850    
 N    2.935940       3.030510       4.907140    
          18
 Energy:  -79.0475946000000     
 X  0.0000000E+00  0.0000000E+00  0.0000000E+00
 X   14.50000      0.0000000E+00  0.0000000E+00
 X  0.0000000E+00   14.50000      0.0000000E+00
 X  0.0000000E+00  0.0000000E+00   14.50000    
 X   14.50000       14.50000      0.0000000E+00
 X   14.50000      0.0000000E+00   14.50000    
 X  0.0000000E+00   14.50000       14.50000    
 X   14.50000       14.50000       14.50000    
 N    14.45998       14.48876       14.00472    
 N   0.9902700       14.14214       14.03832    
 N   0.4956900       13.92762       2.467520    
 N   0.4786900      0.4604900       2.372190    
 N    2.456320       1.833410      0.2345700    
 N    2.016750       2.666890       14.35483    
 N    1.906520       5.419620      8.8730000E-02
 N    1.995520       5.317270       1.114470    
 N    1.885170       3.013300       4.918550    
 N    2.915100       3.030510       4.906100    
          18
 Energy:  -78.2162494000000     
 X  0.0000000E+00  0.0000000E+00  0.0000000E+00
 X   14.50000      0.0000000E+00  0.0000000E+00
 X  0.0000000E+00   14.50000      0.0000000E+00
 X  0.0000000E+00  0.0000000E+00   14.50000    
 X   14.50000       14.50000      0.0000000E+00
 X   14.50000      0.0000000E+00   14.50000    
 X  0.0000000E+00   14.50000       14.50000    
 X   14.50000       14.50000       14.50000    
 N    14.45687       14.48917       13.99392    
 N   0.9886000       14.13207       14.02697    
 N   0.4951300       13.93520       2.477220    
 N   0.4781000      0.4513900       2.382190    
 N    2.467480       1.836090      0.2402100    
 N    2.015710       2.657670       14.34946    
 N    1.905560       5.429650      9.8640002E-02
 N    1.995110       5.324700       1.109070    
 N    1.890210       3.013340       4.917420    
 N    2.907240       3.030720       4.904900    
          18
 Energy:  -79.7814218000000     
 X  0.0000000E+00  0.0000000E+00  0.0000000E+00
 X   14.50000      0.0000000E+00  0.0000000E+00
 X  0.0000000E+00   14.50000      0.0000000E+00
 X  0.0000000E+00  0.0000000E+00   14.50000    
 X   14.50000       14.50000      0.0000000E+00
 X   14.50000      0.0000000E+00   14.50000    
 X  0.0000000E+00   14.50000       14.50000    
 X   14.50000       14.50000       14.50000    
 N    14.45064       14.49062       13.98290    
 N   0.9899100       14.12076       14.01552    
 N   0.4947700       13.92807       2.488440    
 N   0.4772300      0.4570400       2.390980    
 N    2.485850       1.826060      0.2520000    
 N    2.007640       2.661090       14.33790    
 N    1.903260       5.441420      9.3709998E-02
 N    1.996030       5.330690       1.118550    
 N    1.879700       3.013080       4.916480    
 N    2.914960       3.031170       4.903520    
          18
 Energy:  -81.7698545000000     
 X  0.0000000E+00  0.0000000E+00  0.0000000E+00
 X   14.50000      0.0000000E+00  0.0000000E+00
 X  0.0000000E+00   14.50000      0.0000000E+00
 X  0.0000000E+00  0.0000000E+00   14.50000    
 X   14.50000       14.50000      0.0000000E+00
 X   14.50000      0.0000000E+00   14.50000    
 X  0.0000000E+00   14.50000       14.50000    
 X   14.50000       14.50000       14.50000    
 N    14.44257       14.49271       13.97170    
 N   0.9929500       14.10863       14.00394    
 N   0.4945900       13.90873       2.500940    
 N   0.4761400      0.4748900       2.398770    
 N    2.508850       1.808340      0.2677100    
 N    1.995100       2.672150       14.32237    
 N    1.899870       5.454660      7.6880001E-02
 N    1.998050       5.335480       1.139990    
 N    1.857220       3.012590       4.915710    
 N    2.934650       3.031820       4.901990    
          18
 Energy:  -82.2866129000000     
 X  0.0000000E+00  0.0000000E+00  0.0000000E+00
 X   14.50000      0.0000000E+00  0.0000000E+00
 X  0.0000000E+00   14.50000      0.0000000E+00
 X  0.0000000E+00  0.0000000E+00   14.50000    
 X   14.50000       14.50000      0.0000000E+00
 X   14.50000      0.0000000E+00   14.50000    
 X  0.0000000E+00   14.50000       14.50000    
 X   14.50000       14.50000       14.50000    
 N    14.43418       14.49489       13.96038    
 N   0.9961900       14.09624       13.99221    
 N   0.4944900       13.88333       2.514140    
 N   0.4749300      0.4988000       2.406130    
 N    2.533120       1.788800      0.2844500    
 N    1.981450       2.684970       14.30576    
 N    1.895950       5.468690      5.4480001E-02
 N    2.000610       5.339750       1.167050    
 N    1.829530       3.011980       4.915010    
 N    2.959560       3.032550       4.900400    
          18
 Energy:  -81.3997233000000     
 X  0.0000000E+00  0.0000000E+00  0.0000000E+00
 X   14.50000      0.0000000E+00  0.0000000E+00
 X  0.0000000E+00   14.50000      0.0000000E+00
 X  0.0000000E+00  0.0000000E+00   14.50000    
 X   14.50000       14.50000      0.0000000E+00
 X   14.50000      0.0000000E+00   14.50000    
 X  0.0000000E+00   14.50000       14.50000    
 X   14.50000       14.50000       14.50000    
 N    14.42690       14.49662       13.94899    
 N   0.9982300       14.08412       13.98029    