NiAl                                    
           1
    14.500000    0.000000    0.000000
     0.000000   14.500000    0.000000
     0.000000    0.000000   14.500000
   N 
  10
Direct configuration=    20
   0.99562067  0.00011669  0.97260306
   0.07266816  0.98030096  0.97520747
   0.03445812  0.95548873  0.16412462
   0.03332143  0.03786130  0.15733713
   0.16621293  0.11912031  0.01586043
   0.13600012  0.19537892  0.98991969
   0.13198312  0.36792772  0.99877747
   0.13808111  0.36177609  0.08138816
   0.12465267  0.20766299  0.34007243
   0.20838099  0.20884906  0.33919229
Direct configuration=    40
   0.99596490  0.99871350  0.95645631
   0.06510960  0.96705908  0.95802979
   0.03376276  0.95552867  0.17966041
   0.03226759  0.03553098  0.17151561
   0.18036157  0.12471110  0.02200423
   0.13715964  0.18004491  0.98418015
   0.12979338  0.38362000  0.00389925
   0.13817865  0.37242615  0.08303681
   0.12426588  0.20759381  0.33842074
   0.20451533  0.20925456  0.33727946
Direct configuration=    60
   0.99426576  0.99873483  0.94919824
   0.06260211  0.95974953  0.94975137
   0.03299955  0.95742295  0.18644689
   0.03170506  0.03256780  0.17829439
   0.18634388  0.12886553  0.02397952
   0.13903822  0.17179830  0.98204418
   0.12888926  0.39118522  0.00802811
   0.13824610  0.37780766  0.08189697
   0.12573747  0.20720875  0.33806336
   0.20155190  0.20914220  0.33677973
Direct configuration=    80
   0.99427859  0.99757571  0.94220245
   0.05797481  0.95343109  0.94134575
   0.03182871  0.95440689  0.19372823
   0.03097465  0.03420875  0.18431144
   0.19417806  0.13158793  0.02723689
   0.13996152  0.16596021  0.97874706
   0.12709045  0.39983320  0.00741428
   0.13905558  0.38226695  0.08493721
   0.12285623  0.20630561  0.33816179
   0.20318072  0.20890642  0.33639766
Direct configuration=   100
   0.99437133  0.99564953  0.93316949
   0.05214865  0.94590416  0.93061229
   0.03006328  0.95621845  0.20188117
   0.03018879  0.03026186  0.19247330
   0.19906106  0.13824938  0.02739734
   0.14598629  0.15663353  0.97915909
   0.12549971  0.40934109  0.01229083
   0.13920715  0.38920161  0.08277733
   0.12528664  0.20496594  0.33855220
   0.19956641  0.20805720  0.33616971
Direct configuration=   120
   0.99245712  0.99469760  0.92215386
   0.04631364  0.93525851  0.91730981
   0.02797528  0.95231911  0.21253373
   0.02946301  0.03124830  0.20106560
   0.20904421  0.14549648  0.03138940
   0.14943452  0.14713132  0.97639870
   0.12246684  0.42271498  0.01266632
   0.14041199  0.39601566  0.08571536
   0.12187587  0.20280079  0.33961061
   0.20193682  0.20680002  0.33563936
Direct configuration=   140
   0.99398201  0.98896639  0.90882433
   0.03525429  0.92741086  0.90220031
   0.02587652  0.95209962  0.22417302
   0.02877735  0.02831951  0.21117951
   0.21388012  0.15399669  0.03050807
   0.15995869  0.13633497  0.97919659
   0.12029470  0.43698952  0.01738438
   0.14049302  0.40499779  0.08486052
   0.12313347  0.20068712  0.34101267
   0.19972914  0.20468028  0.33514335
Direct configuration=   160
   0.99237992  0.98769036  0.89795291
   0.02827210  0.91657417  0.88927213
   0.02433401  0.95151124  0.23406832
   0.02841694  0.02669594  0.21915208
   0.21831995  0.16116778  0.03038212
   0.16823765  0.12764978  0.98153095
   0.11883156  0.44918431  0.02064241
   0.14028013  0.41197277  0.08429581
   0.12284023  0.19927700  0.34270202
   0.19946682  0.20275939  0.33448400
Direct configuration=   180
   0.99264626  0.98192111  0.88710502
   0.01976412  0.91074961  0.87815737
   0.02288399  0.94972884  0.24375920
   0.02832921  0.02687242  0.22565209
   0.22166936  0.16702535  0.03007468
   0.17640744  0.11997223  0.98457868
   0.11753738  0.46120062  0.02225272
   0.14004614  0.41733197  0.08453801
   0.12177796  0.19855022  0.34478127
   0.20031745  0.20113039  0.33358372
Direct configuration=   200
   0.99213201  0.97758812  0.87656717
   0.01195645  0.90354748  0.86766434
   0.02155973  0.95156644  0.25262412
   0.02819936  0.02358421  0.23223548
   0.22174900  0.16980155  0.02751336
   0.18677546  0.11527313  0.99016033
   0.11772204  0.47068971  0.02655359
   0.13871506  0.42419640  0.08170618
   0.12438888  0.19852485  0.34652635
   0.19818133  0.19971086  0.33293185
Direct configuration=   220
   0.99122124  0.97375709  0.86521309
   0.00404570  0.89514728  0.85674886
   0.01929567  0.94943589  0.26362643
   0.02855571  0.02422164  0.23752755
   0.22280234  0.17565046  0.02705877
   0.19601756  0.10696773  0.99414916
   0.11705251  0.48340029  0.02827167
   0.13860000  0.42810533  0.08165449
   0.12291047  0.19907275  0.34932177
   0.20087811  0.19872431  0.33091096
Direct configuration=   240
   0.99066770  0.96364106  0.85096279
   0.99351008  0.88996700  0.84432024
   0.01670091  0.95166357  0.27587176
   0.02850512  0.02019386  0.24460060
   0.22062233  0.17543885  0.02358624
   0.20985388  0.10375342  0.00250969
   0.11809026  0.49516206  0.03399338
   0.13735703  0.43603053  0.07801623
   0.12684065  0.20040555  0.35151225
   0.19923134  0.19822686  0.32910958
Direct configuration=   260
   0.98945286  0.95951377  0.83735276
   0.98315652  0.87878288  0.83137941
   0.01370104  0.95202936  0.28949566
   0.02881651  0.01758219  0.25044926
   0.21813106  0.17643356  0.02064188
   0.22346206  0.09886482  0.01018756
   0.11921003  0.50827693  0.03821054
   0.13681114  0.44244229  0.07582453
   0.12802504  0.20222728  0.35489924
   0.20061304  0.19832968  0.32604192
Direct configuration=   280
   0.98718903  0.94891431  0.82371393
   0.97351828  0.87448435  0.81934193
   0.01129838  0.95316843  0.30238113
   0.02898531  0.01403515  0.25588583
   0.21575166  0.17363046  0.01689864
   0.23620655  0.09742647  0.01826186
   0.12125627  0.51998333  0.04263225
   0.13611186  0.44938288  0.07381849
   0.13037507  0.20408598  0.35807216
   0.20068691  0.19937139  0.32347655
Direct configuration=   300
   0.98535178  0.94285096  0.81188337
   0.96409759  0.86776468  0.80859361
   0.01016484  0.95573987  0.31210996
   0.02866567  0.00929588  0.26177232
   0.21474235  0.16725789  0.01363383
   0.24610305  0.09959248  0.02492290
   0.12401738  0.52818998  0.04728882
   0.13507059  0.45736574  0.07190729
   0.13387124  0.20532214  0.36020357
   0.19929481  0.20110312  0.32216709
Direct configuration=   320
   0.98330206  0.93611953  0.80003891
   0.95460731  0.86190380  0.79815326
   0.00870201  0.95591137  0.32340909
   0.02906691  0.00679531  0.26582540
   0.21279471  0.16324553  0.01056469
   0.25673125  0.09950395  0.03153331
   0.12650974  0.53887874  0.05050665
   0.13420298  0.46251500  0.07132361
   0.13458508  0.20632476  0.36361945
   0.20087725  0.20328477  0.31950839
Direct configuration=   340
   0.97980946  0.92499687  0.78681560
   0.94512706  0.85926837  0.78678513
   0.00853671  0.95858303  0.33273765
   0.02848344  0.00106539  0.27334544
   0.21437972  0.15363992  0.00956103
   0.26450880  0.10469851  0.03706960
   0.12927635  0.54663020  0.05451718
   0.13261539  0.47259409  0.06980836
   0.13918586  0.20690106  0.36456300
   0.19945653  0.20610532  0.31927977
Direct configuration=   360
   0.97918261  0.91804343  0.77241431
   0.93168888  0.85146761  0.77439829
   0.00791214  0.95945226  0.34526274
   0.02876149  0.99664870  0.27926479
   0.21447988  0.14525273  0.00802381
   0.27472276  0.10888061  0.04378065
   0.13138723  0.55834516  0.05822723
   0.13054038  0.48048547  0.06872260
   0.14109998  0.20708901  0.36753672
   0.20160397  0.20881777  0.31685161
Direct configuration=   380
   0.97359932  0.90394532  0.75692960
   0.92191852  0.84994161  0.76067941
   0.00840102  0.96132249  0.35675944
   0.02867129  0.99125385  0.28796360
   0.21834065  0.13394228  0.00857217
   0.28246224  0.11555308  0.04934616
   0.13309043  0.56896013  0.06293397
   0.12764408  0.49149648  0.06681353
   0.14517865  0.20681372  0.36844179
   0.20207310  0.21125381  0.31604308
Direct configuration=   400
   0.97140338  0.89491333  0.74305583
   0.91024463  0.84502167  0.74879669
   0.00956098  0.96328052  0.36659349
   0.02880640  0.98634812  0.29620288
   0.22386781  0.12321449  0.01071437
   0.28707780  0.12223787  0.05300007
   0.13450222  0.57780111  0.06706047
   0.12469053  0.50197740  0.06466881
   0.14855381  0.20617098  0.36912596
   0.20267175  0.21351727  0.31526418
Direct configuration=   420
   0.96715105  0.88465924  0.73050136
   0.90116952  0.84191966  0.73767530
   0.01081579  0.96492249  0.37727696
   0.02966164  0.98224526  0.30256488
   0.22754293  0.11336327  0.01259346
   0.29206765  0.12873114  0.05679631
   0.13629632  0.58737566  0.07046608
   0.12164550  0.51013161  0.06234507
   0.15095012  0.20497823  0.37085162
   0.20407880  0.21615619  0.31341172
Direct configuration=   440
   0.96097319  0.87324232  0.71867319
   0.89413275  0.84025666  0.72633539
   0.01299299  0.96764470  0.38475184
   0.02983464  0.97781885  0.31161380
   0.23543222  0.10482126  0.01766821
   0.29256013  0.13344753  0.05761052
   0.13766467  0.59359059  0.07323376
   0.11929585  0.52123209  0.06049626
   0.15556040  0.20382612  0.37056927
   0.20293247  0.21860263  0.31353052
Direct configuration=   460
   0.95868174  0.86332229  0.70572430
   0.88192377  0.83661517  0.71427651
   0.01466368  0.97035100  0.39559520
   0.03089949  0.97349488  0.31840090
   0.24173565  0.09516379  0.02144086
   0.29517619  0.13902285  0.05998949
   0.14019252  0.60296071  0.07680339
   0.11626869  0.53005085  0.05842569
   0.15837025  0.20179310  0.37293730
   0.20346733  0.22170812  0.31088913
Direct configuration=   480
   0.94775277  0.84907042  0.69130247
   0.87531068  0.83520845  0.69864102
   0.01714871  0.97344275  0.40484539
   0.03178752  0.96779187  0.32965164
   0.25278052  0.08660922  0.02848467
   0.29513423  0.14306593  0.06034580
   0.14249165  0.61109945  0.08027338
   0.11353514  0.54370071  0.05731131
   0.16350103  0.20067616  0.37276516
   0.20193705  0.22381779  0.31086192
Direct configuration=   500
   0.94281809  0.83645486  0.67665614
   0.86333726  0.83268549  0.68364471
   0.01890245  0.97598076  0.41458691
   0.03294462  0.96259864  0.33969223
   0.26421971  0.07960812  0.03616550
   0.29483012  0.14566588  0.06019021
   0.14499743  0.61974188  0.08339754
   0.10993528  0.55635085  0.05645985
   0.16753671  0.19957618  0.37414603
   0.20185762  0.22582009  0.30954363
Direct configuration=   520
   0.93416178  0.82446346  0.66329458
   0.85621408  0.83026333  0.66926083
   0.02004152  0.97797811  0.42361018
   0.03381517  0.95836003  0.34904902
   0.27475538  0.07312392  0.04320323
   0.29516544  0.14777289  0.06022454
   0.14712863  0.62807415  0.08569068
   0.10618078  0.56813891  0.05610395
   0.17170731  0.19914730  0.37516043
   0.20220922  0.22716066  0.30888532
Direct configuration=   540
   0.92526549  0.81389073  0.65116234
   0.85120588  0.82766769  0.65610629
   0.02099619  0.97945819  0.42989319
   0.03379678  0.95477711  0.35897663
   0.28533362  0.07138555  0.05069588
   0.29492878  0.14576945  0.05960291
   0.14791832  0.63430514  0.08663740
   0.10374434  0.57992714  0.05686712
   0.17564896  0.19946444  0.37499257
   0.20254094  0.22783732  0.30954842
Direct configuration=   560
   0.91986961  0.80218283  0.63850446
   0.84227933  0.82593895  0.64271027
   0.02151717  0.98209456  0.43823369
   0.03356874  0.95005006  0.36715992
   0.29581651  0.06695709  0.05776745
   0.29553224  0.14614154  0.05955078
   0.15008101  0.64260355  0.08825640
   0.10021445  0.58990954  0.05724580
   0.17837077  0.19901115  0.37661800
   0.20412947  0.22959349  0.30843599
Direct configuration=   580
   0.90630045  0.79055180  0.62410543
   0.83946894  0.82222319  0.62636577
   0.02258833  0.98430536  0.44472991
   0.03210768  0.94592333  0.37957496
   0.30812812  0.06598686  0.06627009
   0.29654039  0.14162041  0.05967704
   0.15077172  0.65000086  0.08880509
   0.09802108  0.60340005  0.05951212
   0.18248981  0.19965468  0.37540385
   0.20496278  0.23081623  0.31003849
Direct configuration=   600
   0.89735122  0.77556219  0.60863724
   0.83135145  0.82126733  0.60906222
   0.02349905  0.98758521  0.45311074
   0.03046931  0.94072775  0.39091539
   0.32115211  0.06444211  0.07488381
   0.29758532  0.13654735  0.06020204
   0.15313091  0.65886078  0.09014182
   0.09398027  0.61645907  0.06176872
   0.18642592  0.19892912  0.37661253
   0.20643374  0.23410185  0.30914825
Direct configuration=   620
   0.88435901  0.76431321  0.59370363
   0.82758665  0.81716810  0.59223729
   0.02485472  0.98927106  0.45977267
   0.02891158  0.93667352  0.40304484
   0.33352187  0.06367673  0.08283880
   0.29852441  0.13090960  0.06134156
   0.15458156  0.66637678  0.09097135
   0.09130852  0.63000526  0.06465980
   0.19099904  0.19924887  0.37562112
   0.20673196  0.23683963  0.31029171
Direct configuration=   640
   0.87295014  0.75457080  0.58049784
   0.82410601  0.81322638  0.57734246
   0.02649714  0.99034618  0.46550061
   0.02794021  0.93342192  0.41384706
   0.34307372  0.06556143  0.08852267
   0.30020063  0.12290758  0.06357309
   0.15570284  0.67312185  0.09184640
   0.08982195  0.64230402  0.06715487
   0.19460646  0.19924653  0.37545756
   0.20648022  0.23977608  0.31074020
Direct configuration=   660
   0.86299923  0.74333795  0.56762943
   0.81977597  0.81106519  0.56271245
   0.02856063  0.99188776  0.47196101
   0.02745033  0.93001667  0.42370941
   0.35328785  0.06574049  0.09460223
   0.30017153  0.11657654  0.06517285
   0.15763602  0.68027401  0.09329658
   0.08791872  0.65372750  0.06882085
   0.19806088  0.19923341  0.37569673
   0.20551815  0.24262323  0.31088120
Direct configuration=   680
   0.84885514  0.73656663  0.55336614
   0.81860169  0.80403640  0.54755821
   0.03112152  0.99178177  0.47728688
   0.02744877  0.92812858  0.43567465
   0.36102791  0.06847901  0.09922560
   0.30258479  0.10667662  0.06849332
   0.15752619  0.68726024  0.09447397
   0.08808151  0.66660854  0.07120705
   0.20240537  0.20051622  0.37461301
   0.20372642  0.24442875  0.31258391
Direct configuration=   700
   0.83606866  0.72415649  0.53820951
   0.81468891  0.80159408  0.53105070
   0.03398790  0.99341083  0.48403254
   0.02802534  0.92393481  0.44761031
   0.36998203  0.07067664  0.10410541
   0.30407793  0.09663011  0.07162080
   0.15953020  0.69549228  0.09663983
   0.08608707  0.67980331  0.07329651
   0.20717842  0.20081776  0.37562872
   0.20175285  0.24796646  0.31228842
Direct configuration=   720
   0.82106229  0.71702375  0.52133163
   0.81184870  0.79268430  0.51426828
   0.03629030  0.99259357  0.48989566
   0.02956953  0.92167236  0.46156059
   0.37782189  0.07420543  0.10870581
   0.30762302  0.08503930  0.07596136
   0.15918086  0.70348019  0.09800223
   0.08618774  0.69441053  0.07642046
   0.21147249  0.20357184  0.37382406
   0.20032251  0.24980149  0.31451267
Direct configuration=   740
   0.80742225  0.70906407  0.50584816
   0.80913986  0.78596249  0.49873135
   0.03775227  0.99290180  0.49563068
   0.03137060  0.91860005  0.47391235
   0.38268632  0.07840895  0.11250716
   0.31351332  0.07361867  0.08095839
   0.15972199  0.71071350  0.09942391
   0.08486470  0.70791439  0.07890923
   0.21564120  0.20458076  0.37410920
   0.19926681  0.25271809  0.31445233
Direct configuration=   760
   0.79441874  0.70117319  0.49121950
   0.80714621  0.77967929  0.48409747
   0.03842804  0.99285497  0.50153339
   0.03318934  0.91678005  0.48576466
   0.38810008  0.08234857  0.11654435
   0.31820937  0.06297770  0.08492890
   0.15919889  0.71748004  0.10051462
   0.08388076  0.72088272  0.08105114
   0.21946623  0.20639604  0.37327555
   0.19934165  0.25391019  0.31555317
Direct configuration=   780
   0.78237172  0.69824213  0.47638528
   0.80485377  0.76904598  0.47029000
   0.03858325  0.99210759  0.50729820
   0.03477291  0.91631823  0.49770565
   0.39006796  0.08458744  0.11884741
   0.32665785  0.05370197  0.09061651
   0.15726213  0.72451592  0.10130741
   0.08358672  0.73360013  0.08281647
   0.22300969  0.20781693  0.37284611
   0.20021329  0.25454643  0.31636972
Direct configuration=   800
   0.76817225  0.69074147  0.46107663
   0.80432829  0.76270812  0.45573431
   0.03856355  0.99311425  0.51338629
   0.03596800  0.91451215  0.51008281
   0.39379877  0.08743055  0.12227825
   0.33430956  0.04334795  0.09628140
   0.15653666  0.73185019  0.10237574
   0.08160079  0.74701488  0.08368845
   0.22653499  0.20818612  0.37377578
   0.20156646  0.25557707  0.31580310
Direct configuration=   820
   0.75598890  0.68859904  0.44374683
   0.80065276  0.74974550  0.44057565
   0.03828957  0.99154904  0.52010155
   0.03698441  0.91540923  0.52373832
   0.39518214  0.08895924  0.12529290
   0.34523077  0.03386930  0.10344461
   0.15328063  0.74083180  0.10279637
   0.08200069  0.76097419  0.08500336
   0.22913906  0.21007896  0.37296391
   0.20463039  0.25446647  0.31681927
Direct configuration=   840
   0.74283489  0.68419979  0.42673188
   0.79822439  0.73927377  0.42560011
   0.03783404  0.99192276  0.52629814
   0.03758532  0.91445623  0.53727409
   0.39533813  0.08989786  0.12780659
   0.35701069  0.02547505  0.11135620
   0.15230629  0.74926599  0.10365220
   0.08048085  0.77518720  0.08596661
   0.23301518  0.21006988  0.37479368
   0.20674952  0.25473424  0.31500327
Direct configuration=   860
   0.73124749  0.68128898  0.41028260
   0.79502369  0.72803836  0.41119732
   0.03711946  0.99048840  0.53274360
   0.03787037  0.91516053  0.55016021
   0.39519125  0.09109302  0.12958291
   0.36850214  0.01761128  0.11914906
   0.14985656  0.75794815  0.10399237
   0.08078394  0.78824072  0.08789092
   0.23598738  0.21193423  0.37433277
   0.20979703  0.25267909  0.31515099
Direct configuration=   880
   0.72313966  0.68093204  0.39474521
   0.78989704  0.71526495  0.39744309
   0.03609207  0.98889483  0.53841377
   0.03781511  0.91582948  0.56258988
   0.39346337  0.08864830  0.12999331
   0.38079025  0.01382380  0.12760301
   0.14799150  0.76594706  0.10442160
   0.08058027  0.80083784  0.09045651
   0.23923418  0.21293458  0.37540561
   0.21237587  0.25136987  0.31341077
Direct configuration=   900
   0.71199021  0.67914203  0.37926417
   0.78842434  0.70415704  0.38372587
   0.03471888  0.98742220  0.54351586
   0.03745655  0.91593676  0.57562237
   0.39181684  0.08765472  0.12986645
   0.39290016  0.00907704  0.13582881
   0.14627519  0.77345607  0.10505815
   0.07994984  0.81352374  0.09375724
   0.24197728  0.21428861  0.37620047
   0.21587001  0.24982454  0.31164337
Direct configuration=   920
   0.70665737  0.67908926  0.36334174
   0.78077250  0.69052325  0.36866662
   0.03309719  0.98344830  0.54971615
   0.03661404  0.91819702  0.58887183
   0.39010632  0.08223700  0.12954965
   0.40584938  0.00840698  0.14431410
   0.14262076  0.78230513  0.10569477
   0.08065386  0.82592386  0.09773187
   0.24437211  0.21641960  0.37578604
   0.22063577  0.24793236  0.31080999
Direct configuration=   940
   0.69792224  0.67816805  0.34711596
   0.77655737  0.67730612  0.35366365
   0.03129650  0.98111346  0.55479505
   0.03534420  0.91931345  0.60329989
   0.38878740  0.07565133  0.12911880
   0.41894733  0.00836937  0.15248278
   0.14043918  0.79000096  0.10701286
   0.07938922  0.83943839  0.10141080
   0.24813178  0.21739172  0.37750363
   0.22456408  0.24772992  0.30807934
Direct configuration=   960
   0.69240219  0.67665327  0.33097653
   0.76935106  0.66375643  0.33821579
   0.02960870  0.97695690  0.56189041
   0.03330015  0.92280984  0.61593859
   0.38819779  0.06743649  0.12884540
   0.43162619  0.01003070  0.16018303
   0.13634129  0.79969184  0.10846158
   0.07979109  0.85099923  0.10539863
   0.25125624  0.21934864  0.37582145
   0.22950462  0.24679942  0.30875135
Direct configuration=   980
   0.68874155  0.67436609  0.31586657
   0.76042775  0.65118634  0.32314534
   0.02822483  0.97374356  0.56797657
   0.03101538  0.92526872  0.62870811
   0.38972826  0.05693256  0.12975567
   0.44181441  0.01465993  0.16563965
   0.13402220  0.80797706  0.11010913
   0.07868250  0.86287936  0.10954542
   0.25502806  0.21952011  0.37700593
   0.23369439  0.24794902  0.30673037
Direct configuration=  1000
   0.68248390  0.67293561  0.30102243
   0.75431527  0.63779301  0.30829950
   0.02741453  0.96943704  0.57463550
   0.02876695  0.92818509  0.64060292
   0.39087909  0.04698517  0.13018137
   0.45226348  0.01906815  0.17131648
   0.13109605  0.81717578  0.11162737
   0.07809342  0.87384029  0.11368080
   0.25752998  0.21998845  0.37599572
   0.23853664  0.24907418  0.30712067
