 253 253   0   0
  0.2277282E+02  0.1514622E-08  0.1514622E-08  0.2900000E-08  0.2000000E-15
  1.000000000000000E-004
  CAR 
 NiAl                                    
      5.94042660    -18.85934256  301     -0.57472374      1.00000000
    -18.859  0.0000E+00  0.0000E+00
    -18.777  0.0000E+00  0.0000E+00
    -18.694  0.0000E+00  0.0000E+00
    -18.611  0.0000E+00  0.0000E+00
    -18.529  0.0000E+00  0.0000E+00
    -18.446  0.0000E+00  0.0000E+00
    -18.363  0.0000E+00  0.0000E+00
    -18.281  0.0000E+00  0.0000E+00
    -18.198  0.0000E+00  0.0000E+00
    -18.115  0.0000E+00  0.0000E+00
    -18.033  0.0000E+00  0.0000E+00
    -17.950  0.2138E-09  0.1767E-10
    -17.867  0.3933E-04  0.3251E-05
    -17.785  0.4130E-01  0.3417E-02
    -17.702  0.4439E+00  0.4012E-01
    -17.619  0.1191E+00  0.4996E-01
    -17.537  0.4331E-03  0.5000E-01
    -17.454  0.9896E-08  0.5000E-01
    -17.371  0.1091E-14  0.5000E-01
    -17.289  0.0000E+00  0.5000E-01
    -17.206  0.0000E+00  0.5000E-01
    -17.123  0.0000E+00  0.5000E-01
    -17.041  0.0000E+00  0.5000E-01
    -16.958  0.0000E+00  0.5000E-01
    -16.875  0.0000E+00  0.5000E-01
    -16.793  0.0000E+00  0.5000E-01
    -16.710  0.0000E+00  0.5000E-01
    -16.627  0.0000E+00  0.5000E-01
    -16.545  0.0000E+00  0.5000E-01
    -16.462  0.0000E+00  0.5000E-01
    -16.379  0.0000E+00  0.5000E-01
    -16.297  0.0000E+00  0.5000E-01
    -16.214  0.0000E+00  0.5000E-01
    -16.131  0.0000E+00  0.5000E-01
    -16.049  0.0000E+00  0.5000E-01
    -15.966  0.0000E+00  0.5000E-01
    -15.883  0.0000E+00  0.5000E-01
    -15.801  0.0000E+00  0.5000E-01
    -15.718  0.0000E+00  0.5000E-01
    -15.635  0.0000E+00  0.5000E-01
    -15.553  0.0000E+00  0.5000E-01
    -15.470  0.0000E+00  0.5000E-01
    -15.387  0.0000E+00  0.5000E-01
    -15.305  0.0000E+00  0.5000E-01
    -15.222  0.0000E+00  0.5000E-01
    -15.139  0.0000E+00  0.5000E-01
    -15.057  0.0000E+00  0.5000E-01
    -14.974  0.0000E+00  0.5000E-01
    -14.891  0.0000E+00  0.5000E-01
    -14.809  0.0000E+00  0.5000E-01
    -14.726  0.0000E+00  0.5000E-01
    -14.643  0.0000E+00  0.5000E-01
    -14.561  0.0000E+00  0.5000E-01
    -14.478  0.0000E+00  0.5000E-01
    -14.395  0.0000E+00  0.5000E-01
    -14.313  0.0000E+00  0.5000E-01
    -14.230  0.0000E+00  0.5000E-01
    -14.147  0.0000E+00  0.5000E-01
    -14.065  0.0000E+00  0.5000E-01
    -13.982  0.0000E+00  0.5000E-01
    -13.899  0.0000E+00  0.5000E-01
    -13.817  0.0000E+00  0.5000E-01
    -13.734  0.0000E+00  0.5000E-01
    -13.651  0.0000E+00  0.5000E-01
    -13.569  0.0000E+00  0.5000E-01
    -13.486  0.0000E+00  0.5000E-01
    -13.403  0.0000E+00  0.5000E-01
    -13.321  0.0000E+00  0.5000E-01
    -13.238  0.0000E+00  0.5000E-01
    -13.155  0.0000E+00  0.5000E-01
    -13.073  0.0000E+00  0.5000E-01
    -12.990  0.0000E+00  0.5000E-01
    -12.907  0.0000E+00  0.5000E-01
    -12.825  0.0000E+00  0.5000E-01
    -12.742  0.0000E+00  0.5000E-01
    -12.659  0.0000E+00  0.5000E-01
    -12.577  0.0000E+00  0.5000E-01
    -12.494  0.0000E+00  0.5000E-01
    -12.411  0.0000E+00  0.5000E-01
    -12.329  0.0000E+00  0.5000E-01
    -12.246  0.0000E+00  0.5000E-01
    -12.163  0.0000E+00  0.5000E-01
    -12.081  0.0000E+00  0.5000E-01
    -11.998  0.0000E+00  0.5000E-01
    -11.915  0.0000E+00  0.5000E-01
    -11.833  0.0000E+00  0.5000E-01
    -11.750  0.0000E+00  0.5000E-01
    -11.667  0.0000E+00  0.5000E-01
    -11.585  0.0000E+00  0.5000E-01
    -11.502  0.0000E+00  0.5000E-01
    -11.419  0.0000E+00  0.5000E-01
    -11.337  0.0000E+00  0.5000E-01
    -11.254  0.0000E+00  0.5000E-01
    -11.171  0.0000E+00  0.5000E-01
    -11.089  0.0000E+00  0.5000E-01
    -11.006  0.0000E+00  0.5000E-01
    -10.923  0.0000E+00  0.5000E-01
    -10.841  0.0000E+00  0.5000E-01
    -10.758  0.0000E+00  0.5000E-01
    -10.675  0.0000E+00  0.5000E-01
    -10.593  0.0000E+00  0.5000E-01
    -10.510  0.0000E+00  0.5000E-01
    -10.427  0.0000E+00  0.5000E-01
    -10.345  0.0000E+00  0.5000E-01
    -10.262  0.0000E+00  0.5000E-01
    -10.179  0.0000E+00  0.5000E-01
    -10.097  0.0000E+00  0.5000E-01
    -10.014  0.0000E+00  0.5000E-01
     -9.931  0.0000E+00  0.5000E-01
     -9.849  0.0000E+00  0.5000E-01
     -9.766  0.0000E+00  0.5000E-01
     -9.683  0.0000E+00  0.5000E-01
     -9.601  0.0000E+00  0.5000E-01
     -9.518  0.0000E+00  0.5000E-01
     -9.435  0.0000E+00  0.5000E-01
     -9.353  0.5876E-16  0.5000E-01
     -9.270  0.7911E-09  0.5000E-01
     -9.187  0.5383E-04  0.5000E-01
     -9.105  0.2227E-01  0.5185E-01
     -9.022  0.1140E+00  0.6127E-01
     -8.939  0.1756E-01  0.6272E-01
     -8.857  0.2869E+00  0.8644E-01
     -8.774  0.5854E+00  0.1348E+00
     -8.691  0.3223E-01  0.1375E+00
     -8.609  0.1882E-02  0.1377E+00
     -8.526  0.7961E-01  0.1442E+00
     -8.443  0.1885E+00  0.1598E+00
     -8.361  0.8358E+00  0.2289E+00
     -8.278  0.7772E+00  0.2932E+00
     -8.195  0.5225E+00  0.3364E+00
     -8.113  0.6141E+00  0.3871E+00
     -8.030  0.6130E+00  0.4378E+00
     -7.947  0.5110E+00  0.4800E+00
     -7.865  0.3895E+00  0.5122E+00
     -7.782  0.4044E+00  0.5457E+00
     -7.699  0.6668E+00  0.6008E+00
     -7.617  0.5614E+00  0.6472E+00
     -7.534  0.6262E+00  0.6990E+00
     -7.451  0.1751E+01  0.8437E+00
     -7.369  0.7406E+00  0.9049E+00
     -7.286  0.9114E-01  0.9125E+00
     -7.203  0.5491E-02  0.9129E+00
     -7.121  0.4315E+00  0.9486E+00
     -7.038  0.1458E+01  0.1069E+01
     -6.955  0.1076E+01  0.1158E+01
     -6.873  0.8221E+00  0.1226E+01
     -6.790  0.5667E+00  0.1273E+01
     -6.707  0.1730E+00  0.1287E+01
     -6.625  0.5179E+00  0.1330E+01
     -6.542  0.7750E+00  0.1394E+01
     -6.459  0.1080E+01  0.1483E+01
     -6.377  0.1103E+01  0.1574E+01
     -6.294  0.1629E+01  0.1709E+01
     -6.211  0.1124E+01  0.1802E+01
     -6.129  0.4860E+00  0.1842E+01
     -6.046  0.1188E+01  0.1940E+01
     -5.963  0.1416E+01  0.2058E+01
     -5.881  0.2261E+01  0.2244E+01
     -5.798  0.1096E+01  0.2335E+01
     -5.715  0.1824E+00  0.2350E+01
     -5.633  0.1236E+00  0.2360E+01
     -5.550  0.6233E+00  0.2412E+01
     -5.467  0.1198E+01  0.2511E+01
     -5.385  0.3277E+01  0.2782E+01
     -5.302  0.2750E+01  0.3009E+01
     -5.219  0.1612E+01  0.3142E+01
     -5.137  0.1697E+01  0.3283E+01
     -5.054  0.2868E+01  0.3520E+01
     -4.971  0.2815E+01  0.3752E+01
     -4.889  0.1576E+01  0.3883E+01
     -4.806  0.1359E+01  0.3995E+01
     -4.723  0.5973E+01  0.4489E+01
     -4.641  0.5407E+01  0.4936E+01
     -4.558  0.4561E+01  0.5313E+01
     -4.475  0.5763E+01  0.5789E+01
     -4.393  0.6461E+01  0.6323E+01
     -4.310  0.8160E+01  0.6998E+01
     -4.227  0.5429E+01  0.7447E+01
     -4.145  0.7037E+01  0.8028E+01
     -4.062  0.6484E+01  0.8564E+01
     -3.979  0.1045E+02  0.9428E+01
     -3.897  0.1188E+02  0.1041E+02
     -3.814  0.1272E+02  0.1146E+02
     -3.731  0.1128E+02  0.1239E+02
     -3.649  0.1157E+02  0.1335E+02
     -3.566  0.1147E+02  0.1430E+02
     -3.483  0.9462E+01  0.1508E+02
     -3.401  0.9385E+01  0.1586E+02
     -3.318  0.8588E+01  0.1657E+02
     -3.235  0.1052E+02  0.1744E+02
     -3.153  0.1359E+02  0.1856E+02
     -3.070  0.1136E+02  0.1950E+02
     -2.987  0.8842E+01  0.2023E+02
     -2.905  0.1441E+02  0.2142E+02
     -2.822  0.1375E+02  0.2256E+02
     -2.739  0.1200E+02  0.2355E+02
     -2.657  0.1409E+02  0.2471E+02
     -2.574  0.1370E+02  0.2585E+02
     -2.491  0.1706E+02  0.2726E+02
     -2.409  0.1828E+02  0.2877E+02
     -2.326  0.2038E+02  0.3045E+02
     -2.243  0.2322E+02  0.3237E+02
     -2.161  0.1953E+02  0.3399E+02
     -2.078  0.2107E+02  0.3573E+02
     -1.995  0.2184E+02  0.3754E+02
     -1.913  0.1712E+02  0.3895E+02
     -1.830  0.1390E+02  0.4010E+02
     -1.748  0.1513E+02  0.4135E+02
     -1.665  0.1361E+02  0.4248E+02
     -1.582  0.1355E+02  0.4360E+02
     -1.500  0.1539E+02  0.4487E+02
     -1.417  0.2035E+02  0.4655E+02
     -1.334  0.1886E+02  0.4811E+02
     -1.252  0.1262E+02  0.4915E+02
     -1.169  0.1416E+02  0.5032E+02
     -1.086  0.1932E+02  0.5192E+02
     -1.004  0.1930E+02  0.5351E+02
     -0.921  0.2176E+02  0.5531E+02
     -0.838  0.1551E+02  0.5660E+02
     -0.756  0.1828E+02  0.5811E+02
     -0.673  0.2495E+02  0.6017E+02
     -0.590  0.3048E+02  0.6269E+02
     -0.508  0.2257E+02  0.6456E+02
     -0.425  0.1393E+02  0.6571E+02
     -0.342  0.7314E+01  0.6631E+02
     -0.260  0.3486E+01  0.6660E+02
     -0.177  0.3231E+01  0.6687E+02
     -0.094  0.3968E+01  0.6720E+02
     -0.012  0.3755E+01  0.6751E+02
      0.071  0.1830E+01  0.6766E+02
      0.154  0.1350E+01  0.6777E+02
      0.236  0.1980E+01  0.6793E+02
      0.319  0.1306E+01  0.6804E+02
      0.402  0.1813E+01  0.6819E+02
      0.484  0.2589E+01  0.6840E+02
      0.567  0.2133E+01  0.6858E+02
      0.650  0.2485E+01  0.6879E+02
      0.732  0.1696E+01  0.6893E+02
      0.815  0.2252E+01  0.6911E+02
      0.898  0.3069E+01  0.6937E+02
      0.980  0.3117E+01  0.6962E+02
      1.063  0.2019E+01  0.6979E+02
      1.146  0.1315E+01  0.6990E+02
      1.228  0.8471E+00  0.6997E+02
      1.311  0.2574E+01  0.7018E+02
      1.394  0.1925E+01  0.7034E+02
      1.476  0.9989E+00  0.7042E+02
      1.559  0.1269E+01  0.7053E+02
      1.642  0.2907E+01  0.7077E+02
      1.724  0.1999E+01  0.7093E+02
      1.807  0.1979E+01  0.7110E+02
      1.890  0.2052E+01  0.7127E+02
      1.972  0.2650E+01  0.7149E+02
      2.055  0.1533E+01  0.7161E+02
      2.138  0.1221E+01  0.7171E+02
      2.220  0.2322E+01  0.7191E+02
      2.303  0.2409E+01  0.7211E+02
      2.386  0.2371E+01  0.7230E+02
      2.468  0.9853E+00  0.7238E+02
      2.551  0.1084E+01  0.7247E+02
      2.634  0.1909E+01  0.7263E+02
      2.716  0.1151E+01  0.7273E+02
      2.799  0.3040E+00  0.7275E+02
      2.882  0.8833E+00  0.7282E+02
      2.964  0.1711E+01  0.7296E+02
      3.047  0.3634E+01  0.7327E+02
      3.130  0.4958E+01  0.7368E+02
      3.212  0.1812E+01  0.7382E+02
      3.295  0.8529E+00  0.7390E+02
      3.378  0.1040E+01  0.7398E+02
      3.460  0.1539E+01  0.7411E+02
      3.543  0.2080E+01  0.7428E+02
      3.626  0.1081E+01  0.7437E+02
      3.708  0.1460E+01  0.7449E+02
      3.791  0.1459E+01  0.7461E+02
      3.874  0.6108E+00  0.7466E+02
      3.956  0.5636E+00  0.7471E+02
      4.039  0.6371E+00  0.7476E+02
      4.122  0.7263E+00  0.7482E+02
      4.204  0.1985E+01  0.7499E+02
      4.287  0.1212E+01  0.7509E+02
      4.370  0.1296E+01  0.7519E+02
      4.452  0.1607E+01  0.7533E+02
      4.535  0.2661E+01  0.7555E+02
      4.618  0.1917E+01  0.7570E+02
      4.700  0.1895E+01  0.7586E+02
      4.783  0.2375E+00  0.7588E+02
      4.866  0.2223E+00  0.7590E+02
      4.948  0.2046E-01  0.7590E+02
      5.031  0.1928E-04  0.7590E+02
      5.114  0.1037E-09  0.7590E+02
      5.196  0.0000E+00  0.7590E+02
      5.279  0.0000E+00  0.7590E+02
      5.362  0.0000E+00  0.7590E+02
      5.444  0.0000E+00  0.7590E+02
      5.527  0.0000E+00  0.7590E+02
      5.610  0.0000E+00  0.7590E+02
      5.692  0.0000E+00  0.7590E+02
      5.775  0.0000E+00  0.7590E+02
      5.858  0.0000E+00  0.7590E+02
      5.940  0.0000E+00  0.7590E+02
