  253  253   40    1
  0.2277282E+02  0.1514622E-08  0.1514622E-08  0.2900000E-08  0.2000000E-15
  1.000000000000000E-004
  CAR 
 NiAl                                    
   2525      2   1518
 
  0.0000000E+00  0.0000000E+00  0.0000000E+00  0.2500000E+00
    1      -17.732036   1.000000
    2       -9.067758   1.000000
    3       -8.529330   1.000000
    4       -8.254197   1.000000
    5       -8.254160   1.000000
    6       -8.179006   1.000000
    7       -8.169158   1.000000
    8       -8.169154   1.000000
    9       -8.168524   1.000000
   10       -8.003415   1.000000
   11       -8.003342   1.000000
   12       -7.831728   1.000000
   13       -7.701524   1.000000
   14       -7.664184   1.000000
   15       -7.664181   1.000000
   16       -7.664065   1.000000
   17       -7.545273   1.000000
   18       -7.545246   1.000000
   19       -7.386164   1.000000
   20       -6.876675   1.000000
   21       -6.876671   1.000000
   22       -6.875930   1.000000
   23       -6.829751   1.000000
   24       -6.829746   1.000000
   25       -6.747187   1.000000
   26       -6.651651   1.000000
   27       -6.532024   1.000000
   28       -6.532006   1.000000
   29       -6.531703   1.000000
   30       -6.505481   1.000000
   31       -6.505461   1.000000
   32       -6.477933   1.000000
   33       -6.112682   1.000000
   34       -6.112663   1.000000
   35       -6.112528   1.000000
   36       -6.066233   1.000000
   37       -6.066217   1.000000
   38       -6.035761   1.000000
   39       -5.910524   1.000000
   40       -5.910265   1.000000
   41       -5.910258   1.000000
   42       -5.908476   1.000000
   43       -5.908448   1.000000
   44       -5.907789   1.000000
   45       -5.907576   1.000000
   46       -5.907566   1.000000
   47       -5.889619   1.000000
   48       -5.869413   1.000000
   49       -5.869388   1.000000
   50       -5.795477   1.000000
   51       -5.644151   1.000000
   52       -5.577693   1.000000
   53       -5.577430   1.000000
   54       -5.577392   1.000000
   55       -5.547371   1.000000
   56       -5.547334   1.000000
   57       -5.545791   1.000000
   58       -5.484543   1.000000
   59       -5.483913   1.000000
   60       -5.483897   1.000000
   61       -5.415742   1.000000
   62       -5.415735   1.000000
   63       -5.336180   1.000000
   64       -5.129623   1.000000
   65       -5.128986   1.000000
   66       -5.128971   1.000000
   67       -5.088529   1.000000
   68       -5.088513   1.000000
   69       -5.050629   1.000000
   70       -5.014976   1.000000
   71       -4.973384   1.000000
   72       -4.973332   1.000000
   73       -4.970717   1.000000
   74       -4.969301   1.000000
   75       -4.969268   1.000000
   76       -4.895588   1.000000
   77       -4.840192   1.000000
   78       -4.794757   1.000000
   79       -4.793801   1.000000
   80       -4.793766   1.000000
   81       -4.761391   1.000000
   82       -4.760453   1.000000
   83       -4.760441   1.000000
   84       -4.744752   1.000000
   85       -4.744749   1.000000
   86       -4.719933   1.000000
   87       -4.675817   1.000000
   88       -4.675598   1.000000
   89       -4.675568   1.000000
   90       -4.662069   1.000000
   91       -4.662018   1.000000
   92       -4.661774   1.000000
   93       -4.656211   1.000000
   94       -4.656170   1.000000
   95       -4.591314   1.000000
   96       -4.568693   1.000000
   97       -4.568679   1.000000
   98       -4.568650   1.000000
   99       -4.566103   1.000000
  100       -4.566087   1.000000
  101       -4.566052   1.000000
  102       -4.564395   1.000000
  103       -4.564389   1.000000
  104       -4.564053   1.000000
  105       -4.552291   1.000000
  106       -4.552278   1.000000
  107       -4.549782   1.000000
  108       -4.510375   1.000000
  109       -4.498992   1.000000
  110       -4.498956   1.000000
  111       -4.449842   1.000000
  112       -4.449794   1.000000
  113       -4.441777   1.000000
  114       -4.421289   1.000000
  115       -4.421265   1.000000
  116       -4.420319   1.000000
  117       -4.420277   1.000000
  118       -4.419892   1.000000
  119       -4.366376   1.000000
  120       -4.366166   1.000000
  121       -4.364928   1.000000
  122       -4.364911   1.000000
  123       -4.362633   1.000000
  124       -4.362608   1.000000
  125       -4.361926   1.000000
  126       -4.361181   1.000000
  127       -4.360484   1.000000
  128       -4.360482   1.000000
  129       -4.355261   1.000000
  130       -4.355248   1.000000
  131       -4.354897   1.000000
  132       -4.354715   1.000000
  133       -4.354711   1.000000
  134       -4.353239   1.000000
  135       -4.352501   1.000000
  136       -4.352489   1.000000
  137       -4.349421   1.000000
  138       -4.349414   1.000000
  139       -4.349355   1.000000
  140       -4.348518   1.000000
  141       -4.319701   1.000000
  142       -4.308043   1.000000
  143       -4.308023   1.000000
  144       -4.305370   1.000000
  145       -4.303450   1.000000
  146       -4.303400   1.000000
  147       -4.301812   1.000000
  148       -4.301795   1.000000
  149       -4.270014   1.000000
  150       -4.268526   1.000000
  151       -4.268461   1.000000
  152       -4.260060   1.000000
  153       -4.259403   1.000000
  154       -4.259342   1.000000
  155       -4.243161   1.000000
  156       -4.238555   1.000000
  157       -4.238503   1.000000
  158       -4.214438   1.000000
  159       -4.214433   1.000000
  160       -4.212920   1.000000
  161       -4.212919   1.000000
  162       -4.212631   1.000000
  163       -4.212616   1.000000
  164       -4.204056   1.000000
  165       -4.203437   1.000000
  166       -4.203422   1.000000
  167       -4.179388   1.000000
  168       -4.155975   1.000000
  169       -4.155945   1.000000
  170       -4.146822   1.000000
  171       -4.146099   1.000000
  172       -4.145964   1.000000
  173       -4.119931   1.000000
  174       -4.119793   1.000000
  175       -4.119781   1.000000
  176       -4.110556   1.000000
  177       -4.110547   1.000000
  178       -4.080412   1.000000
  179       -4.077355   1.000000
  180       -4.037007   1.000000
  181       -4.036959   1.000000
  182       -4.027652   1.000000
  183       -4.016900   1.000000
  184       -4.016885   1.000000
  185       -4.014549   1.000000
  186       -4.013788   1.000000
  187       -4.013764   1.000000
  188       -4.009755   1.000000
  189       -4.008841   1.000000
  190       -4.008825   1.000000
  191       -4.006625   1.000000
  192       -3.978131   1.000000
  193       -3.978042   1.000000
  194       -3.975600   1.000000
  195       -3.961337   1.000000
  196       -3.961270   1.000000
  197       -3.927641   1.000000
  198       -3.916790   1.000000
  199       -3.916687   1.000000
  200       -3.911552   1.000000
  201       -3.910049   1.000000
  202       -3.909935   1.000000
  203       -3.901326   1.000000
  204       -3.889719   1.000000
  205       -3.889648   1.000000
  206       -3.871766   1.000000
  207       -3.869246   1.000000
  208       -3.869173   1.000000
  209       -3.868227   1.000000
  210       -3.867850   1.000000
  211       -3.867428   1.000000
  212       -3.867367   1.000000
  213       -3.867124   1.000000
  214       -3.866983   1.000000
  215       -3.864223   1.000000
  216       -3.864148   1.000000
  217       -3.863244   1.000000
  218       -3.858890   1.000000
  219       -3.857374   1.000000
  220       -3.857254   1.000000
  221       -3.845393   1.000000
  222       -3.845318   1.000000
  223       -3.838567   1.000000
  224       -3.822746   1.000000
  225       -3.776517   1.000000
  226       -3.776499   1.000000
  227       -3.774734   1.000000
  228       -3.774706   1.000000
  229       -3.774470   1.000000
  230       -3.772669   1.000000
  231       -3.770165   1.000000
  232       -3.768596   1.000000
  233       -3.768569   1.000000
  234       -3.748776   1.000000
  235       -3.748749   1.000000
  236       -3.743489   1.000000
  237       -3.743466   1.000000
  238       -3.741313   1.000000
  239       -3.733975   1.000000
  240       -3.733962   1.000000
  241       -3.728391   1.000000
  242       -3.725308   1.000000
  243       -3.723637   1.000000
  244       -3.722183   1.000000
  245       -3.722135   1.000000
  246       -3.720014   1.000000
  247       -3.718711   1.000000
  248       -3.718656   1.000000
  249       -3.714613   1.000000
  250       -3.714582   1.000000
  251       -3.714283   1.000000
  252       -3.704619   1.000000
  253       -3.704604   1.000000
  254       -3.696344   1.000000
  255       -3.681144   1.000000
  256       -3.681105   1.000000
  257       -3.676702   1.000000
  258       -3.675616   1.000000
  259       -3.675505   1.000000
  260       -3.675222   1.000000
  261       -3.675090   1.000000
  262       -3.674944   1.000000
  263       -3.671309   1.000000
  264       -3.665832   1.000000
  265       -3.665801   1.000000
  266       -3.663086   1.000000
  267       -3.660134   1.000000
  268       -3.660113   1.000000
  269       -3.623036   1.000000
  270       -3.619944   1.000000
  271       -3.619815   1.000000
  272       -3.617270   1.000000
  273       -3.617152   1.000000
  274       -3.611123   1.000000
  275       -3.605005   1.000000
  276       -3.604697   1.000000
  277       -3.595991   1.000000
  278       -3.595984   1.000000
  279       -3.583904   1.000000
  280       -3.583883   1.000000
  281       -3.583623   1.000000
  282       -3.574839   1.000000
  283       -3.574811   1.000000
  284       -3.573256   1.000000
  285       -3.567866   1.000000
  286       -3.567833   1.000000
  287       -3.564252   1.000000
  288       -3.563149   1.000000
  289       -3.558237   1.000000
  290       -3.558175   1.000000
  291       -3.547332   1.000000
  292       -3.547271   1.000000
  293       -3.537924   1.000000
  294       -3.501687   1.000000
  295       -3.494234   1.000000
  296       -3.487965   1.000000
  297       -3.487909   1.000000
  298       -3.483654   1.000000
  299       -3.483594   1.000000
  300       -3.483444   1.000000
  301       -3.483073   1.000000
  302       -3.480324   1.000000
  303       -3.480274   1.000000
  304       -3.477199   1.000000
  305       -3.474190   1.000000
  306       -3.474166   1.000000
  307       -3.467651   1.000000
  308       -3.467589   1.000000
  309       -3.438562   1.000000
  310       -3.438527   1.000000
  311       -3.437155   1.000000
  312       -3.435896   1.000000
  313       -3.431359   1.000000
  314       -3.431313   1.000000
  315       -3.411961   1.000000
  316       -3.411957   1.000000
  317       -3.407781   1.000000
  318       -3.404951   1.000000
  319       -3.404927   1.000000
  320       -3.401313   1.000000
  321       -3.401230   1.000000
  322       -3.400727   1.000000
  323       -3.400695   1.000000
  324       -3.399538   1.000000
  325       -3.398974   1.000000
  326       -3.398945   1.000000
  327       -3.397934   1.000000
  328       -3.397886   1.000000
  329       -3.397483   1.000000
  330       -3.391434   1.000000
  331       -3.390882   1.000000
  332       -3.390819   1.000000
  333       -3.382529   1.000000
  334       -3.382461   1.000000
  335       -3.379999   1.000000
  336       -3.355034   1.000000
  337       -3.355007   1.000000
  338       -3.353040   1.000000
  339       -3.307520   1.000000
  340       -3.291242   1.000000
  341       -3.291232   1.000000
  342       -3.273988   1.000000
  343       -3.273950   1.000000
  344       -3.262367   1.000000
  345       -3.262322   1.000000
  346       -3.260078   1.000000
  347       -3.241377   1.000000
  348       -3.233633   1.000000
  349       -3.229325   1.000000
  350       -3.229308   1.000000
  351       -3.216860   1.000000
  352       -3.216808   1.000000
  353       -3.211775   1.000000
  354       -3.211739   1.000000
  355       -3.209721   1.000000
  356       -3.206860   1.000000
  357       -3.205861   1.000000
  358       -3.205833   1.000000
  359       -3.189601   1.000000
  360       -3.189584   1.000000
  361       -3.189466   1.000000
  362       -3.167753   1.000000
  363       -3.167744   1.000000
  364       -3.165823   1.000000
  365       -3.158278   1.000000
  366       -3.158236   1.000000
  367       -3.142501   1.000000
  368       -3.141515   1.000000
  369       -3.141491   1.000000
  370       -3.138504   1.000000
  371       -3.136634   1.000000
  372       -3.136593   1.000000
  373       -3.135061   1.000000
  374       -3.135021   1.000000
  375       -3.134797   1.000000
  376       -3.132961   1.000000
  377       -3.132915   1.000000
  378       -3.132887   1.000000
  379       -3.117722   1.000000
  380       -3.117708   1.000000
  381       -3.116113   1.000000
  382       -3.098700   1.000000
  383       -3.074241   1.000000
  384       -3.074224   1.000000
  385       -3.072183   1.000000
  386       -3.072156   1.000000
  387       -3.067017   1.000000
  388       -3.065603   1.000000
  389       -3.065132   1.000000
  390       -3.065125   1.000000
  391       -3.064784   1.000000
  392       -3.053950   1.000000
  393       -3.053941   1.000000
  394       -3.030777   1.000000
  395       -3.030754   1.000000
  396       -3.029145   1.000000
  397       -3.028688   1.000000
  398       -3.028412   1.000000
  399       -3.028394   1.000000
  400       -2.961445   1.000000
  401       -2.961433   1.000000
  402       -2.960968   1.000000
  403       -2.958494   1.000000
  404       -2.958485   1.000000
  405       -2.955322   1.000000
  406       -2.949483   1.000000
  407       -2.949431   1.000000
  408       -2.945212   1.000000
  409       -2.937267   1.000000
  410       -2.937014   1.000000
  411       -2.936971   1.000000
  412       -2.932771   1.000000
  413       -2.928792   1.000000
  414       -2.928781   1.000000
  415       -2.926293   1.000000
  416       -2.924625   1.000000
  417       -2.924604   1.000000
  418       -2.919672   1.000000
  419       -2.915153   1.000000
  420       -2.915094   1.000000
  421       -2.906199   1.000000
  422       -2.900239   1.000000
  423       -2.900202   1.000000
  424       -2.893188   1.000000
  425       -2.893182   1.000000
  426       -2.892739   1.000000
  427       -2.889000   1.000000
  428       -2.888571   1.000000
  429       -2.888553   1.000000
  430       -2.886943   1.000000
  431       -2.886879   1.000000
  432       -2.886875   1.000000
  433       -2.885294   1.000000
  434       -2.884949   1.000000
  435       -2.884930   1.000000
  436       -2.883118   1.000000
  437       -2.883111   1.000000
  438       -2.880473   1.000000
  439       -2.877207   1.000000
  440       -2.857614   1.000000
  441       -2.857596   1.000000
  442       -2.834368   1.000000
  443       -2.826516   1.000000
  444       -2.826475   1.000000
  445       -2.819587   1.000000
  446       -2.819139   1.000000
  447       -2.819127   1.000000
  448       -2.817339   1.000000
  449       -2.817298   1.000000
  450       -2.816570   1.000000
  451       -2.814550   1.000000
  452       -2.814549   1.000000
  453       -2.813000   1.000000
  454       -2.812195   1.000000
  455       -2.812187   1.000000
  456       -2.811278   1.000000
  457       -2.810926   1.000000
  458       -2.810914   1.000000
  459       -2.810197   1.000000
  460       -2.793273   1.000000
  461       -2.784590   1.000000
  462       -2.784567   1.000000
  463       -2.766138   1.000000
  464       -2.765107   1.000000
  465       -2.760664   1.000000
  466       -2.760658   1.000000
  467       -2.734706   1.000000
  468       -2.732799   1.000000
  469       -2.732782   1.000000
  470       -2.730460   1.000000
  471       -2.730452   1.000000
  472       -2.729025   1.000000
  473       -2.727005   1.000000
  474       -2.726961   1.000000
  475       -2.724852   1.000000
  476       -2.724687   1.000000
  477       -2.724679   1.000000
  478       -2.723666   1.000000
  479       -2.722771   1.000000
  480       -2.722750   1.000000
  481       -2.719594   1.000000
  482       -2.718748   1.000000
  483       -2.711697   1.000000
  484       -2.711682   1.000000
  485       -2.707970   1.000000
  486       -2.707806   1.000000
  487       -2.707796   1.000000
  488       -2.706513   1.000000
  489       -2.706505   1.000000
  490       -2.704457   1.000000
  491       -2.704448   1.000000
  492       -2.703854   1.000000
  493       -2.703681   1.000000
  494       -2.693926   1.000000
  495       -2.693926   1.000000
  496       -2.688710   1.000000
  497       -2.688675   1.000000
  498       -2.684229   1.000000
  499       -2.671408   1.000000
  500       -2.671348   1.000000
  501       -2.665542   1.000000
  502       -2.657920   1.000000
  503       -2.653211   1.000000
  504       -2.653175   1.000000
  505       -2.644633   1.000000
  506       -2.636858   1.000000
  507       -2.636815   1.000000
  508       -2.634640   1.000000
  509       -2.634594   1.000000
  510       -2.633516   1.000000
  511       -2.622033   1.000000
  512       -2.615799   1.000000
  513       -2.610398   1.000000
  514       -2.610373   1.000000
  515       -2.603553   1.000000
  516       -2.603530   1.000000
  517       -2.597422   1.000000
  518       -2.597412   1.000000
  519       -2.595314   1.000000
  520       -2.595075   1.000000
  521       -2.587935   1.000000
  522       -2.574760   1.000000
  523       -2.560433   1.000000
  524       -2.548225   1.000000
  525       -2.548206   1.000000
  526       -2.545761   1.000000
  527       -2.544055   1.000000
  528       -2.544034   1.000000
  529       -2.543549   1.000000
  530       -2.543531   1.000000
  531       -2.543431   1.000000
  532       -2.542931   1.000000
  533       -2.540397   1.000000
  534       -2.539180   1.000000
  535       -2.539160   1.000000
  536       -2.537179   1.000000
  537       -2.535641   1.000000
  538       -2.535632   1.000000
  539       -2.530121   1.000000
  540       -2.530062   1.000000
  541       -2.523850   1.000000
  542       -2.523815   1.000000
  543       -2.507663   1.000000
  544       -2.506942   1.000000
  545       -2.506909   1.000000
  546       -2.506894   1.000000
  547       -2.497351   1.000000
  548       -2.497295   1.000000
  549       -2.492656   1.000000
  550       -2.492593   1.000000
  551       -2.490132   1.000000
  552       -2.487829   1.000000
  553       -2.484294   1.000000
  554       -2.476558   1.000000
  555       -2.476107   1.000000
  556       -2.476099   1.000000
  557       -2.472121   1.000000
  558       -2.472101   1.000000
  559       -2.470525   1.000000
  560       -2.467929   1.000000
  561       -2.467921   1.000000
  562       -2.466203   1.000000
  563       -2.466195   1.000000
  564       -2.465607   1.000000
  565       -2.464881   1.000000
  566       -2.464844   1.000000
  567       -2.464819   1.000000
  568       -2.460843   1.000000
  569       -2.460403   1.000000
  570       -2.460278   1.000000
  571       -2.452677   1.000000
  572       -2.452610   1.000000
  573       -2.440710   1.000000
  574       -2.440569   1.000000
  575       -2.432145   1.000000
  576       -2.432073   1.000000
  577       -2.427300   1.000000
  578       -2.426336   1.000000
  579       -2.426269   1.000000
  580       -2.419740   1.000000
  581       -2.419669   1.000000
  582       -2.418390   1.000000
  583       -2.409219   1.000000
  584       -2.409179   1.000000
  585       -2.408266   1.000000
  586       -2.396440   1.000000
  587       -2.396200   1.000000
  588       -2.395695   1.000000
  589       -2.395687   1.000000
  590       -2.386861   1.000000
  591       -2.384390   1.000000
  592       -2.384378   1.000000
  593       -2.380993   1.000000
  594       -2.380385   1.000000
  595       -2.380378   1.000000
  596       -2.378744   1.000000
  597       -2.376352   1.000000
  598       -2.376335   1.000000
  599       -2.374182   1.000000
  600       -2.374162   1.000000
  601       -2.372591   1.000000
  602       -2.371430   1.000000
  603       -2.369120   1.000000
  604       -2.369097   1.000000
  605       -2.368974   1.000000
  606       -2.362652   1.000000
  607       -2.362484   1.000000
  608       -2.358305   1.000000
  609       -2.351180   1.000000
  610       -2.351150   1.000000
  611       -2.331567   1.000000
  612       -2.329960   1.000000
  613       -2.329880   1.000000
  614       -2.307714   1.000000
  615       -2.306791   1.000000
  616       -2.306742   1.000000
  617       -2.300194   1.000000
  618       -2.300168   1.000000
  619       -2.298842   1.000000
  620       -2.295600   1.000000
  621       -2.295447   1.000000
  622       -2.289539   1.000000
  623       -2.282133   1.000000
  624       -2.281152   1.000000
  625       -2.281097   1.000000
  626       -2.273811   1.000000
  627       -2.273065   1.000000
  628       -2.273017   1.000000
  629       -2.270982   1.000000
  630       -2.270931   1.000000
  631       -2.266634   1.000000
  632       -2.266553   1.000000
  633       -2.266388   1.000000
  634       -2.266107   1.000000
  635       -2.263974   1.000000
  636       -2.256955   1.000000
  637       -2.256902   1.000000
  638       -2.250439   1.000000
  639       -2.249870   1.000000
  640       -2.249855   1.000000
  641       -2.246206   1.000000
  642       -2.236772   1.000000
  643       -2.236583   1.000000
  644       -2.231749   1.000000
  645       -2.230311   1.000000
  646       -2.230277   1.000000
  647       -2.222640   1.000000
  648       -2.218463   1.000000
  649       -2.218459   1.000000
  650       -2.217865   1.000000
  651       -2.216313   1.000000
  652       -2.215903   1.000000
  653       -2.215568   1.000000
  654       -2.215562   1.000000
  655       -2.211805   1.000000
  656       -2.211742   1.000000
  657       -2.208240   1.000000
  658       -2.208188   1.000000
  659       -2.204414   1.000000
  660       -2.201667   1.000000
  661       -2.201611   1.000000
  662       -2.200338   1.000000
  663       -2.198218   1.000000
  664       -2.198152   1.000000
  665       -2.196358   1.000000
  666       -2.191257   1.000000
  667       -2.191234   1.000000
  668       -2.187522   1.000000
  669       -2.187517   1.000000
  670       -2.167021   1.000000
  671       -2.166994   1.000000
  672       -2.164662   1.000000
  673       -2.161201   1.000000
  674       -2.157065   1.000000
  675       -2.156998   1.000000
  676       -2.156780   1.000000
  677       -2.155846   1.000000
  678       -2.155791   1.000000
  679       -2.151319   1.000000
  680       -2.149213   1.000000
  681       -2.147763   1.000000
  682       -2.147714   1.000000
  683       -2.138024   1.000000
  684       -2.126052   1.000000
  685       -2.126006   1.000000
  686       -2.116834   1.000000
  687       -2.116820   1.000000
  688       -2.116709   1.000000
  689       -2.112128   1.000000
  690       -2.112121   1.000000
  691       -2.109499   1.000000
  692       -2.108795   1.000000
  693       -2.108729   1.000000
  694       -2.108719   1.000000
  695       -2.106960   1.000000
  696       -2.106945   1.000000
  697       -2.106156   1.000000
  698       -2.101213   1.000000
  699       -2.101152   1.000000
  700       -2.097534   1.000000
  701       -2.095185   1.000000
  702       -2.095133   1.000000
  703       -2.095092   1.000000
  704       -2.094038   1.000000
  705       -2.093905   1.000000
  706       -2.093195   1.000000
  707       -2.092409   1.000000
  708       -2.092359   1.000000
  709       -2.090079   1.000000
  710       -2.089958   1.000000
  711       -2.088189   1.000000
  712       -2.085225   1.000000
  713       -2.085108   1.000000
  714       -2.084451   1.000000
  715       -2.084387   1.000000
  716       -2.076045   1.000000
  717       -2.075641   1.000000
  718       -2.075550   1.000000
  719       -2.059056   1.000000
  720       -2.052446   1.000000
  721       -2.052421   1.000000
  722       -2.037108   1.000000
  723       -2.037108   1.000000
  724       -2.036375   1.000000
  725       -2.033958   1.000000
  726       -2.023932   1.000000
  727       -2.023922   1.000000
  728       -2.022384   1.000000
  729       -2.019385   1.000000
  730       -2.019376   1.000000
  731       -2.016186   1.000000
  732       -2.014592   1.000000
  733       -2.014572   1.000000
  734       -2.011525   1.000000
  735       -2.008273   1.000000
  736       -2.008258   1.000000
  737       -2.004528   1.000000
  738       -2.002454   1.000000
  739       -2.002411   1.000000
  740       -2.001349   1.000000
  741       -1.983243   1.000000
  742       -1.983232   1.000000
  743       -1.977380   1.000000
  744       -1.977359   1.000000
  745       -1.977155   1.000000
  746       -1.976251   1.000000
  747       -1.975739   1.000000
  748       -1.975669   1.000000
  749       -1.961512   1.000000
  750       -1.961500   1.000000
  751       -1.957887   1.000000
  752       -1.945694   1.000000
  753       -1.945654   1.000000
  754       -1.943686   1.000000
  755       -1.936657   1.000000
  756       -1.926797   1.000000
  757       -1.926795   1.000000
  758       -1.923081   1.000000
  759       -1.919528   1.000000
  760       -1.919515   1.000000
  761       -1.916883   1.000000
  762       -1.916878   1.000000
  763       -1.916063   1.000000
  764       -1.913925   1.000000
  765       -1.913617   1.000000
  766       -1.913611   1.000000
  767       -1.912545   1.000000
  768       -1.912521   1.000000
  769       -1.911841   1.000000
  770       -1.911745   1.000000
  771       -1.911730   1.000000
  772       -1.911467   1.000000
  773       -1.898250   1.000000
  774       -1.893231   1.000000
  775       -1.893211   1.000000
  776       -1.892103   1.000000
  777       -1.888077   1.000000
  778       -1.884600   1.000000
  779       -1.882859   1.000000
  780       -1.882786   1.000000
  781       -1.879586   1.000000
  782       -1.879548   1.000000
  783       -1.875601   1.000000
  784       -1.875048   1.000000
  785       -1.874973   1.000000
  786       -1.854984   1.000000
  787       -1.854941   1.000000
  788       -1.852402   1.000000
  789       -1.848583   1.000000
  790       -1.848559   1.000000
  791       -1.844886   1.000000
  792       -1.844295   1.000000
  793       -1.844276   1.000000
  794       -1.839012   1.000000
  795       -1.838995   1.000000
  796       -1.834751   1.000000
  797       -1.833339   1.000000
  798       -1.830372   1.000000
  799       -1.827547   1.000000
  800       -1.827540   1.000000
  801       -1.817151   1.000000
  802       -1.814990   1.000000
  803       -1.814961   1.000000
  804       -1.810847   1.000000
  805       -1.810832   1.000000
  806       -1.797349   1.000000
  807       -1.797329   1.000000
  808       -1.795003   1.000000
  809       -1.794984   1.000000
  810       -1.794810   1.000000
  811       -1.793204   1.000000
  812       -1.784265   1.000000
  813       -1.784250   1.000000
  814       -1.772738   1.000000
  815       -1.770686   1.000000
  816       -1.768279   1.000000
  817       -1.768270   1.000000
  818       -1.764958   1.000000
  819       -1.764950   1.000000
  820       -1.759705   1.000000
  821       -1.755084   1.000000
  822       -1.755073   1.000000
  823       -1.754481   1.000000
  824       -1.754371   1.000000
  825       -1.754367   1.000000
  826       -1.750569   1.000000
  827       -1.749445   1.000000
  828       -1.749396   1.000000
  829       -1.748324   1.000000
  830       -1.746303   1.000000
  831       -1.746279   1.000000
  832       -1.743928   1.000000
  833       -1.743155   1.000000
  834       -1.743107   1.000000
  835       -1.741572   1.000000
  836       -1.739383   1.000000
  837       -1.739335   1.000000
  838       -1.739090   1.000000
  839       -1.735637   1.000000
  840       -1.735596   1.000000
  841       -1.735319   1.000000
  842       -1.734914   1.000000
  843       -1.734895   1.000000
  844       -1.732735   1.000000
  845       -1.732705   1.000000
  846       -1.727553   1.000000
  847       -1.724273   1.000000
  848       -1.722224   1.000000
  849       -1.719158   1.000000
  850       -1.719142   1.000000
  851       -1.709352   1.000000
  852       -1.694966   1.000000
  853       -1.694931   1.000000
  854       -1.692759   1.000000
  855       -1.692741   1.000000
  856       -1.689541   1.000000
  857       -1.683569   1.000000
  858       -1.683547   1.000000
  859       -1.677859   1.000000
  860       -1.674095   1.000000
  861       -1.674082   1.000000
  862       -1.671206   1.000000
  863       -1.671177   1.000000
  864       -1.668677   1.000000
  865       -1.663799   1.000000
  866       -1.641690   1.000000
  867       -1.641672   1.000000
  868       -1.639252   1.000000
  869       -1.635625   1.000000
  870       -1.635605   1.000000
  871       -1.625010   1.000000
  872       -1.625008   1.000000
  873       -1.624124   1.000000
  874       -1.616007   1.000000
  875       -1.615549   1.000000
  876       -1.615539   1.000000
  877       -1.615108   1.000000
  878       -1.614438   1.000000
  879       -1.614423   1.000000
  880       -1.603896   1.000000
  881       -1.603886   1.000000
  882       -1.602719   1.000000
  883       -1.596817   1.000000
  884       -1.585817   1.000000
  885       -1.580100   1.000000
  886       -1.580041   1.000000
  887       -1.570095   1.000000
  888       -1.569992   1.000000
  889       -1.569938   1.000000
  890       -1.565974   1.000000
  891       -1.529511   1.000000
  892       -1.529491   1.000000
  893       -1.511311   1.000000
  894       -1.511155   1.000000
  895       -1.511147   1.000000
  896       -1.504541   1.000000
  897       -1.502898   1.000000
  898       -1.502872   1.000000
  899       -1.502012   1.000000
  900       -1.495249   1.000000
  901       -1.495243   1.000000