         261
 Energy:  -1294.0995544000000     
 X   0.00000000       0.00000000       0.00000000    
 X   0.00000000      -15.1462221       0.00000000    
 X   0.00000000      -7.57311106      -13.1170130    
 X   29.0000000       0.00000000       0.00000000    
 X   0.00000000      -22.7193336      -13.1170130    
 X   29.0000000      -15.1462221       0.00000000    
 X   29.0000000      -7.57311106      -13.1170130    
 X   29.0000000      -22.7193336      -13.1170130    
 Ni   3.02601004      -10.0974798      -5.82978010    
 Ni   3.02601004      -12.6218500      -10.2021198    
 Ni   3.02601004      -7.57311010      -1.45745003    
 Ni   3.02601004      -15.1462202      -5.82978010    
 Ni   3.02601004      -17.6705894      -10.2021198    
 Ni   3.02601004      -12.6218500      -1.45745003    
 Ni   3.02601004      -5.04873991      -5.82978010    
 Ni   3.02601004      -7.57311010      -10.2021198    
 Ni   3.02601004      -2.52436996      -1.45745003    
 Ni   5.02237988      -12.6218500      -7.28723001    
 Ni   5.02237988      -15.1462202      -11.6595697    
 Ni   5.02237988      -10.0974798      -2.91489005    
 Ni   5.02237988      -17.6705894      -7.28723001    
 Ni   5.02237988      -20.1949596      -11.6595697    
 Ni   5.02237988      -15.1462202      -2.91489005    
 Ni   5.02237988      -7.57311010      -7.28723001    
 Ni   5.02237988      -10.0974798      -11.6595697    
 Ni   5.02237988      -5.04873991      -2.91489005    
 Ni   7.03247023      -15.1462202      -8.74468040    
 Ni   7.03247023      -10.0974798       0.00000000    
 Ni   7.03247023      -12.6218500      -4.37234020    
 Ni   7.03247023      -5.04873991      -8.74468040    
 Ni   7.03247023       0.00000000       0.00000000    
 Ni   7.03247023      -2.52436996      -4.37234020    
 Ni   7.03247023      -10.0974798      -8.74468040    
 Ni   7.03247023      -5.04873991       0.00000000    
 Ni   7.03247023      -7.57311010      -4.37234020    
 Ni   9.04018974      -17.6705894      -10.2021198    
 Ni   9.04018974      -12.6218500      -1.45745003    
 Ni   9.04018974      -15.1462202      -5.82978010    
 Ni   9.04018974      -7.57311010      -10.2021198    
 Ni   9.04018974      -2.52436996      -1.45745003    
 Ni   9.04018974      -5.04873991      -5.82978010    
 Ni   9.04018974      -12.6218500      -10.2021198    
 Ni   9.04018974      -7.57311010      -1.45745003    
 Ni   9.04018974      -10.0974798      -5.82978010    
 Ni   11.0479097      -20.1949596      -11.6595697    
 Ni   11.0479097      -15.1462202      -2.91489005    
 Ni   11.0479097      -17.6705894      -7.28723001    
 Ni   11.0479097      -10.0974798      -11.6595697    
 Ni   11.0479097      -5.04873991      -2.91489005    
 Ni   11.0479097      -7.57311010      -7.28723001    
 Ni   11.0479097      -15.1462202      -11.6595697    
 Ni   11.0479097      -10.0974798      -2.91489005    
 Ni   11.0479097      -12.6218500      -7.28723001    
 Ni   13.0579996       0.00000000       0.00000000    
 Ni   13.0579996      -2.52436996      -4.37234020    
 Ni   13.0579996      -5.04873991      -8.74468040    
 Ni   13.0579996      -5.04873991       0.00000000    
 Ni   13.0579996      -7.57311010      -4.37234020    
 Ni   13.0579996      -10.0974798      -8.74468040    
 Ni   13.0579996      -10.0974798       0.00000000    
 Ni   13.0579996      -12.6218500      -4.37234020    
 Ni   13.0579996      -15.1462202      -8.74468040    
 Ni   15.0543699      -2.52436996      -1.45745003    
 Ni   15.0543699      -5.04873991      -5.82978010    
 Ni   15.0543699      -7.57311010      -10.2021198    
 Ni   15.0543699      -7.57311010      -1.45745003    
 Ni   15.0543699      -10.0974798      -5.82978010    
 Ni   15.0543699      -12.6218500      -10.2021198    
 Ni   15.0543699      -12.6218500      -1.45745003    
 Ni   15.0543699      -15.1462202      -5.82978010    
 Ni   15.0543699      -17.6705894      -10.2021198    
 Ni   3.02601004      -6.31092978      -3.64361000    
 Ni   3.02601004      -8.83530045      -8.01595020    
 Ni   3.02601004      -11.3596697      -12.3882904    
 Ni   3.02601004      -11.3596697      -3.64361000    
 Ni   3.02601004      -13.8840399      -8.01595020    
 Ni   3.02601004      -16.4084091      -12.3882904    
 Ni   3.02601004      -16.4084091      -3.64361000    
 Ni   3.02601004      -18.9327793      -8.01595020    
 Ni   3.02601004      -21.4571495      -12.3882904    
 Ni   5.02237988      -8.83530045      -5.10105991    
 Ni   5.02237988      -11.3596697      -9.47340012    
 Ni   5.02237988      -6.31092978     -0.728720009    
 Ni   5.02237988      -13.8840399      -5.10105991    
 Ni   5.02237988      -16.4084091      -9.47340012    
 Ni   5.02237988      -11.3596697     -0.728720009    
 Ni   5.02237988      -3.78656006      -5.10105991    
 Ni   5.02237988      -6.31092978      -9.47340012    
 Ni   5.02237988      -1.26218998     -0.728720009    
 Ni   7.03247023      -11.3596697      -6.55850983    
 Ni   7.03247023      -13.8840399      -10.9308395    
 Ni   7.03247023      -8.83530045      -2.18617010    
 Ni   7.03247023      -16.4084091      -6.55850983    
 Ni   7.03247023      -18.9327793      -10.9308395    
 Ni   7.03247023      -13.8840399      -2.18617010    
 Ni   7.03247023      -6.31092978      -6.55850983    
 Ni   7.03247023      -8.83530045      -10.9308395    
 Ni   7.03247023      -3.78656006      -2.18617010    
 Ni   9.04018974      -13.8840399      -8.01595020    
 Ni   9.04018974      -16.4084091      -12.3882904    
 Ni   9.04018974      -11.3596697      -3.64361000    
 Ni   9.04018974      -18.9327793      -8.01595020    
 Ni   9.04018974      -21.4571495      -12.3882904    
 Ni   9.04018974      -16.4084091      -3.64361000    
 Ni   9.04018974      -8.83530045      -8.01595020    
 Ni   9.04018974      -11.3596697      -12.3882904    
 Ni   9.04018974      -6.31092978      -3.64361000    
 Ni   11.0479097      -16.4084091      -9.47340012    
 Ni   11.0479097      -11.3596697     -0.728720009    
 Ni   11.0479097      -13.8840399      -5.10105991    
 Ni   11.0479097      -6.31092978      -9.47340012    
 Ni   11.0479097      -1.26218998     -0.728720009    
 Ni   11.0479097      -3.78656006      -5.10105991    
 Ni   11.0479097      -11.3596697      -9.47340012    
 Ni   11.0479097      -6.31092978     -0.728720009    
 Ni   11.0479097      -8.83530045      -5.10105991    
 Ni   13.0579996      -18.9327793      -10.9308395    
 Ni   13.0579996      -13.8840399      -2.18617010    
 Ni   13.0579996      -16.4084091      -6.55850983    
 Ni   13.0579996      -8.83530045      -10.9308395    
 Ni   13.0579996      -3.78656006      -2.18617010    
 Ni   13.0579996      -6.31092978      -6.55850983    
 Ni   13.0579996      -13.8840399      -10.9308395    
 Ni   13.0579996      -8.83530045      -2.18617010    
 Ni   13.0579996      -11.3596697      -6.55850983    
 Ni   15.0543699      -21.4571495      -12.3882904    
 Ni   15.0543699      -16.4084091      -3.64361000    
 Ni   15.0543699      -18.9327793      -8.01595020    
 Ni   15.0543699      -11.3596697      -12.3882904    
 Ni   15.0543699      -6.31092978      -3.64361000    
 Ni   15.0543699      -8.83530045      -8.01595020    
 Ni   15.0543699      -16.4084091      -12.3882904    
 Ni   15.0543699      -11.3596697      -3.64361000    
 Ni   15.0543699      -13.8840399      -8.01595020    
 Ni   3.02601004      -7.57311010      -5.82978010    
 Ni   3.02601004      -10.0974798      -10.2021198    
 Ni   3.02601004      -5.04873991      -1.45745003    
 Ni   3.02601004      -12.6218500      -5.82978010    
 Ni   3.02601004      -15.1462202      -10.2021198    
 Ni   3.02601004      -10.0974798      -1.45745003    
 Ni   3.02601004      -17.6705894      -5.82978010    
 Ni   3.02601004      -20.1949596      -10.2021198    
 Ni   3.02601004      -15.1462202      -1.45745003    
 Ni   5.02237988      -10.0974798      -7.28723001    
 Ni   5.02237988      -12.6218500      -11.6595697    
 Ni   5.02237988      -7.57311010      -2.91489005    
 Ni   5.02237988      -15.1462202      -7.28723001    
 Ni   5.02237988      -17.6705894      -11.6595697    
 Ni   5.02237988      -12.6218500      -2.91489005    
 Ni   5.02237988      -5.04873991      -7.28723001    
 Ni   5.02237988      -7.57311010      -11.6595697    
 Ni   5.02237988      -2.52436996      -2.91489005    
 Ni   7.03247023      -12.6218500      -8.74468040    
 Ni   7.03247023      -7.57311010       0.00000000    
 Ni   7.03247023      -10.0974798      -4.37234020    
 Ni   7.03247023      -17.6705894      -8.74468040    
 Ni   7.03247023      -12.6218500       0.00000000    
 Ni   7.03247023      -15.1462202      -4.37234020    
 Ni   7.03247023      -7.57311010      -8.74468040    
 Ni   7.03247023      -2.52436996       0.00000000    
 Ni   7.03247023      -5.04873991      -4.37234020    
 Ni   9.04018974      -15.1462202      -10.2021198    
 Ni   9.04018974      -10.0974798      -1.45745003    
 Ni   9.04018974      -12.6218500      -5.82978010    
 Ni   9.04018974      -20.1949596      -10.2021198    
 Ni   9.04018974      -15.1462202      -1.45745003    
 Ni   9.04018974      -17.6705894      -5.82978010    
 Ni   9.04018974      -10.0974798      -10.2021198    
 Ni   9.04018974      -5.04873991      -1.45745003    
 Ni   9.04018974      -7.57311010      -5.82978010    
 Ni   11.0479097      -17.6705894      -11.6595697    
 Ni   11.0479097      -12.6218500      -2.91489005    
 Ni   11.0479097      -15.1462202      -7.28723001    
 Ni   11.0479097      -7.57311010      -11.6595697    
 Ni   11.0479097      -2.52436996      -2.91489005    
 Ni   11.0479097      -5.04873991      -7.28723001    
 Ni   11.0479097      -12.6218500      -11.6595697    
 Ni   11.0479097      -7.57311010      -2.91489005    
 Ni   11.0479097      -10.0974798      -7.28723001    
 Ni   13.0579996      -12.6218500       0.00000000    
 Ni   13.0579996      -15.1462202      -4.37234020    
 Ni   13.0579996      -17.6705894      -8.74468040    
 Ni   13.0579996      -2.52436996       0.00000000    
 Ni   13.0579996      -5.04873991      -4.37234020    
 Ni   13.0579996      -7.57311010      -8.74468040    
 Ni   13.0579996      -7.57311010       0.00000000    
 Ni   13.0579996      -10.0974798      -4.37234020    
 Ni   13.0579996      -12.6218500      -8.74468040    
 Ni   15.0543699      -15.1462202      -1.45745003    
 Ni   15.0543699      -17.6705894      -5.82978010    
 Ni   15.0543699      -20.1949596      -10.2021198    
 Ni   15.0543699      -5.04873991      -1.45745003    
 Ni   15.0543699      -7.57311010      -5.82978010    
 Ni   15.0543699      -10.0974798      -10.2021198    
 Ni   15.0543699      -10.0974798      -1.45745003    
 Ni   15.0543699      -12.6218500      -5.82978010    
 Ni   15.0543699      -15.1462202      -10.2021198    
 Ni   3.02601004      -8.83530045      -3.64361000    
 Ni   3.02601004      -11.3596697      -8.01595020    
 Ni   3.02601004      -13.8840399      -12.3882904    
 Ni   3.02601004      -13.8840399      -3.64361000    
 Ni   3.02601004      -16.4084091      -8.01595020    
 Ni   3.02601004      -18.9327793      -12.3882904    
 Ni   3.02601004      -3.78656006      -3.64361000    
 Ni   3.02601004      -6.31092978      -8.01595020    
 Ni   3.02601004      -8.83530045      -12.3882904    
 Ni   5.02237988      -11.3596697      -5.10105991    
 Ni   5.02237988      -13.8840399      -9.47340012    
 Ni   5.02237988      -8.83530045     -0.728720009    
 Ni   5.02237988      -16.4084091      -5.10105991    
 Ni   5.02237988      -18.9327793      -9.47340012    
 Ni   5.02237988      -13.8840399     -0.728720009    
 Ni   5.02237988      -6.31092978      -5.10105991    
 Ni   5.02237988      -8.83530045      -9.47340012    
 Ni   5.02237988      -3.78656006     -0.728720009    
 Ni   7.03247023      -13.8840399      -6.55850983    
 Ni   7.03247023      -16.4084091      -10.9308395    
 Ni   7.03247023      -11.3596697      -2.18617010    
 Ni   7.03247023      -3.78656006      -6.55850983    
 Ni   7.03247023      -6.31092978      -10.9308395    
 Ni   7.03247023      -1.26218998      -2.18617010    
 Ni   7.03247023      -8.83530045      -6.55850983    
 Ni   7.03247023      -11.3596697      -10.9308395    
 Ni   7.03247023      -6.31092978      -2.18617010    
 Ni   9.04018974      -16.4084091      -8.01595020    
 Ni   9.04018974      -18.9327793      -12.3882904    
 Ni   9.04018974      -13.8840399      -3.64361000    
 Ni   9.04018974      -6.31092978      -8.01595020    
 Ni   9.04018974      -8.83530045      -12.3882904    
 Ni   9.04018974      -3.78656006      -3.64361000    
 Ni   9.04018974      -11.3596697      -8.01595020    
 Ni   9.04018974      -13.8840399      -12.3882904    
 Ni   9.04018974      -8.83530045      -3.64361000    
 Ni   11.0479097      -18.9327793      -9.47340012    
 Ni   11.0479097      -13.8840399     -0.728720009    
 Ni   11.0479097      -16.4084091      -5.10105991    
 Ni   11.0479097      -8.83530045      -9.47340012    
 Ni   11.0479097      -3.78656006     -0.728720009    
 Ni   11.0479097      -6.31092978      -5.10105991    
 Ni   11.0479097      -13.8840399      -9.47340012    
 Ni   11.0479097      -8.83530045     -0.728720009    
 Ni   11.0479097      -11.3596697      -5.10105991    
 Ni   13.0579996      -6.31092978      -10.9308395    
 Ni   13.0579996      -1.26218998      -2.18617010    
 Ni   13.0579996      -3.78656006      -6.55850983    
 Ni   13.0579996      -11.3596697      -10.9308395    
 Ni   13.0579996      -6.31092978      -2.18617010    
 Ni   13.0579996      -8.83530045      -6.55850983    
 Ni   13.0579996      -16.4084091      -10.9308395    
 Ni   13.0579996      -11.3596697      -2.18617010    
 Ni   13.0579996      -13.8840399      -6.55850983    
 Ni   15.0543699      -8.83530045      -12.3882904    
 Ni   15.0543699      -3.78656006      -3.64361000    
 Ni   15.0543699      -6.31092978      -8.01595020    
 Ni   15.0543699      -13.8840399      -12.3882904    
 Ni   15.0543699      -8.83530045      -3.64361000    
 Ni   15.0543699      -11.3596697      -8.01595020    
 Ni   15.0543699      -18.9327793      -12.3882904    
 Ni   15.0543699      -13.8840399      -3.64361000    
 Ni   15.0543699      -16.4084091      -8.01595020    
 N    13.6300001      -10.0974798      -7.28723001    
         261
 Energy:  -1296.2540015000000     
 X   0.00000000       0.00000000       0.00000000    
 X   0.00000000      -15.1462221       0.00000000    
 X   0.00000000      -7.57311106      -13.1170130    
 X   29.0000000       0.00000000       0.00000000    
 X   0.00000000      -22.7193336      -13.1170130    
 X   29.0000000      -15.1462221       0.00000000    
 X   29.0000000      -7.57311106      -13.1170130    
 X   29.0000000      -22.7193336      -13.1170130    
 Ni   3.02581000      -10.0974798      -5.82975006    
 Ni   3.02575994      -12.6218596      -10.2020903    
 Ni   3.02579999      -7.57312012      -1.45747995    
 Ni   3.02567005      -15.1462202      -5.82978010    
 Ni   3.02583003      -17.6705894      -10.2020397    
 Ni   3.02579999      -12.6218395      -1.45747995    
 Ni   3.02567005      -5.04873991      -5.82978010    
 Ni   3.02575994      -7.57310009      -10.2020903    
 Ni   3.02576995      -2.52436996      -1.45749998    
 Ni   5.02324009      -12.6218796      -7.28725004    
 Ni   5.02324009      -15.1462297      -11.6595402    
 Ni   5.02327013      -10.0974798      -2.91490006    
 Ni   5.02318001      -17.6705894      -7.28729010    
 Ni   5.02324009      -20.1949596      -11.6595402    
 Ni   5.02321005      -15.1462002      -2.91487002    
 Ni   5.02324009      -7.57308006      -7.28725004    
 Ni   5.02320004      -10.0974798      -11.6595201    
 Ni   5.02321005      -5.04875994      -2.91487002    
 Ni   7.03278017      -15.1464100      -8.74479008    
 Ni   7.03285980      -10.0974798       9.00000014E-05
 Ni   7.03286982      -12.6217899      -4.37234020    
 Ni   7.03278017      -5.04855013      -8.74479008    
 Ni   7.03290987       7.00000019E-05   4.99999987E-05
 Ni   7.03294992      -2.52436996      -4.37243986    
 Ni   7.03283978      -10.0974798      -8.74468040    
 Ni   7.03290987      -5.04881001       4.99999987E-05
 Ni   7.03286982      -7.57317019      -4.37234020    
 Ni   9.03956032      -17.6705894      -10.2020702    
 Ni   9.03962994      -12.6218996      -1.45735002    
 Ni   9.03956032      -15.1462603      -5.82987022    
 Ni   9.03901005      -7.57285976      -10.2022896    
 Ni   9.03956985      -2.52436996      -1.45729005    
 Ni   9.03956032      -5.04870987      -5.82987022    
 Ni   9.03901005      -12.6220999      -10.2022896    
 Ni   9.03962994      -7.57306004      -1.45735002    
 Ni   9.04008961      -10.0974798      -5.82985020    
 Ni   11.0480499      -20.1949196      -11.6595097    
 Ni   11.0481300      -15.1462002      -2.91489005    
 Ni   11.0481901      -17.6705894      -7.28731012    
 Ni   11.0482903      -10.0974798      -11.6594801    
 Ni   11.0481300      -5.04875994      -2.91489005    
 Ni   11.0460196      -7.57135010      -7.28785992    
 Ni   11.0480499      -15.1462603      -11.6595097    
 Ni   11.0480700      -10.0974798      -2.91524005    
 Ni   11.0460196      -12.6236200      -7.28785992    
 Ni   13.0584497       2.60000001E-04  -7.30000029E-04
 Ni   13.0585003      -2.52436996      -4.37233019    
 Ni   13.0584202      -5.04874992      -8.74437046    
 Ni   13.0584497      -5.04899979      -7.30000029E-04
 Ni   13.0586700      -7.57220984      -4.37111998    
 Ni   13.0069304      -10.0974798      -8.87355042    
 Ni   13.0584602      -10.0974798      -0.00000000    
 Ni   13.0586700      -12.6227503      -4.37111998    
 Ni   13.0584202      -15.1462097      -8.74437046    
 Ni   15.0533199      -2.52436996      -1.45738995    
 Ni   15.0532303      -5.04871988      -5.83012009    
 Ni   15.0536699      -7.57368994      -10.2021399    
 Ni   15.0532598      -7.57299995      -1.45735002    
 Ni   15.0615501      -10.0974798      -5.82190990    
 Ni   15.0536699      -12.6212702      -10.2021399    
 Ni   15.0532598      -12.6219597      -1.45735002    
 Ni   15.0532303      -15.1462498      -5.83012009    
 Ni   15.0532904      -17.6705894      -10.2020302    
 Ni   3.02567005      -6.31091976      -3.64362001    
 Ni   3.02581000      -8.83526039      -8.01597023    
 Ni   3.02567005      -11.3596601      -12.3882904    
 Ni   3.02575994      -11.3596296      -3.64362001    
 Ni   3.02575994      -13.8840199      -8.01597977    
 Ni   3.02583003      -16.4083405      -12.3883305    
 Ni   3.02576995      -16.4084606      -3.64358997    
 Ni   3.02579999      -18.9328098      -8.01593971    
 Ni   3.02579999      -21.4571705      -12.3882599    
 Ni   5.02324009      -8.83530045      -5.10102987    
 Ni   5.02324009      -11.3597002      -9.47340965    
 Ni   5.02318001      -6.31097984     -0.728690028    
 Ni   5.02320004      -13.8839998      -5.10107994    
 Ni   5.02324009      -16.4083900      -9.47340965    
 Ni   5.02324009      -11.3596401     -0.728730023    
 Ni   5.02321005      -3.78654003      -5.10108995    
 Ni   5.02327013      -6.31093979      -9.47338963    
 Ni   5.02321005      -1.26215005     -0.728720009    
 Ni   7.03283978      -11.3596697      -6.55849981    
 Ni   7.03278017      -13.8842402      -10.9309502    
 Ni   7.03278017      -8.83530045      -2.18594003    
 Ni   7.03290987      -16.4083900      -6.55858994    
 Ni   7.03285980      -18.9326992      -10.9308901    
 Ni   7.03290987      -13.8839502      -2.18614006    
 Ni   7.03286982      -6.31095982      -6.55855989    
 Ni   7.03286982      -8.83526993      -10.9307899    
 Ni   7.03294992      -3.78663993      -2.18612003    
 Ni   9.03901005      -13.8843002      -8.01607990    
 Ni   9.03956032      -16.4083691      -12.3883104    
 Ni   9.03901005      -11.3596802      -3.64332008    
 Ni   9.03962994      -18.9326706      -8.01595974    
 Ni   9.03962994      -21.4570904      -12.3883801    
 Ni   9.03956985      -16.4082699      -3.64369011    
 Ni   9.04008961      -8.83535957      -8.01591969    
 Ni   9.03956032      -11.3597603      -12.3882799    
 Ni   9.03956032      -6.31097984      -3.64353991    
 Ni   11.0480499      -16.4083691      -9.47346020    
 Ni   11.0480499      -11.3595896     -0.728720009    
 Ni   11.0482903      -13.8839598      -5.10109997    
 Ni   11.0480700      -6.31123018      -9.47321987    
 Ni   11.0481300      -1.26216996     -0.728709996    
 Ni   11.0481300      -3.78656006      -5.10107994    
 Ni   11.0460196      -11.3611002      -9.47461033    
 Ni   11.0481901      -6.31098986     -0.728680015    
 Ni   11.0460196      -8.83495998      -5.09921980    
 Ni   13.0584602      -18.9327793      -10.9308395    
 Ni   13.0584497      -13.8845396      -2.18557000    
 Ni   13.0584497      -16.4091702      -6.55837011    
 Ni   13.0586700      -8.83469009      -10.9322395    
 Ni   13.0585003      -3.78655005      -2.18617010    
 Ni   13.0586700      -6.30942011      -6.55833006    
 Ni   13.0584202      -13.8837700      -10.9309902    
 Ni   13.0584202      -8.83504009      -2.18633008    
 Ni   13.0069304      -11.4712801      -6.49407005    
 Ni   15.0532598      -21.4571209      -12.3884296    
 Ni   15.0533199      -16.4083595      -3.64364004    
 Ni   15.0532598      -18.9326401      -8.01591015    
 Ni   15.0532303      -11.3599701      -12.3881397    
 Ni   15.0532303      -6.31120014      -3.64342999    
 Ni   15.0615501      -8.82847023      -8.01988983    
 Ni   15.0532904      -16.4083309      -12.3883400    
 Ni   15.0536699      -11.3599701      -3.64410996    
 Ni   15.0536699      -13.8837605      -8.01543999    
 Ni   3.02569008      -7.57313013      -5.82980013    
 Ni   3.02569008      -10.0974798      -10.2020998    
 Ni   3.02578998      -5.04866982      -1.45748997    
 Ni   3.02569008      -12.6218300      -5.82980013    
 Ni   3.02582002      -15.1461496      -10.2020798    
 Ni   3.02582002      -10.0974798      -1.45753002    
 Ni   3.02578998      -17.6705894      -5.82969999    
 Ni   3.02582002      -20.1950397      -10.2020798    
 Ni   3.02578998      -15.1462898      -1.45748997    
 Ni   5.02327013      -10.0974798      -7.28723001    
 Ni   5.02325010      -12.6217604      -11.6595497    
 Ni   5.02325010      -7.57308006      -2.91497993    
 Ni   5.02325010      -15.1461601      -7.28715992    
 Ni   5.02321005      -17.6705894      -11.6595697    
 Ni   5.02325010      -12.6218901      -2.91497993    
 Ni   5.02325010      -5.04879999      -7.28715992    
 Ni   5.02325010      -7.57320023      -11.6595497    
 Ni   5.02334023      -2.52436996      -2.91489005    
 Ni   7.03269005      -12.6218500      -8.74468040    
 Ni   7.03289986      -7.57313013       9.99999975E-06
 Ni   7.03269005      -10.0974798      -4.37234020    
 Ni   7.03289986      -17.6705894      -8.74470043    
 Ni   7.03289986      -12.6218300       9.99999975E-06
 Ni   7.03285980      -15.1461697      -4.37236977    
 Ni   7.03269005      -7.57311010      -8.74468040    
 Ni   7.03285980      -2.52436996       5.99999985E-05
 Ni   7.03285980      -5.04878998      -4.37236977    
 Ni   9.03958988      -15.1462603      -10.2021399    
 Ni   9.03958988      -10.0974798      -1.45740998    
 Ni   9.03971004      -12.6217098      -5.82986021    
 Ni   9.03958988      -20.1949291      -10.2021399    
 Ni   9.03958035      -15.1461496      -1.45739996    
 Ni   9.03958035      -17.6705894      -5.82987022    
 Ni   9.03971004      -10.0974798      -10.2019596    
 Ni   9.03958035      -5.04881001      -1.45739996    
 Ni   9.03971004      -7.57324982      -5.82986021    
 Ni   11.0480404      -17.6705894      -11.6595697    
 Ni   11.0482397      -12.6217098      -2.91508007    
 Ni   11.0482397      -15.1459904      -7.28725004    
 Ni   11.0482397      -7.57320976      -11.6593504    
 Ni   11.0481300      -2.52436996      -2.91489005    
 Ni   11.0482397      -5.04898024      -7.28725004    
 Ni   11.0482397      -12.6217499      -11.6593504    
 Ni   11.0482397      -7.57324982      -2.91508007    
 Ni   11.0328903      -10.0974798      -7.28723001    
 Ni   13.0586004      -12.6218004       2.99999992E-05
 Ni   13.0585403      -15.1460695      -4.37241983    
 Ni   13.0586004      -17.6705894      -8.74473000    
 Ni   13.0585403      -2.52436996       1.69999999E-04
 Ni   13.0585403      -5.04889011      -4.37241983    
 Ni   13.0558205      -7.56447983      -8.74965954    
 Ni   13.0586004      -7.57316017       2.99999992E-05
 Ni   13.0558205      -10.0974798      -4.36237001    
 Ni   13.0558205      -12.6304798      -8.74965954    
 Ni   15.0531197      -15.1463499      -1.45752001    
 Ni   15.0531197      -17.6705894      -5.82963991    
 Ni   15.0532999      -20.1949902      -10.2020998    
 Ni   15.0531197      -5.04861021      -1.45752001    
 Ni   15.0558395      -7.56749010      -5.82653999    
 Ni   15.0558395      -10.0974798      -10.2086096    
 Ni   15.0532999      -10.0974798      -1.45747995    
 Ni   15.0558395      -12.6274700      -5.82653999    
 Ni   15.0532999      -15.1461897      -10.2020998    
 Ni   3.02575994      -8.83533001      -3.64362001    
 Ni   3.02581000      -11.3597002      -8.01597023    
 Ni   3.02579999      -13.8840103      -12.3882599    
 Ni   3.02567005      -13.8840399      -3.64362001    
 Ni   3.02579999      -16.4083691      -8.01593971    
 Ni   3.02583003      -18.9328499      -12.3883305    
 Ni   3.02576995      -3.78650999      -3.64358997    
 Ni   3.02575994      -6.31094980      -8.01597977    
 Ni   3.02567005      -8.83530045      -12.3882904    
 Ni   5.02324009      -11.3596601      -5.10102987    
 Ni   5.02327013      -13.8840303      -9.47338963    
 Ni   5.02324009      -8.83532047     -0.728730023    
 Ni   5.02321005      -16.4084206      -5.10108995    
 Ni   5.02324009      -18.9327908      -9.47340965    
 Ni   5.02318001      -13.8839798     -0.728690028    
 Ni   5.02320004      -6.31095982      -5.10107994    
 Ni   5.02324009      -8.83526993      -9.47340965    
 Ni   5.02321005      -3.78659010     -0.728720009    
 Ni   7.03286982      -13.8839998      -6.55855989    
 Ni   7.03285980      -16.4084797      -10.9308901    
 Ni   7.03278017      -11.3596601      -2.18594003    
 Ni   7.03290987      -3.78657007      -6.55858994    
 Ni   7.03278017      -6.31072998      -10.9309502    
 Ni   7.03294992      -1.26209998      -2.18612003    
 Ni   7.03283978      -8.83528996      -6.55849981    
 Ni   7.03286982      -11.3596897      -10.9307899    
 Ni   7.03290987      -6.31100988      -2.18614006    
 Ni   9.03962994      -16.4085102      -8.01595974    
 Ni   9.03956032      -18.9328194      -12.3883104    
 Ni   9.03956032      -13.8839798      -3.64353991    
 Ni   9.03901005      -6.31065989      -8.01607990    
 Ni   9.03956032      -8.83520031      -12.3882799    
 Ni   9.03956985      -3.78669000      -3.64369011    
 Ni   9.04008961      -11.3596096      -8.01591969    
 Ni   9.03962994      -13.8841000      -12.3883801    
 Ni   9.03901005      -8.83528042      -3.64332008    
 Ni   11.0480499      -18.9328098      -9.47346020    
 Ni   11.0481901      -13.8839703     -0.728680015    
 Ni   11.0481300      -16.4083996      -5.10107994    
 Ni   11.0460196      -8.83386993      -9.47461033    
 Ni   11.0481300      -3.78657007     -0.728709996    
 Ni   11.0482903      -6.31099987      -5.10109997    
 Ni   11.0480700      -13.8837299      -9.47321987    
 Ni   11.0480499      -8.83537006     -0.728720009    
 Ni   11.0460196      -11.3599997      -5.09921980    
 Ni   13.0584202      -6.31119013      -10.9309902    
 Ni   13.0585003      -1.26218998      -2.18617010    
 Ni   13.0584497      -3.78578997      -6.55837011    
 Ni   13.0586700      -11.3602695      -10.9322395    
 Ni   13.0584497      -6.31042004      -2.18557000    
 Ni   13.0069304      -8.72367954      -6.49407005    
 Ni   13.0584602      -16.4084091      -10.9308395    
 Ni   13.0584202      -11.3599300      -2.18633008    
 Ni   13.0586700      -13.8855495      -6.55833006    
 Ni   15.0532303      -8.83498955      -12.3881397    
 Ni   15.0533199      -3.78660989      -3.64364004    
 Ni   15.0536699      -6.31120014      -8.01543999    
 Ni   15.0532598      -13.8840704      -12.3884296    
 Ni   15.0536699      -8.83498955      -3.64410996    
 Ni   15.0615501      -11.3664904      -8.01988983    
 Ni   15.0532904      -18.9328594      -12.3883400    
 Ni   15.0532303      -13.8837605      -3.64342999    
 Ni   15.0532598      -16.4085503      -8.01591015    
 N    13.7861700      -10.0974798      -7.28723001    
         261
 Energy:  -1296.2987889000001     
 X   0.00000000       0.00000000       0.00000000    
 X   0.00000000      -15.1462221       0.00000000    
 X   0.00000000      -7.57311106      -13.1170130    
 X   29.0000000       0.00000000       0.00000000    
 X   0.00000000      -22.7193336      -13.1170130    
 X   29.0000000      -15.1462221       0.00000000    
 X   29.0000000      -7.57311106      -13.1170130    
 X   29.0000000      -22.7193336      -13.1170130    
 Ni   3.02575994      -10.0974798      -5.82974005    
 Ni   3.02571011      -12.6218700      -10.2020798    
 Ni   3.02575994      -7.57312012      -1.45748997    
 Ni   3.02559996      -15.1462202      -5.82978010    
 Ni   3.02578998      -17.6705894      -10.2020302    
 Ni   3.02575994      -12.6218395      -1.45748997    
 Ni   3.02559996      -5.04873991      -5.82978010    
 Ni   3.02571011      -7.57309008      -10.2020798    
 Ni   3.02571988      -2.52436996      -1.45752001    
 Ni   5.02342987      -12.6218796      -7.28725004    
 Ni   5.02341986      -15.1462297      -11.6595402    
 Ni   5.02346992      -10.0974798      -2.91491008    
 Ni   5.02335978      -17.6705894      -7.28730011    