         261
 Energy:  -1296.9927305000001     
 X   0.00000000       0.00000000       0.00000000    
 X   0.00000000      -15.1462221       0.00000000    
 X   0.00000000      -7.57311106      -13.1170130    
 X   29.0000000       0.00000000       0.00000000    
 X   0.00000000      -22.7193336      -13.1170130    
 X   29.0000000      -15.1462221       0.00000000    
 X   29.0000000      -7.57311106      -13.1170130    
 X   29.0000000      -22.7193336      -13.1170130    
 Ni   3.03099990      -10.0974798      -5.83018017    
 Ni   3.02820992      -12.6210003      -10.2017803    
 Ni   3.02725005      -7.57213020      -1.45852995    
 Ni   3.02622008      -15.1463699      -5.82915020    
 Ni   3.02637005      -17.6705894      -10.2009497    
 Ni   3.02725005      -12.6228304      -1.45852995    
 Ni   3.02622008      -5.04859018      -5.82915020    
 Ni   3.02820992      -7.57395983      -10.2017803    
 Ni   3.02707005      -2.52436996      -1.45834005    
 Ni   5.02967978      -12.6214104      -7.28652000    
 Ni   5.02517986      -15.1450500      -11.6596603    
 Ni   5.02727985      -10.0974798      -2.91617990    
 Ni   5.02646017      -17.6705894      -7.28592014    
 Ni   5.02517986      -20.1961308      -11.6596603    
 Ni   5.02679014      -15.1466703      -2.91521001    
 Ni   5.02967978      -7.57355022      -7.28652000    
 Ni   5.02717018      -10.0974798      -11.6594601    
 Ni   5.02679014      -5.04828978      -2.91521001    
 Ni   7.03095007      -15.1465597      -8.74448013    
 Ni   7.02828979      -10.0974798       4.10000008E-04
 Ni   7.03539991      -12.6217003      -4.37390995    
 Ni   7.03095007      -5.04840994      -8.74448013    
 Ni   7.03292990      -5.09999983E-04   4.79999988E-04
 Ni   7.03341007      -2.52436996      -4.37286997    
 Ni   7.04018021      -10.0974798      -8.74398994    
 Ni   7.03292990      -5.04823017       4.79999988E-04
 Ni   7.03539991      -7.57325983      -4.37390995    
 Ni   9.02791977      -17.6705894      -10.2019396    
 Ni   9.03215981      -12.6221504      -1.45809996    
 Ni   9.03528023      -15.1453400      -5.82961988    
 Ni   9.03273964      -7.57347012      -10.2024498    
 Ni   9.03380966      -2.52436996      -1.45659995    
 Ni   9.03528023      -5.04963017      -5.82961988    
 Ni   9.03273964      -12.6214895      -10.2024498    
 Ni   9.03215981      -7.57281017      -1.45809996    
 Ni   9.04358959      -10.0974798      -5.82771015    
 Ni   11.0345497      -20.1928005      -11.6594496    
 Ni   11.0410004      -15.1451302      -2.91536999    
 Ni   11.0379496      -17.6705894      -7.28898001    
 Ni   11.0457697      -10.0974798      -11.6582499    
 Ni   11.0410004      -5.04982996      -2.91536999    
 Ni   11.0522604      -7.57387018      -7.28971004    
 Ni   11.0345497      -15.1483898      -11.6594496    
 Ni   11.0356598      -10.0974798      -2.91188002    
 Ni   11.0522604      -12.6210899      -7.28971004    
 Ni   13.0450497       3.71999992E-03  -3.47999996E-03
 Ni   13.0469999      -2.52436996      -4.37181997    
 Ni   13.0426598      -5.03832006      -8.74641991    
 Ni   13.0450497      -5.05246019      -3.47999996E-03
 Ni   13.0560503      -7.56698990      -4.36534977    
 Ni   13.0866203      -10.0974798      -8.77229023    
 Ni   13.0414104      -10.0974798       2.64999992E-03
 Ni   13.0560503      -12.6279697      -4.36534977    
 Ni   13.0426598      -15.1566401      -8.74641991    
 Ni   15.0383501      -2.52436996      -1.46420002    
 Ni   15.0393000      -5.02348995      -5.82492018    
 Ni   15.0395203      -7.56135988      -10.2352600    
 Ni   15.0333500      -7.56771994      -1.44594002    
 Ni   15.1625004      -10.0974798      -5.70756006    
 Ni   15.0395203      -12.6336002      -10.2352600    
 Ni   15.0333500      -12.6272402      -1.44594002    
 Ni   15.0393000      -15.1714697      -5.82492018    
 Ni   15.0305996      -17.6705894      -10.2033501    
 Ni   3.02622008      -6.31029987      -3.64380002    
 Ni   3.03099990      -8.83563995      -8.01574993    
 Ni   3.02622008      -11.3591995      -12.3887396    
 Ni   3.02820992      -11.3598003      -3.64452004    
 Ni   3.02820992      -13.8833103      -8.01537991    
 Ni   3.02637005      -16.4074001      -12.3888702    
 Ni   3.02707005      -16.4091797      -3.64317012    
 Ni   3.02725005      -18.9332294      -8.01455975    
 Ni   3.02725005      -21.4585800      -12.3885899    
 Ni   5.02967978      -8.83489990      -5.10178995    
 Ni   5.02967978      -11.3588305      -9.47336960    
 Ni   5.02646017      -6.30980015     -0.729380012    
 Ni   5.02717018      -13.8839397      -5.10110998    
 Ni   5.02517986      -16.4078999      -9.47233963    
 Ni   5.02517986      -11.3603296     -0.729690015    
 Ni   5.02679014      -3.78660989      -5.10051012    
 Ni   5.02727985      -6.31203985      -9.47274971    
 Ni   5.02679014      -1.26268995     -0.728950024    
 Ni   7.04018021      -11.3590803      -6.55884981    
 Ni   7.03095007      -13.8840399      -10.9312296    
 Ni   7.03095007      -8.83495998      -2.18597007    
 Ni   7.03292990      -16.4077396      -6.55830002    
 Ni   7.02828979      -18.9324207      -10.9310503    
 Ni   7.03292990      -13.8838797      -2.18685007    
 Ni   7.03539991      -6.31236982      -6.55784988    
 Ni   7.03539991      -8.83658981      -10.9299297    
 Ni   7.03341007      -3.78701997      -2.18589997    
 Ni   9.03273964      -13.8841400      -8.01548004    
 Ni   9.02791977      -16.4082508      -12.3883801    
 Ni   9.03273964      -11.3601303      -3.64375997    
 Ni   9.03215981      -18.9332008      -8.01537037    
 Ni   9.03215981      -21.4578705      -12.3882198    
 Ni   9.03380966      -16.4076691      -3.64404011    
 Ni   9.04358959      -8.83349991      -8.01698971    
 Ni   9.03528023      -11.3590803      -12.3876104    
 Ni   9.03528023      -6.31122017      -3.64445996    
 Ni   11.0345497      -16.4093895      -9.47533035    
 Ni   11.0345497      -11.3584900     -0.726909995    
 Ni   11.0457697      -13.8828897      -5.10171986    
 Ni   11.0356598      -6.30832005      -9.47490025    
 Ni   11.0410004      -1.26205003     -0.727540016    
 Ni   11.0410004      -3.78750992      -5.10176992    
 Ni   11.0522604      -11.3614302      -9.47150040    
 Ni   11.0379496      -6.31244993     -0.727850020    
 Ni   11.0522604      -8.83782005      -5.10048008    
 Ni   13.0414104      -18.9304790      -10.9321699    
 Ni   13.0450497      -13.8851900      -2.18121004    
 Ni   13.0450497      -16.4132805      -6.55998993    
 Ni   13.0560503      -8.83230972      -10.9396400    
 Ni   13.0469999      -3.78610992      -2.18642998    
 Ni   13.0560503      -6.30181980      -6.55670023    
 Ni   13.0426598      -13.8907604      -10.9389896    
 Ni   13.0426598      -8.83160019      -2.17627001    
 Ni   13.0866203      -11.3835802      -6.54470015    
 Ni   15.0333500      -21.4498806      -12.3987103    
 Ni   15.0383501      -16.4142494      -3.64023995    
 Ni   15.0333500      -18.9201202      -8.01702976    
 Ni   15.0393000      -11.3680801      -12.4125900    
 Ni   15.0393000      -6.29408979      -3.62418008    
 Ni   15.1625004      -8.72945023      -8.07705975    
 Ni   15.0305996      -16.4094696      -12.3876801    
 Ni   15.0395203      -11.3824902      -3.61686993    
 Ni   15.0395203      -13.9186096      -8.00955963    
 Ni   3.02828002      -7.57341003      -5.82995987    
 Ni   3.02828002      -10.0974798      -10.2017803    
 Ni   3.02731991      -5.04762983      -1.45808005    
 Ni   3.02828002      -12.6215496      -5.82995987    
 Ni   3.02687001      -15.1449699      -10.2013998    
 Ni   3.02687001      -10.0974798      -1.45889997    
 Ni   3.02731991      -17.6705894      -5.82850981    
 Ni   3.02687001      -20.1962204      -10.2013998    
 Ni   3.02731991      -15.1473303      -1.45808005    
 Ni   5.03179979      -10.0974798      -7.28723001    
 Ni   5.02720022      -12.6195898      -11.6595001    
 Ni   5.02720022      -7.57204008      -2.91688991    
 Ni   5.02720022      -15.1450300      -7.28529978    
 Ni   5.02323008      -17.6705894      -11.6595697    
 Ni   5.02720022      -12.6229200      -2.91688991    
 Ni   5.02720022      -5.04993010      -7.28529978    
 Ni   5.02720022      -7.57536983      -11.6595001    
 Ni   5.02833986      -2.52436996      -2.91489005    
 Ni   7.03444004      -12.6206703      -8.74398994    
 Ni   7.03108978      -7.57251978      -3.39999999E-04
 Ni   7.03444004      -10.0974798      -4.37370014    
 Ni   7.03108978      -17.6705894      -8.74400043    
 Ni   7.03108978      -12.6224403      -3.39999999E-04
 Ni   7.03327990      -15.1458302      -4.37257004    
 Ni   7.03444004      -7.57428980      -8.74398994    
 Ni   7.03327990      -2.52436996       4.60000010E-04
 Ni   7.03327990      -5.04913998      -4.37257004    
 Ni   9.02853966      -15.1462097      -10.2021103    
 Ni   9.02853966      -10.0974798      -1.45746005    
 Ni   9.04216003      -12.6193800      -5.83121014    
 Ni   9.02853966      -20.1949806      -10.2021103    
 Ni   9.03359032      -15.1462002      -1.45743001    
 Ni   9.03359032      -17.6705894      -5.82981014    
 Ni   9.04216003      -10.0974798      -10.1992702    
 Ni   9.03359032      -5.04875994      -1.45743001    
 Ni   9.04216003      -7.57558012      -5.83121014    
 Ni   11.0335197      -17.6705894      -11.6595697    
 Ni   11.0410604      -12.6198397      -2.91632009    
 Ni   11.0410604      -15.1439800      -7.28824997    
 Ni   11.0410604      -7.57334995      -11.6571102    
 Ni   11.0405302      -2.52436996      -2.91489005    
 Ni   11.0410604      -5.05098009      -7.28824997    
 Ni   11.0410604      -12.6216202      -11.6571102    
 Ni   11.0410604      -7.57511997      -2.91632009    
 Ni   11.0350199      -10.0974798      -7.28723001    
 Ni   13.0413504      -12.6182499       2.08000001E-03
 Ni   13.0502300      -15.1497803      -4.37027979    
 Ni   13.0413504      -17.6705894      -8.74884033    
 Ni   13.0502300      -2.52436996      -4.11000010E-03
 Ni   13.0502300      -5.04517984      -4.37027979    
 Ni   13.0537205      -7.53518009      -8.76657963    
 Ni   13.0413504      -7.57672024       2.08000001E-03
 Ni   13.0537205      -10.0974798      -4.32853985    
 Ni   13.0537205      -12.6597795      -8.76657963    
 Ni   15.0341702      -15.1500597      -1.45966005    
 Ni   15.0341702      -17.6705894      -5.82535982    
 Ni   15.0283499      -20.1903400      -10.2047901    
 Ni   15.0341702      -5.04490995      -1.45966005    
 Ni   15.0765200      -7.49688005      -5.78576994    
 Ni   15.0765200      -10.0974798      -10.2901402    
 Ni   15.0283499      -10.0974798      -1.45211005    
 Ni   15.0765200      -12.6980801      -5.78576994    
 Ni   15.0283499      -15.1508398      -10.2047901    
 Ni   3.02820992      -8.83516979      -3.64452004    
 Ni   3.03099990      -11.3593197      -8.01574993    
 Ni   3.02725005      -13.8825998      -12.3885899    
 Ni   3.02622008      -13.8846598      -3.64380002    
 Ni   3.02725005      -16.4079494      -8.01455975    
 Ni   3.02637005      -18.9337902      -12.3888702    
 Ni   3.02707005      -3.78577995      -3.64317012    
 Ni   3.02820992      -6.31164980      -8.01537991    
 Ni   3.02622008      -8.83576965      -12.3887396    
 Ni   5.02967978      -11.3600597      -5.10178995    
 Ni   5.02727985      -13.8829203      -9.47274971    
 Ni   5.02517986      -8.83463001     -0.729690015    
 Ni   5.02679014      -16.4083595      -5.10051012    
 Ni   5.02517986      -18.9332809      -9.47233963    
 Ni   5.02646017      -13.8851700     -0.729380012    
 Ni   5.02717018      -6.31101990      -5.10110998    
 Ni   5.02967978      -8.83613014      -9.47336960    
 Ni   5.02679014      -3.78605008     -0.728950024    
 Ni   7.03539991      -13.8825998      -6.55784988    
 Ni   7.02828979      -16.4087696      -10.9310503    
 Ni   7.03095007      -11.3599997      -2.18597007    
 Ni   7.03292990      -3.78723001      -6.55830002    
 Ni   7.03095007      -6.31091976      -10.9312296    
 Ni   7.03341007      -1.26171994      -2.18589997    
 Ni   7.04018021      -8.83588982      -6.55884981    
 Ni   7.03539991      -11.3583698      -10.9299297    
 Ni   7.03292990      -6.31108999      -2.18685007    
 Ni   9.03215981      -16.4079895      -8.01537037    
 Ni   9.02791977      -18.9329300      -12.3883801    
 Ni   9.03528023      -13.8837404      -3.64445996    
 Ni   9.03273964      -6.31082010      -8.01548004    
 Ni   9.03528023      -8.83588028      -12.3876104    
 Ni   9.03380966      -3.78729010      -3.64404011    
 Ni   9.04358959      -11.3614597      -8.01698971    
 Ni   9.03215981      -13.8833199      -12.3882198    
 Ni   9.03273964      -8.83483028      -3.64375997    
 Ni   11.0345497      -18.9317894      -9.47533035    
 Ni   11.0379496      -13.8825197     -0.727850020    
 Ni   11.0410004      -16.4074497      -5.10176992    
 Ni   11.0522604      -8.83353043      -9.47150040    
 Ni   11.0410004      -3.78669000     -0.727540016    
 Ni   11.0457697      -6.31206989      -5.10171986    
 Ni   11.0356598      -13.8866396      -9.47490025    
 Ni   11.0345497      -8.83648014     -0.726909995    
 Ni   11.0522604      -11.3571396      -5.10048008    
 Ni   13.0426598      -6.30420017      -10.9389896    
 Ni   13.0469999      -1.26262999      -2.18642998    
 Ni   13.0450497      -3.78168011      -6.55998993    
 Ni   13.0560503      -11.3626604      -10.9396400    
 Ni   13.0450497      -6.30977011      -2.18121004    
 Ni   13.0866203      -8.81138039      -6.54470015    
 Ni   13.0414104      -16.4107094      -10.9321699    
 Ni   13.0426598      -11.3633604      -2.17627001    
 Ni   13.0560503      -13.8931503      -6.55670023    
 Ni   15.0393000      -8.82688999      -12.4125900    
 Ni   15.0383501      -3.78070998      -3.64023995    
 Ni   15.0395203      -6.27635002      -8.00955963    
 Ni   15.0333500      -13.8913002      -12.3987103    
 Ni   15.0395203      -8.81247044      -3.61686993    
 Ni   15.1625004      -11.4655104      -8.07705975    
 Ni   15.0305996      -18.9317093      -12.3876801    
 Ni   15.0393000      -13.9008799      -3.62418008    
 Ni   15.0333500      -16.4210701      -8.01702976    
 N    14.2715101      -10.0974798      -7.28723001    
