       N       E                     dE             d eps       ncg     rms          rms(c)
DAV:   1     0.182117125822E+05    0.18212E+05   -0.91544E+05  6096   0.112E+03
DAV:   2    -0.171438412222E+03   -0.18383E+05   -0.17382E+05  6456   0.399E+02
DAV:   3    -0.140177889577E+04   -0.12303E+04   -0.10197E+04  7020   0.104E+02
DAV:   4    -0.156495398926E+04   -0.16318E+03   -0.14528E+03 10968   0.377E+01
DAV:   5    -0.157059006004E+04   -0.56361E+01   -0.54010E+01 10032   0.680E+00    0.148E+02
DAV:   6    -0.182936459705E+04   -0.25877E+03   -0.31352E+03  6756   0.144E+02    0.246E+02
DAV:   7    -0.202311444364E+04   -0.19375E+03   -0.13135E+03  6552   0.162E+02    0.248E+02
DAV:   8    -0.397844298072E+04   -0.19553E+04   -0.49715E+02  7104   0.202E+02    0.398E+02
DAV:   9    -0.172900938886E+04    0.22494E+04   -0.48648E+02  7212   0.754E+01    0.215E+02
DAV:  10    -0.145522984982E+04    0.27378E+03   -0.42762E+02  6984   0.674E+01    0.162E+02
DAV:  11    -0.148414145685E+04   -0.28912E+02   -0.42345E+02  6540   0.885E+01    0.190E+02
DAV:  12    -0.138762537720E+04    0.96516E+02   -0.24128E+02  6456   0.471E+01    0.112E+02
DAV:  13    -0.135704752502E+04    0.30578E+02   -0.10241E+02  6576   0.486E+01    0.116E+02
DAV:  14    -0.132180052309E+04    0.35247E+02   -0.56193E+01  6552   0.323E+01    0.797E+01
DAV:  15    -0.132001609432E+04    0.17844E+01   -0.38207E+01  6648   0.268E+01    0.795E+01
DAV:  16    -0.133129015109E+04   -0.11274E+02   -0.33999E+01  6576   0.293E+01    0.911E+01
DAV:  17    -0.131588180358E+04    0.15408E+02   -0.26397E+01  6576   0.244E+01    0.662E+01
DAV:  18    -0.131181688843E+04    0.40649E+01   -0.17525E+01  6528   0.209E+01    0.739E+01
DAV:  19    -0.131222214100E+04   -0.40525E+00   -0.10743E+01  6672   0.148E+01    0.750E+01
DAV:  20    -0.130806219431E+04    0.41599E+01   -0.10078E+01  6648   0.154E+01    0.618E+01
DAV:  21    -0.130348108123E+04    0.45811E+01   -0.64514E+00  6648   0.123E+01    0.503E+01
DAV:  22    -0.129970837493E+04    0.37727E+01   -0.40900E+00  6576   0.101E+01    0.392E+01
DAV:  23    -0.129816878624E+04    0.15396E+01   -0.28464E+00  6576   0.733E+00    0.329E+01
DAV:  24    -0.129910266693E+04   -0.93388E+00   -0.31393E+00  6600   0.863E+00    0.391E+01
DAV:  25    -0.129784419105E+04    0.12585E+01   -0.29857E+00  6528   0.770E+00    0.330E+01
DAV:  26    -0.129649102346E+04    0.13532E+01   -0.17298E+00  6528   0.651E+00    0.303E+01
DAV:  27    -0.129549811767E+04    0.99291E+00   -0.13488E+00  6624   0.434E+00    0.204E+01
DAV:  28    -0.129579418165E+04   -0.29606E+00   -0.12323E+00  6672   0.518E+00    0.236E+01
DAV:  29    -0.129527338782E+04    0.52079E+00   -0.10085E+00  6672   0.449E+00    0.199E+01
DAV:  30    -0.129502930792E+04    0.24408E+00   -0.70338E-01  6600   0.382E+00    0.187E+01
DAV:  31    -0.129489677086E+04    0.13254E+00   -0.58403E-01  6600   0.345E+00    0.157E+01
DAV:  32    -0.129467393256E+04    0.22284E+00   -0.70387E-01  6648   0.399E+00    0.134E+01
DAV:  33    -0.129465903895E+04    0.14894E-01   -0.43901E-01  6672   0.300E+00    0.133E+01
DAV:  34    -0.129454317471E+04    0.11586E+00   -0.22504E-01  6564   0.192E+00    0.127E+01
DAV:  35    -0.129434338176E+04    0.19979E+00   -0.13879E-01  6480   0.140E+00    0.976E+00
DAV:  36    -0.129431667348E+04    0.26708E-01   -0.61120E-02  6576   0.910E-01    0.919E+00
DAV:  37    -0.129430272443E+04    0.13949E-01   -0.68060E-02  6564   0.112E+00    0.945E+00
DAV:  38    -0.129425510856E+04    0.47616E-01   -0.60269E-02  6552   0.102E+00    0.831E+00
DAV:  39    -0.129421123272E+04    0.43876E-01   -0.37193E-02  6840   0.695E-01    0.710E+00
DAV:  40    -0.129417496890E+04    0.36264E-01   -0.23541E-02  7008   0.524E-01    0.608E+00
DAV:  41    -0.129416717349E+04    0.77954E-02   -0.26295E-02  6756   0.631E-01    0.569E+00
DAV:  42    -0.129415147762E+04    0.15696E-01   -0.29247E-02  6708   0.742E-01    0.511E+00
DAV:  43    -0.129414262912E+04    0.88485E-02   -0.19993E-02  6708   0.640E-01    0.480E+00
DAV:  44    -0.129412914331E+04    0.13486E-01   -0.16742E-02  6744   0.570E-01    0.401E+00
DAV:  45    -0.129411107912E+04    0.18064E-01   -0.12320E-02  6660   0.459E-01    0.301E+00
DAV:  46    -0.129410653389E+04    0.45452E-02   -0.51167E-03  7056   0.235E-01    0.259E+00
DAV:  47    -0.129410333051E+04    0.32034E-02   -0.49656E-03  7056   0.289E-01    0.217E+00
DAV:  48    -0.129409635004E+04    0.69805E-02   -0.47033E-03  6852   0.261E-01    0.119E+00
DAV:  49    -0.129409739653E+04   -0.10465E-02   -0.25370E-03  6888   0.178E-01    0.118E+00
DAV:  50    -0.129409749901E+04   -0.10249E-03   -0.22934E-03  6684   0.191E-01    0.103E+00
DAV:  51    -0.129409731740E+04    0.18162E-03   -0.27564E-03  8148   0.193E-01    0.609E-01
DAV:  52    -0.129409798044E+04   -0.66304E-03   -0.16737E-03  7116   0.162E-01    0.578E-01
DAV:  53    -0.129409768318E+04    0.29726E-03   -0.95510E-04  6720   0.124E-01    0.362E-01
DAV:  54    -0.129409806712E+04   -0.38394E-03   -0.44103E-04  7176   0.792E-02    0.388E-01
DAV:  55    -0.129409836293E+04   -0.29581E-03   -0.36956E-04  6744   0.737E-02    0.278E-01
DAV:  56    -0.129409898581E+04   -0.62288E-03   -0.36722E-04  7464   0.839E-02    0.315E-01
DAV:  57    -0.129409904941E+04   -0.63593E-04   -0.29378E-04  6924   0.709E-02    0.169E-01
DAV:  58    -0.129409914024E+04   -0.90829E-04   -0.13817E-04  6684   0.486E-02    0.133E-01
DAV:  59    -0.129409945489E+04   -0.31466E-03   -0.10801E-04  6750   0.425E-02    0.143E-01
DAV:  60    -0.129409955448E+04   -0.99588E-04   -0.71315E-05  6660   0.348E-02
   1 F= -.12940996E+04 E0= -.12934320E+04  d E =-.129410E+04
       N       E                     dE             d eps       ncg     rms          rms(c)
DAV:   1    -0.129497881216E+04   -0.87936E+00   -0.85100E+02  6090   0.264E+01    0.946E+00
DAV:   2    -0.129959299603E+04   -0.46142E+01   -0.15280E+01  6924   0.104E+01    0.289E+01
DAV:   3    -0.131860497092E+04   -0.19012E+02   -0.79530E+00  6600   0.160E+01    0.807E+01
DAV:   4    -0.130195671303E+04    0.16648E+02   -0.11573E+01  6516   0.154E+01    0.470E+01
DAV:   5    -0.130445389058E+04   -0.24972E+01   -0.52196E+00  6672   0.109E+01    0.479E+01
DAV:   6    -0.130420995454E+04    0.24394E+00   -0.47674E+00  6708   0.119E+01    0.553E+01
DAV:   7    -0.130075675176E+04    0.34532E+01   -0.53731E+00  6672   0.109E+01    0.338E+01
DAV:   8    -0.129848438050E+04    0.22724E+01   -0.25558E+00  6720   0.832E+00    0.260E+01
DAV:   9    -0.129927580775E+04   -0.79143E+00   -0.24306E+00  6696   0.736E+00    0.333E+01
DAV:  10    -0.129812601814E+04    0.11498E+01   -0.18293E+00  6744   0.614E+00    0.222E+01
DAV:  11    -0.129764556482E+04    0.48045E+00   -0.12496E+00  6672   0.539E+00    0.215E+01
DAV:  12    -0.129696466809E+04    0.68090E+00   -0.99424E-01  6576   0.411E+00    0.160E+01
DAV:  13    -0.129656592818E+04    0.39874E+00   -0.50130E-01  6612   0.274E+00    0.970E+00
DAV:  14    -0.129647529313E+04    0.90635E-01   -0.25515E-01  6696   0.233E+00    0.848E+00
DAV:  15    -0.129655350531E+04   -0.78212E-01   -0.30671E-01  6780   0.235E+00    0.930E+00
DAV:  16    -0.129641804526E+04    0.13546E+00   -0.21795E-01  6696   0.218E+00    0.676E+00
DAV:  17    -0.129630244918E+04    0.11560E+00   -0.10099E-01  6576   0.155E+00    0.392E+00
DAV:  18    -0.129628942192E+04    0.13027E-01   -0.42087E-02  6648   0.101E+00    0.367E+00
DAV:  19    -0.129632806606E+04   -0.38644E-01   -0.52649E-02  6636   0.105E+00    0.492E+00
DAV:  20    -0.129630914788E+04    0.18918E-01   -0.55021E-02  6600   0.113E+00    0.484E+00
DAV:  21    -0.129629346632E+04    0.15682E-01   -0.33140E-02  6624   0.836E-01    0.433E+00
DAV:  22    -0.129627957649E+04    0.13890E-01   -0.14536E-02  6528   0.527E-01    0.323E+00
DAV:  23    -0.129625987712E+04    0.19699E-01   -0.12347E-02  6600   0.538E-01    0.140E+00
DAV:  24    -0.129625535400E+04    0.45231E-02   -0.52054E-03  6564   0.311E-01    0.759E-01
DAV:  25    -0.129625658316E+04   -0.12292E-02   -0.40470E-03  6816   0.256E-01    0.958E-01
DAV:  26    -0.129625488877E+04    0.16944E-02   -0.35870E-03  6636   0.255E-01    0.625E-01
DAV:  27    -0.129625430734E+04    0.58143E-03   -0.19177E-03  6576   0.194E-01    0.422E-01
DAV:  28    -0.129625674400E+04   -0.24367E-02   -0.26486E-03  6912   0.231E-01    0.864E-01
DAV:  29    -0.129625439563E+04    0.23484E-02   -0.21553E-03  6720   0.219E-01    0.387E-01
DAV:  30    -0.129625423596E+04    0.15967E-03   -0.51993E-04  7104   0.933E-02    0.329E-01
DAV:  31    -0.129625439753E+04   -0.16158E-03   -0.38930E-04  6828   0.882E-02    0.338E-01
DAV:  32    -0.129625402195E+04    0.37558E-03   -0.30589E-04  6696   0.815E-02    0.112E-01
DAV:  33    -0.129625400919E+04    0.12764E-04   -0.75787E-05  6528   0.340E-02    0.865E-02
DAV:  34    -0.129625403735E+04   -0.28165E-04   -0.64882E-05  6576   0.316E-02    0.113E-01
DAV:  35    -0.129625400204E+04    0.35315E-04   -0.45786E-05  6024   0.284E-02    0.485E-02
DAV:  36    -0.129625400155E+04    0.48382E-06   -0.11663E-05  3492   0.134E-02
   2 F= -.12962540E+04 E0= -.12955865E+04  d E =-.215445E+01
       N       E                     dE             d eps       ncg     rms          rms(c)
DAV:   1    -0.129625432637E+04   -0.32434E-03   -0.37318E+01  6072   0.576E+00    0.116E+00
DAV:   2    -0.129667483536E+04   -0.42051E+00   -0.57223E-01  7188   0.222E+00    0.127E+01
DAV:   3    -0.129670818836E+04   -0.33353E-01   -0.38239E-01  6540   0.253E+00    0.136E+01
DAV:   4    -0.129636333760E+04    0.34485E+00   -0.27949E-01  6600   0.210E+00    0.519E+00
DAV:   5    -0.129633661636E+04    0.26721E-01   -0.99272E-02  7164   0.118E+00    0.392E+00
DAV:   6    -0.129639164908E+04   -0.55033E-01   -0.95837E-02  6852   0.129E+00    0.570E+00
DAV:   7    -0.129639215393E+04   -0.50485E-03   -0.14971E-01  6636   0.146E+00    0.537E+00
DAV:   8    -0.129633670155E+04    0.55452E-01   -0.84861E-02  6612   0.126E+00    0.379E+00
DAV:   9    -0.129631356412E+04    0.23137E-01   -0.43932E-02  6816   0.800E-01    0.237E+00
DAV:  10    -0.129631929524E+04   -0.57311E-02   -0.29718E-02  6720   0.721E-01    0.256E+00
DAV:  11    -0.129634742923E+04   -0.28134E-01   -0.39915E-02  6672   0.853E-01    0.416E+00
DAV:  12    -0.129631931118E+04    0.28118E-01   -0.41861E-02  6636   0.794E-01    0.276E+00
DAV:  13    -0.129630230636E+04    0.17005E-01   -0.11975E-02  6660   0.484E-01    0.124E+00
DAV:  14    -0.129630264785E+04   -0.34150E-03   -0.42317E-03  6624   0.258E-01    0.131E+00
DAV:  15    -0.129630285362E+04   -0.20577E-03   -0.48163E-03  6648   0.270E-01    0.120E+00
DAV:  16    -0.129630072243E+04    0.21312E-02   -0.35120E-03  6648   0.264E-01    0.751E-01
DAV:  17    -0.129629912554E+04    0.15969E-02   -0.12568E-03  6600   0.178E-01    0.371E-01
DAV:  18    -0.129629904689E+04    0.78658E-04   -0.41692E-04  6468   0.941E-02    0.327E-01
DAV:  19    -0.129629911093E+04   -0.64040E-04   -0.36218E-04  6480   0.878E-02    0.314E-01
DAV:  20    -0.129629884847E+04    0.26246E-03   -0.27810E-04  6480   0.777E-02    0.147E-01
DAV:  21    -0.129629879141E+04    0.57054E-04   -0.91829E-05  6456   0.408E-02    0.798E-02
DAV:  22    -0.129629878897E+04    0.24479E-05   -0.46071E-05  6312   0.285E-02
   3 F= -.12962988E+04 E0= -.12956311E+04  d E =-.219923E+01
       N       E                     dE             d eps       ncg     rms          rms(c)
DAV:   1    -0.129629888789E+04   -0.96472E-04   -0.20084E-01  6084   0.428E-01    0.132E-01
DAV:   2    -0.129635521002E+04   -0.56322E-01   -0.14622E-02  6792   0.593E-01    0.535E+00
DAV:   3    -0.129630619386E+04    0.49016E-01   -0.17980E-02  6552   0.619E-01    0.159E+00
DAV:   4    -0.129630015602E+04    0.60378E-02   -0.32750E-03  6672   0.295E-01    0.609E-01
DAV:   5    -0.129630099382E+04   -0.83780E-03   -0.23195E-03  7440   0.195E-01    0.855E-01
DAV:   6    -0.129630181696E+04   -0.82314E-03   -0.33212E-03  7296   0.230E-01    0.920E-01
DAV:   7    -0.129630071270E+04    0.11043E-02   -0.27383E-03  6972   0.216E-01    0.757E-01
DAV:   8    -0.129629955202E+04    0.11607E-02   -0.14354E-03  6816   0.154E-01    0.423E-01
DAV:   9    -0.129629920074E+04    0.35128E-03   -0.44466E-04  6672   0.850E-02    0.217E-01
DAV:  10    -0.129629917408E+04    0.26663E-04   -0.20618E-04  6756   0.573E-02    0.182E-01
DAV:  11    -0.129629927136E+04   -0.97282E-04   -0.21279E-04  6960   0.638E-02    0.240E-01
DAV:  12    -0.129629933068E+04   -0.59316E-04   -0.25182E-04  6792   0.663E-02    0.311E-01
DAV:  13    -0.129629914400E+04    0.18667E-03   -0.17988E-04  6696   0.531E-02    0.151E-01
DAV:  14    -0.129629911205E+04    0.31950E-04   -0.49912E-05  6348   0.315E-02    0.116E-01
DAV:  15    -0.129629912364E+04   -0.11585E-04   -0.36605E-05  4824   0.238E-02    0.133E-01
DAV:  16    -0.129629910719E+04    0.16452E-04   -0.44246E-05  5280   0.253E-02    0.869E-02
DAV:  17    -0.129629909720E+04    0.99885E-05   -0.24730E-05  4260   0.227E-02    0.686E-02
DAV:  18    -0.129629908726E+04    0.99415E-05   -0.95808E-06  3396   0.147E-02    0.484E-02
DAV:  19    -0.129629908767E+04   -0.41694E-06   -0.33577E-06  3180   0.798E-03
   4 F= -.12962991E+04 E0= -.12956314E+04  d E =-.219953E+01
       N       E                     dE             d eps       ncg     rms          rms(c)
DAV:   1    -0.129640832802E+04   -0.10924E+00   -0.23430E+01  6072   0.468E+00    0.887E-01
DAV:   2    -0.129671182901E+04   -0.30350E+00   -0.47731E-01  6852   0.195E+00    0.934E+00
DAV:   3    -0.129679286620E+04   -0.81037E-01   -0.28443E-01  6564   0.235E+00    0.137E+01
DAV:   4    -0.129648579972E+04    0.30707E+00   -0.20394E-01  6696   0.166E+00    0.393E+00
DAV:   5    -0.129648006615E+04    0.57336E-02   -0.74486E-02  6600   0.102E+00    0.375E+00
DAV:   6    -0.129649191814E+04   -0.11852E-01   -0.72647E-02  6552   0.104E+00    0.409E+00
DAV:   7    -0.129650870417E+04   -0.16786E-01   -0.69592E-02  6552   0.113E+00    0.463E+00
DAV:   8    -0.129647783463E+04    0.30870E-01   -0.62337E-02  6528   0.994E-01    0.348E+00
DAV:   9    -0.129645308387E+04    0.24751E-01   -0.29272E-02  6480   0.678E-01    0.162E+00
DAV:  10    -0.129645193041E+04    0.11535E-02   -0.10780E-02  6516   0.491E-01    0.142E+00
DAV:  11    -0.129646069103E+04   -0.87606E-02   -0.12606E-02  6600   0.550E-01    0.221E+00
DAV:  12    -0.129645631420E+04    0.43768E-02   -0.14887E-02  6552   0.508E-01    0.207E+00
DAV:  13    -0.129644903854E+04    0.72757E-02   -0.72673E-03  6576   0.341E-01    0.122E+00
DAV:  14    -0.129644814206E+04    0.89648E-03   -0.26893E-03  6552   0.223E-01    0.111E+00
DAV:  15    -0.129644758127E+04    0.56079E-03   -0.25372E-03  6792   0.188E-01    0.957E-01
DAV:  16    -0.129644673211E+04    0.84916E-03   -0.21592E-03  6744   0.204E-01    0.608E-01
DAV:  17    -0.129644574628E+04    0.98583E-03   -0.11200E-03  6576   0.161E-01    0.421E-01
DAV:  18    -0.129644559728E+04    0.14900E-03   -0.34796E-04  6744   0.793E-02    0.358E-01
DAV:  19    -0.129644562588E+04   -0.28602E-04   -0.25937E-04  6720   0.707E-02    0.318E-01
DAV:  20    -0.129644538310E+04    0.24278E-03   -0.18503E-04  6672   0.650E-02    0.129E-01
DAV:  21    -0.129644534889E+04    0.34211E-04   -0.52520E-05  6372   0.337E-02    0.821E-02
DAV:  22    -0.129644537073E+04   -0.21838E-04   -0.43184E-05  6048   0.289E-02    0.110E-01
DAV:  23    -0.129644535114E+04    0.19588E-04   -0.40235E-05  6036   0.285E-02    0.840E-02
DAV:  24    -0.129644533449E+04    0.16644E-04   -0.16444E-05  3720   0.188E-02    0.490E-02
DAV:  25    -0.129644533809E+04   -0.35999E-05   -0.89616E-06  3276   0.136E-02
   5 F= -.12964453E+04 E0= -.12957778E+04  d E =-.146250E+00
       N       E                     dE             d eps       ncg     rms          rms(c)
DAV:   1    -0.129629950588E+04    0.14583E+00   -0.20971E+02  6072   0.140E+01    0.278E+00
DAV:   2    -0.129844127836E+04   -0.21418E+01   -0.46664E+00  7008   0.566E+00    0.211E+01
DAV:   3    -0.129812579125E+04    0.31549E+00   -0.18639E+00  6576   0.646E+00    0.272E+01
DAV:   4    -0.129740835971E+04    0.71743E+00   -0.12961E+00  6492   0.404E+00    0.185E+01
DAV:   5    -0.129701257663E+04    0.39578E+00   -0.75963E-01  6696   0.321E+00    0.113E+01
DAV:   6    -0.129699492142E+04    0.17655E-01   -0.53357E-01  6648   0.294E+00    0.101E+01
DAV:   7    -0.129725745061E+04   -0.26253E+00   -0.53696E-01  6612   0.318E+00    0.140E+01
DAV:   8    -0.129696455472E+04    0.29290E+00   -0.53073E-01  6588   0.291E+00    0.922E+00
DAV:   9    -0.129676202204E+04    0.20253E+00   -0.21788E-01  6600   0.213E+00    0.477E+00
DAV:  10    -0.129678048445E+04   -0.18462E-01   -0.12351E-01  6600   0.157E+00    0.538E+00
DAV:  11    -0.129689682239E+04   -0.11634E+00   -0.18283E-01  6588   0.176E+00    0.843E+00
DAV:  12    -0.129678568694E+04    0.11114E+00   -0.16534E-01  6588   0.173E+00    0.552E+00
DAV:  13    -0.129671674255E+04    0.68944E-01   -0.67334E-02  6612   0.118E+00    0.309E+00
DAV:  14    -0.129671829476E+04   -0.15522E-02   -0.36575E-02  6564   0.721E-01    0.323E+00
DAV:  15    -0.129671519423E+04    0.31005E-02   -0.33495E-02  6588   0.771E-01    0.257E+00
DAV:  16    -0.129670320786E+04    0.11986E-01   -0.22665E-02  6588   0.709E-01    0.163E+00
DAV:  17    -0.129669509202E+04    0.81158E-02   -0.98768E-03  6516   0.489E-01    0.889E-01
DAV:  18    -0.129669378969E+04    0.13023E-02   -0.31901E-03  6552   0.268E-01    0.661E-01
DAV:  19    -0.129669549515E+04   -0.17055E-02   -0.30068E-03  6792   0.253E-01    0.936E-01
DAV:  20    -0.129669291849E+04    0.25767E-02   -0.23990E-03  6528   0.226E-01    0.414E-01
DAV:  21    -0.129669255934E+04    0.35915E-03   -0.61489E-04  6552   0.110E-01    0.266E-01
DAV:  22    -0.129669278147E+04   -0.22213E-03   -0.47706E-04  6636   0.943E-02    0.356E-01
DAV:  23    -0.129669257362E+04    0.20785E-03   -0.47633E-04  6600   0.955E-02    0.258E-01
DAV:  24    -0.129669238953E+04    0.18409E-03   -0.21436E-04  6564   0.642E-02    0.129E-01
DAV:  25    -0.129669239004E+04   -0.51031E-06   -0.84835E-05  6792   0.347E-02    0.120E-01
DAV:  26    -0.129669239070E+04   -0.65111E-06   -0.66516E-05  6528   0.350E-02    0.111E-01
DAV:  27    -0.129669235435E+04    0.36341E-04   -0.41398E-05  6120   0.281E-02    0.514E-02
DAV:  28    -0.129669235335E+04    0.10050E-05   -0.12575E-05  3444   0.141E-02
   6 F= -.12966924E+04 E0= -.12960249E+04  d E =-.393266E+00
       N       E                     dE             d eps       ncg     rms          rms(c)
DAV:   1    -0.129667906305E+04    0.13291E-01   -0.13958E+01  6072   0.360E+00    0.662E-01
DAV:   2    -0.129678485474E+04   -0.10579E+00   -0.27335E-01  7356   0.121E+00    0.525E+00
DAV:   3    -0.129672437681E+04    0.60478E-01   -0.10347E-01  6558   0.125E+00    0.317E+00
DAV:   4    -0.129676163627E+04   -0.37259E-01   -0.37537E-02  6660   0.848E-01    0.572E+00
DAV:   5    -0.129671709064E+04    0.44546E-01   -0.40747E-02  6504   0.798E-01    0.264E+00
DAV:   6    -0.129671919184E+04   -0.21012E-02   -0.27429E-02  6636   0.665E-01    0.262E+00
DAV:   7    -0.129672949472E+04   -0.10303E-01   -0.32021E-02  6624   0.742E-01    0.305E+00
DAV:   8    -0.129671960163E+04    0.98931E-02   -0.27722E-02  6576   0.715E-01    0.266E+00
DAV:   9    -0.129670537092E+04    0.14231E-01   -0.17823E-02  6552   0.515E-01    0.128E+00
DAV:  10    -0.129670534775E+04    0.23171E-04   -0.68706E-03  6624   0.394E-01    0.116E+00
DAV:  11    -0.129671301506E+04   -0.76673E-02   -0.86100E-03  6606   0.461E-01    0.195E+00
DAV:  12    -0.129670625459E+04    0.67605E-02   -0.97471E-03  6600   0.424E-01    0.145E+00
DAV:  13    -0.129670144109E+04    0.48135E-02   -0.36852E-03  6696   0.245E-01    0.466E-01
DAV:  14    -0.129670143333E+04    0.77581E-05   -0.10852E-03  6570   0.133E-01    0.500E-01
DAV:  15    -0.129670163489E+04   -0.20156E-03   -0.11344E-03  6624   0.127E-01    0.542E-01
DAV:  16    -0.129670142280E+04    0.21210E-03   -0.95379E-04  6624   0.132E-01    0.410E-01
DAV:  17    -0.129670095284E+04    0.46996E-03   -0.45867E-04  6600   0.103E-01    0.207E-01
DAV:  18    -0.129670084446E+04    0.10838E-03   -0.13065E-04  6552   0.551E-02    0.102E-01
DAV:  19    -0.129670088722E+04   -0.42761E-04   -0.85264E-05  6804   0.414E-02    0.144E-01
DAV:  20    -0.129670085786E+04    0.29360E-04   -0.91005E-05  6624   0.415E-02    0.113E-01
DAV:  21    -0.129670082023E+04    0.37631E-04   -0.43149E-05  6348   0.298E-02    0.553E-02
DAV:  22    -0.129670081414E+04    0.60858E-05   -0.13849E-05  3552   0.160E-02    0.329E-02
DAV:  23    -0.129670082356E+04   -0.94177E-05   -0.11485E-05  3456   0.157E-02    0.578E-02
DAV:  24    -0.129670081426E+04    0.93008E-05   -0.10708E-05  3396   0.149E-02    0.295E-02
DAV:  25    -0.129670081205E+04    0.22055E-05   -0.38540E-06  3144   0.782E-03
   7 F= -.12967008E+04 E0= -.12960333E+04  d E =-.401724E+00
       N       E                     dE             d eps       ncg     rms          rms(c)
DAV:   1    -0.129671923865E+04   -0.18424E-01   -0.70946E+01  6072   0.851E+00    0.107E+00
DAV:   2    -0.129718035588E+04   -0.46112E+00   -0.10663E+00  7620   0.242E+00    0.112E+01
DAV:   3    -0.129712329769E+04    0.57058E-01   -0.40066E-01  6552   0.270E+00    0.131E+01
DAV:   4    -0.129685542088E+04    0.26788E+00   -0.20974E-01  6612   0.167E+00    0.463E+00
DAV:   5    -0.129687777073E+04   -0.22350E-01   -0.11195E-01  6948   0.127E+00    0.535E+00
DAV:   6    -0.129691620828E+04   -0.38438E-01   -0.13740E-01  6672   0.145E+00    0.609E+00
DAV:   7    -0.129690038879E+04    0.15819E-01   -0.12442E-01  6612   0.148E+00    0.587E+00
DAV:   8    -0.129682482242E+04    0.75566E-01   -0.75383E-02  6552   0.107E+00    0.268E+00
DAV:   9    -0.129681097836E+04    0.13844E-01   -0.18093E-02  6564   0.586E-01    0.143E+00
DAV:  10    -0.129681621287E+04   -0.52345E-02   -0.12096E-02  6624   0.496E-01    0.193E+00
DAV:  11    -0.129682040399E+04   -0.41911E-02   -0.17048E-02  6636   0.522E-01    0.241E+00
DAV:  12    -0.129681066903E+04    0.97350E-02   -0.12475E-02  6576   0.454E-01    0.136E+00
DAV:  13    -0.129680714529E+04    0.35237E-02   -0.43371E-03  6600   0.298E-01    0.925E-01
DAV:  14    -0.129680827950E+04   -0.11342E-02   -0.29872E-03  6720   0.209E-01    0.115E+00
DAV:  15    -0.129680809770E+04    0.18181E-03   -0.38533E-03  6696   0.237E-01    0.955E-01
DAV:  16    -0.129680620604E+04    0.18917E-02   -0.25360E-03  6672   0.223E-01    0.535E-01
DAV:  17    -0.129680546765E+04    0.73839E-03   -0.74593E-04  6648   0.131E-01    0.308E-01
DAV:  18    -0.129680550486E+04   -0.37216E-04   -0.32816E-04  6720   0.819E-02    0.307E-01
DAV:  19    -0.129680555901E+04   -0.54147E-04   -0.35991E-04  6648   0.843E-02    0.297E-01
DAV:  20    -0.129680530061E+04    0.25839E-03   -0.23672E-04  6648   0.723E-02    0.118E-01
DAV:  21    -0.129680527866E+04    0.21950E-04   -0.68279E-05  6696   0.357E-02    0.866E-02
DAV:  22    -0.129680530227E+04   -0.23604E-04   -0.50860E-05  6300   0.319E-02    0.115E-01
DAV:  23    -0.129680527898E+04    0.23291E-04   -0.40980E-05  6132   0.293E-02    0.880E-02
DAV:  24    -0.129680526406E+04    0.14919E-04   -0.16818E-05  4044   0.188E-02    0.592E-02
DAV:  25    -0.129680526286E+04    0.11979E-05   -0.82035E-06  3216   0.126E-02
   8 F= -.12968053E+04 E0= -.12961381E+04  d E =-.104451E+00
       N       E                     dE             d eps       ncg     rms          rms(c)
DAV:   1    -0.129667851201E+04    0.12675E+00   -0.13759E+02  6072   0.119E+01    0.151E+00
DAV:   2    -0.129753567515E+04   -0.85716E+00   -0.22687E+00  7884   0.336E+00    0.146E+01
DAV:   3    -0.129718769271E+04    0.34798E+00   -0.63087E-01  6552   0.353E+00    0.131E+01
DAV:   4    -0.129703237127E+04    0.15532E+00   -0.29429E-01  6630   0.204E+00    0.908E+00
DAV:   5    -0.129700372117E+04    0.28650E-01   -0.23479E-01  6960   0.186E+00    0.743E+00
DAV:   6    -0.129706840340E+04   -0.64682E-01   -0.26615E-01  6744   0.198E+00    0.818E+00
DAV:   7    -0.129705683418E+04    0.11569E-01   -0.23718E-01  6576   0.204E+00    0.833E+00
DAV:   8    -0.129689860735E+04    0.15823E+00   -0.14325E-01  6576   0.149E+00    0.340E+00
DAV:   9    -0.129687362531E+04    0.24982E-01   -0.30991E-02  6528   0.776E-01    0.181E+00
DAV:  10    -0.129688592311E+04   -0.12298E-01   -0.22093E-02  6576   0.655E-01    0.279E+00
DAV:  11    -0.129689058537E+04   -0.46623E-02   -0.32311E-02  6564   0.693E-01    0.314E+00
DAV:  12    -0.129687231388E+04    0.18271E-01   -0.20796E-02  6528   0.604E-01    0.157E+00
DAV:  13    -0.129686640466E+04    0.59092E-02   -0.72092E-03  6504   0.404E-01    0.899E-01
DAV:  14    -0.129686843694E+04   -0.20323E-02   -0.52803E-03  6660   0.302E-01    0.121E+00
DAV:  15    -0.129687239438E+04   -0.39574E-02   -0.78907E-03  6612   0.339E-01    0.171E+00
DAV:  16    -0.129686607455E+04    0.63198E-02   -0.60636E-03  6600   0.326E-01    0.712E-01
DAV:  17    -0.129686456345E+04    0.15111E-02   -0.13715E-03  6552   0.171E-01    0.272E-01
DAV:  18    -0.129686468916E+04   -0.12571E-03   -0.58599E-04  6552   0.106E-01    0.314E-01
DAV:  19    -0.129686492323E+04   -0.23406E-03   -0.64936E-04  6576   0.113E-01    0.392E-01
DAV:  20    -0.129686444749E+04    0.47573E-03   -0.43115E-04  6552   0.970E-02    0.146E-01
DAV:  21    -0.129686440241E+04    0.45084E-04   -0.11295E-04  6720   0.438E-02    0.862E-02
DAV:  22    -0.129686444477E+04   -0.42358E-04   -0.79646E-05  6576   0.387E-02    0.135E-01
DAV:  23    -0.129686441586E+04    0.28911E-04   -0.69435E-05  6516   0.374E-02    0.112E-01
DAV:  24    -0.129686438908E+04    0.26777E-04   -0.29444E-05  5352   0.243E-02    0.690E-02
DAV:  25    -0.129686438833E+04    0.75164E-06   -0.12860E-05  3528   0.146E-02
   9 F= -.12968644E+04 E0= -.12961977E+04  d E =-.163576E+00
       N       E                     dE             d eps       ncg     rms          rms(c)
DAV:   1    -0.129687302804E+04   -0.86390E-02   -0.26929E+01  6072   0.537E+00    0.711E-01
DAV:   2    -0.129715627313E+04   -0.28325E+00   -0.41331E-01  6756   0.175E+00    0.103E+01
DAV:   3    -0.129712995462E+04    0.26319E-01   -0.27089E-01  6516   0.203E+00    0.106E+01
DAV:   4    -0.129693098776E+04    0.19897E+00   -0.14357E-01  6714   0.144E+00    0.308E+00
DAV:   5    -0.129692437236E+04    0.66154E-02   -0.51928E-02  6816   0.866E-01    0.271E+00
DAV:   6    -0.129696063944E+04   -0.36267E-01   -0.58764E-02  6732   0.955E-01    0.444E+00
DAV:   7    -0.129694875964E+04    0.11880E-01   -0.76038E-02  6696   0.102E+00    0.375E+00
DAV:   8    -0.129692765056E+04    0.21109E-01   -0.43888E-02  6624   0.816E-01    0.290E+00
DAV:   9    -0.129691008168E+04    0.17569E-01   -0.18815E-02  6576   0.525E-01    0.128E+00
DAV:  10    -0.129690784351E+04    0.22382E-02   -0.49734E-03  6552   0.322E-01    0.917E-01
DAV:  11    -0.129691219075E+04   -0.43472E-02   -0.60409E-03  6600   0.325E-01    0.158E+00
DAV:  12    -0.129691157613E+04    0.61461E-03   -0.71611E-03  6660   0.332E-01    0.149E+00
DAV:  13    -0.129690826062E+04    0.33155E-02   -0.32415E-03  6600   0.253E-01    0.113E+00
DAV:  14    -0.129690775623E+04    0.50439E-03   -0.13424E-03  6564   0.142E-01    0.102E+00
DAV:  15    -0.129690743496E+04    0.32127E-03   -0.13100E-03  6708   0.146E-01    0.862E-01
DAV:  16    -0.129690635426E+04    0.10807E-02   -0.11029E-03  6672   0.153E-01    0.449E-01
DAV:  17    -0.129690590118E+04    0.45307E-03   -0.49324E-04  6600   0.110E-01    0.326E-01
DAV:  18    -0.129690588057E+04    0.20616E-04   -0.19779E-04  6480   0.605E-02    0.299E-01
DAV:  19    -0.129690588375E+04   -0.31826E-05   -0.18884E-04  6588   0.610E-02    0.251E-01
DAV:  20    -0.129690572003E+04    0.16372E-03   -0.13122E-04  6504   0.532E-02    0.104E-01
DAV:  21    -0.129690571283E+04    0.72019E-05   -0.36297E-05  5784   0.267E-02    0.916E-02
DAV:  22    -0.129690571944E+04   -0.66040E-05   -0.29854E-05  5520   0.256E-02    0.880E-02
DAV:  23    -0.129690570373E+04    0.15702E-04   -0.25204E-05  5064   0.241E-02    0.590E-02
DAV:  24    -0.129690569530E+04    0.84336E-05   -0.10425E-05  3324   0.149E-02    0.352E-02
DAV:  25    -0.129690569690E+04   -0.15957E-05   -0.56362E-06  3216   0.101E-02
  10 F= -.12969057E+04 E0= -.12962393E+04  d E =-.413086E-01
       N       E                     dE             d eps       ncg     rms          rms(c)
DAV:   1    -0.129676461599E+04    0.14108E+00   -0.12040E+02  6072   0.114E+01    0.156E+00
DAV:   2    -0.129838809270E+04   -0.16235E+01   -0.20053E+00  6756   0.403E+00    0.242E+01
DAV:   3    -0.129783162469E+04    0.55647E+00   -0.13078E+00  6654   0.458E+00    0.207E+01
DAV:   4    -0.129704292485E+04    0.78870E+00   -0.60540E-01  6720   0.300E+00    0.651E+00
DAV:   5    -0.129702974000E+04    0.13185E-01   -0.23704E-01  6768   0.190E+00    0.612E+00
DAV:   6    -0.129719401995E+04   -0.16428E+00   -0.25771E-01  6708   0.210E+00    0.957E+00
DAV:   7    -0.129709033776E+04    0.10368E+00   -0.27901E-01  6636   0.213E+00    0.707E+00
DAV:   8    -0.129700564538E+04    0.84692E-01   -0.14406E-01  6576   0.157E+00    0.522E+00
DAV:   9    -0.129695145029E+04    0.54195E-01   -0.60979E-02  6552   0.947E-01    0.267E+00
DAV:  10    -0.129694341218E+04    0.80381E-02   -0.21836E-02  6588   0.648E-01    0.196E+00
DAV:  11    -0.129696875554E+04   -0.25343E-01   -0.33200E-02  6600   0.729E-01    0.367E+00
DAV:  12    -0.129695674779E+04    0.12008E-01   -0.35067E-02  6576   0.731E-01    0.306E+00
DAV:  13    -0.129694407900E+04    0.12669E-01   -0.12261E-02  6552   0.502E-01    0.234E+00
DAV:  14    -0.129694155858E+04    0.25204E-02   -0.56066E-03  6648   0.309E-01    0.200E+00
DAV:  15    -0.129694185479E+04   -0.29620E-03   -0.78625E-03  6624   0.338E-01    0.188E+00
DAV:  16    -0.129693607505E+04    0.57797E-02   -0.65703E-03  6588   0.327E-01    0.967E-01
DAV:  17    -0.129693441863E+04    0.16564E-02   -0.26946E-03  6576   0.241E-01    0.722E-01
DAV:  18    -0.129693423291E+04    0.18572E-03   -0.11369E-03  6468   0.151E-01    0.637E-01
DAV:  19    -0.129693430430E+04   -0.71394E-04   -0.10466E-03  6576   0.149E-01    0.605E-01
DAV:  20    -0.129693346351E+04    0.84079E-03   -0.68251E-04  6480   0.123E-01    0.305E-01
DAV:  21    -0.129693338174E+04    0.81769E-04   -0.20003E-04  6492   0.666E-02    0.255E-01
DAV:  22    -0.129693341124E+04   -0.29499E-04   -0.16374E-04  6576   0.625E-02    0.224E-01
DAV:  23    -0.129693330610E+04    0.10514E-03   -0.14704E-04  6480   0.608E-02    0.146E-01
DAV:  24    -0.129693325376E+04    0.52339E-04   -0.61378E-05  6480   0.359E-02    0.788E-02
DAV:  25    -0.129693326557E+04   -0.11808E-04   -0.35098E-05  5664   0.249E-02    0.869E-02
DAV:  26    -0.129693325522E+04    0.10345E-04   -0.32836E-05  5400   0.243E-02    0.663E-02
DAV:  27    -0.129693324417E+04    0.11054E-04   -0.13226E-05  3420   0.163E-02    0.374E-02
DAV:  28    -0.129693324619E+04   -0.20248E-05   -0.58685E-06  3180   0.105E-02
  11 F= -.12969332E+04 E0= -.12962672E+04  d E =-.688579E-01
       N       E                     dE             d eps       ncg     rms          rms(c)
DAV:   1    -0.129693053158E+04    0.27126E-02   -0.31438E+00  6072   0.184E+00    0.241E-01
DAV:   2    -0.129695449949E+04   -0.23968E-01   -0.46543E-02  6696   0.553E-01    0.287E+00
DAV:   3    -0.129696324085E+04   -0.87414E-02   -0.24086E-02  6492   0.647E-01    0.382E+00
DAV:   4    -0.129693742382E+04    0.25817E-01   -0.14013E-02  6648   0.513E-01    0.110E+00
DAV:   5    -0.129693662394E+04    0.79988E-03   -0.57553E-03  6732   0.294E-01    0.967E-01
DAV:   6    -0.129694045407E+04   -0.38301E-02   -0.74898E-03  6744   0.325E-01    0.148E+00
DAV:   7    -0.129693953528E+04    0.91879E-03   -0.80535E-03  6696   0.348E-01    0.133E+00
DAV:   8    -0.129693654965E+04    0.29856E-02   -0.43173E-03  6684   0.277E-01    0.915E-01
DAV:   9    -0.129693481547E+04    0.17342E-02   -0.18962E-03  6588   0.176E-01    0.438E-01
DAV:  10    -0.129693454802E+04    0.26745E-03   -0.64388E-04  6540   0.113E-01    0.302E-01
DAV:  11    -0.129693497269E+04   -0.42467E-03   -0.61663E-04  6576   0.113E-01    0.484E-01
DAV:  12    -0.129693504342E+04   -0.70727E-04   -0.80634E-04  6576   0.113E-01    0.558E-01
DAV:  13    -0.129693453650E+04    0.50692E-03   -0.41703E-04  6576   0.853E-02    0.344E-01
DAV:  14    -0.129693445911E+04    0.77392E-04   -0.12509E-04  6552   0.484E-02    0.292E-01
DAV:  15    -0.129693448520E+04   -0.26092E-04   -0.14795E-04  6660   0.510E-02    0.284E-01
DAV:  16    -0.129693438199E+04    0.10321E-03   -0.17195E-04  6540   0.520E-02    0.183E-01
DAV:  17    -0.129693431555E+04    0.66435E-04   -0.67318E-05  6420   0.366E-02    0.116E-01
DAV:  18    -0.129693430960E+04    0.59577E-05   -0.21393E-05  4884   0.206E-02    0.106E-01
DAV:  19    -0.129693430884E+04    0.75786E-06   -0.19763E-05  4428   0.208E-02
  12 F= -.12969343E+04 E0= -.12962682E+04  d E =-.699205E-01
       N       E                     dE             d eps       ncg     rms          rms(c)
DAV:   1    -0.129692408919E+04    0.10220E-01   -0.32697E+01  6072   0.596E+00    0.649E-01
DAV:   2    -0.129724751167E+04   -0.32342E+00   -0.37377E-01  6720   0.166E+00    0.121E+01
DAV:   3    -0.129703795352E+04    0.20956E+00   -0.28228E-01  6492   0.183E+00    0.595E+00
DAV:   4    -0.129698614227E+04    0.51811E-01   -0.74039E-02  6684   0.115E+00    0.354E+00
DAV:   5    -0.129697275875E+04    0.13384E-01   -0.55046E-02  7848   0.873E-01    0.244E+00
DAV:   6    -0.129699672810E+04   -0.23969E-01   -0.44182E-02  7452   0.878E-01    0.362E+00
DAV:   7    -0.129699548698E+04    0.12411E-02   -0.64149E-02  6960   0.921E-01    0.371E+00
DAV:   8    -0.129696614387E+04    0.29343E-01   -0.31544E-02  6780   0.708E-01    0.203E+00
DAV:   9    -0.129695723693E+04    0.89069E-02   -0.93616E-03  6564   0.373E-01    0.898E-01
DAV:  10    -0.129695702179E+04    0.21514E-03   -0.36102E-03  6480   0.240E-01    0.765E-01
DAV:  11    -0.129696012322E+04   -0.31014E-02   -0.44602E-03  6564   0.269E-01    0.131E+00
DAV:  12    -0.129695908097E+04    0.10422E-02   -0.46327E-03  6564   0.262E-01    0.120E+00
DAV:  13    -0.129695729629E+04    0.17847E-02   -0.19226E-03  6528   0.187E-01    0.910E-01
DAV:  14    -0.129695700083E+04    0.29546E-03   -0.78987E-04  6636   0.119E-01    0.799E-01
DAV:  15    -0.129695665427E+04    0.34656E-03   -0.99824E-04  6708   0.131E-01    0.616E-01
DAV:  16    -0.129695604412E+04    0.61015E-03   -0.84348E-04  6624   0.113E-01    0.354E-01
DAV:  17    -0.129695578687E+04    0.25725E-03   -0.32836E-04  6552   0.765E-02    0.210E-01
DAV:  18    -0.129695580719E+04   -0.20326E-04   -0.14065E-04  6600   0.527E-02    0.230E-01
DAV:  19    -0.129695584887E+04   -0.41677E-04   -0.14725E-04  6696   0.539E-02    0.228E-01
DAV:  20    -0.129695572198E+04    0.12689E-03   -0.10414E-04  6624   0.484E-02    0.111E-01
DAV:  21    -0.129695570590E+04    0.16082E-04   -0.27072E-05  4752   0.233E-02    0.815E-02
DAV:  22    -0.129695571677E+04   -0.10872E-04   -0.24172E-05  4536   0.222E-02    0.839E-02
DAV:  23    -0.129695569823E+04    0.18538E-04   -0.18954E-05  4056   0.206E-02    0.430E-02
DAV:  24    -0.129695569420E+04    0.40302E-05   -0.60889E-06  3204   0.115E-02
  13 F= -.12969557E+04 E0= -.12962899E+04  d E =-.213854E-01
       N       E                     dE             d eps       ncg     rms          rms(c)
DAV:   1    -0.129689872009E+04    0.56978E-01   -0.60245E+01  6072   0.809E+00    0.892E-01
DAV:   2    -0.129743636196E+04   -0.53764E+00   -0.73398E-01  6918   0.219E+00    0.154E+01
DAV:   3    -0.129710233154E+04    0.33403E+00   -0.49115E-01  6456   0.238E+00    0.778E+00
DAV:   4    -0.129701796665E+04    0.84365E-01   -0.13516E-01  6672   0.153E+00    0.478E+00
DAV:   5    -0.129699589117E+04    0.22075E-01   -0.10076E-01  7896   0.118E+00    0.338E+00
DAV:   6    -0.129704199977E+04   -0.46109E-01   -0.78619E-02  7464   0.121E+00    0.499E+00
DAV:   7    -0.129701500869E+04    0.26991E-01   -0.99019E-02  6888   0.120E+00    0.417E+00
DAV:   8    -0.129697765175E+04    0.37357E-01   -0.48031E-02  6696   0.843E-01    0.242E+00
DAV:   9    -0.129696555817E+04    0.12094E-01   -0.13730E-02  6612   0.441E-01    0.119E+00
DAV:  10    -0.129696536003E+04    0.19814E-03   -0.65946E-03  6636   0.314E-01    0.104E+00
DAV:  11    -0.129697038539E+04   -0.50254E-02   -0.83263E-03  6588   0.363E-01    0.167E+00
DAV:  12    -0.129696886575E+04    0.15196E-02   -0.82596E-03  6552   0.351E-01    0.163E+00
DAV:  13    -0.129696532393E+04    0.35418E-02   -0.34648E-03  6552   0.247E-01    0.114E+00
DAV:  14    -0.129696488244E+04    0.44149E-03   -0.14057E-03  6696   0.163E-01    0.996E-01
DAV:  15    -0.129696423784E+04    0.64460E-03   -0.17530E-03  6696   0.181E-01    0.720E-01
DAV:  16    -0.129696341412E+04    0.82372E-03   -0.14063E-03  6600   0.146E-01    0.480E-01
DAV:  17    -0.129696299750E+04    0.41662E-03   -0.61317E-04  6588   0.101E-01    0.303E-01
DAV:  18    -0.129696302846E+04   -0.30964E-04   -0.27584E-04  6708   0.726E-02    0.322E-01
DAV:  19    -0.129696306972E+04   -0.41262E-04   -0.26855E-04  6612   0.733E-02    0.295E-01
DAV:  20    -0.129696284481E+04    0.22491E-03   -0.18149E-04  6576   0.642E-02    0.138E-01
DAV:  21    -0.129696282065E+04    0.24161E-04   -0.47761E-05  6492   0.298E-02    0.101E-01
DAV:  22    -0.129696283926E+04   -0.18612E-04   -0.40624E-05  6204   0.284E-02    0.109E-01
DAV:  23    -0.129696280844E+04    0.30828E-04   -0.33522E-05  5628   0.265E-02    0.546E-02
DAV:  24    -0.129696280197E+04    0.64684E-05   -0.10651E-05  3288   0.147E-02    0.335E-02
DAV:  25    -0.129696280491E+04   -0.29398E-05   -0.61815E-06  3204   0.110E-02
  14 F= -.12969628E+04 E0= -.12962973E+04  d E =-.284961E-01
       N       E                     dE             d eps       ncg     rms          rms(c)
DAV:   1    -0.129696070546E+04    0.20965E-02   -0.33561E+00  6072   0.191E+00    0.203E-01
DAV:   2    -0.129697408431E+04   -0.13379E-01   -0.33165E-02  6828   0.437E-01    0.215E+00
DAV:   3    -0.129697973930E+04   -0.56550E-02   -0.13706E-02  6492   0.496E-01    0.283E+00
DAV:   4    -0.129696631868E+04    0.13421E-01   -0.88300E-03  6672   0.420E-01    0.108E+00
DAV:   5    -0.129696500401E+04    0.13147E-02   -0.43962E-03  7368   0.256E-01    0.773E-01
DAV:   6    -0.129696621058E+04   -0.12066E-02   -0.35152E-03  7140   0.249E-01    0.917E-01
DAV:   7    -0.129696726832E+04   -0.10577E-02   -0.46264E-03  6984   0.267E-01    0.116E+00
DAV:   8    -0.129696456102E+04    0.27073E-02   -0.33432E-03  6732   0.220E-01    0.649E-01
DAV:   9    -0.129696357175E+04    0.98927E-03   -0.81792E-04  6606   0.124E-01    0.233E-01
DAV:  10    -0.129696368861E+04   -0.11686E-03   -0.39398E-04  6624   0.779E-02    0.302E-01
DAV:  11    -0.129696383499E+04   -0.14638E-03   -0.44976E-04  6588   0.844E-02    0.366E-01
DAV:  12    -0.129696369141E+04    0.14357E-03   -0.35629E-04  6600   0.793E-02    0.309E-01
DAV:  13    -0.129696358761E+04    0.10380E-03   -0.16190E-04  6600   0.519E-02    0.251E-01
DAV:  14    -0.129696355832E+04    0.29291E-04   -0.69359E-05  6468   0.353E-02    0.219E-01
DAV:  15    -0.129696353157E+04    0.26753E-04   -0.69988E-05  6588   0.386E-02    0.155E-01
DAV:  16    -0.129696349448E+04    0.37087E-04   -0.53252E-05  6264   0.355E-02    0.113E-01
DAV:  17    -0.129696347996E+04    0.14518E-04   -0.32081E-05  4164   0.223E-02    0.932E-02
DAV:  18    -0.129696347282E+04    0.71427E-05   -0.13785E-05  3408   0.150E-02    0.770E-02
DAV:  19    -0.129696347379E+04   -0.97346E-06   -0.11706E-05  3336   0.151E-02
  15 F= -.12969635E+04 E0= -.12962979E+04  d E =-.291650E-01
       N       E                     dE             d eps       ncg     rms          rms(c)
DAV:   1    -0.129695246775E+04    0.11005E-01   -0.21723E+01  6072   0.477E+00    0.599E-01
DAV:   2    -0.129711616906E+04   -0.16370E+00   -0.29073E-01  6984   0.125E+00    0.807E+00
DAV:   3    -0.129705308287E+04    0.63086E-01   -0.14351E-01  6444   0.141E+00    0.615E+00
DAV:   4    -0.129699370009E+04    0.59383E-01   -0.59127E-02  6660   0.983E-01    0.269E+00
DAV:   5    -0.129699579853E+04   -0.20984E-02   -0.44240E-02  6924   0.750E-01    0.271E+00
DAV:   6    -0.129702614179E+04   -0.30343E-01   -0.43649E-02  6864   0.888E-01    0.420E+00
DAV:   7    -0.129699040685E+04    0.35735E-01   -0.40466E-02  6768   0.830E-01    0.206E+00
DAV:   8    -0.129698075045E+04    0.96564E-02   -0.12338E-02  6528   0.482E-01    0.135E+00
DAV:   9    -0.129697803116E+04    0.27193E-02   -0.59158E-03  6636   0.307E-01    0.930E-01
DAV:  10    -0.129697888399E+04   -0.85282E-03   -0.38811E-03  6684   0.265E-01    0.101E+00
DAV:  11    -0.129698156262E+04   -0.26786E-02   -0.51887E-03  6720   0.304E-01    0.143E+00
DAV:  12    -0.129697963752E+04    0.19251E-02   -0.50115E-03  6648   0.273E-01    0.121E+00
DAV:  13    -0.129697758260E+04    0.20549E-02   -0.19013E-03  6576   0.192E-01    0.875E-01
DAV:  14    -0.129697726048E+04    0.32212E-03   -0.94015E-04  6636   0.128E-01    0.741E-01
DAV:  15    -0.129697750450E+04   -0.24403E-03   -0.12750E-03  6672   0.143E-01    0.760E-01
DAV:  16    -0.129697634585E+04    0.11587E-02   -0.96347E-04  6648   0.133E-01    0.332E-01
DAV:  17    -0.129697619042E+04    0.15542E-03   -0.24280E-04  6588   0.697E-02    0.281E-01
DAV:  18    -0.129697620491E+04   -0.14491E-04   -0.16066E-04  6696   0.540E-02    0.269E-01
DAV:  19    -0.129697610054E+04    0.10438E-03   -0.13367E-04  6576   0.493E-02    0.156E-01
DAV:  20    -0.129697604166E+04    0.58882E-04   -0.46496E-05  6360   0.332E-02    0.826E-02
DAV:  21    -0.129697603893E+04    0.27299E-05   -0.15627E-05  4188   0.191E-02
  16 F= -.12969760E+04 E0= -.12963107E+04  d E =-.125651E-01
       N       E                     dE             d eps       ncg     rms          rms(c)
DAV:   1    -0.129696905916E+04    0.69825E-02   -0.93267E+00  6072   0.313E+00    0.391E-01
DAV:   2    -0.129702007212E+04   -0.51013E-01   -0.12043E-01  6984   0.767E-01    0.423E+00
DAV:   3    -0.129702589726E+04   -0.58251E-02   -0.46108E-02  6468   0.894E-01    0.491E+00
DAV:   4    -0.129698572927E+04    0.40168E-01   -0.24746E-02  6768   0.694E-01    0.166E+00
DAV:   5    -0.129698768285E+04   -0.19536E-02   -0.17417E-02  6972   0.477E-01    0.185E+00
DAV:   6    -0.129699766761E+04   -0.99848E-02   -0.18872E-02  6888   0.569E-01    0.254E+00
DAV:   7    -0.129698718695E+04    0.10481E-01   -0.18453E-02  6756   0.546E-01    0.160E+00
DAV:   8    -0.129698111879E+04    0.60682E-02   -0.61261E-03  6624   0.364E-01    0.924E-01
DAV:   9    -0.129697988353E+04    0.12353E-02   -0.28574E-03  6612   0.217E-01    0.664E-01
DAV:  10    -0.129697990279E+04   -0.19260E-04   -0.19063E-03  6648   0.174E-01    0.604E-01
DAV:  11    -0.129698125454E+04   -0.13517E-02   -0.20430E-03  6618   0.200E-01    0.939E-01
DAV:  12    -0.129698039055E+04    0.86399E-03   -0.21056E-03  6648   0.183E-01    0.786E-01
DAV:  13    -0.129697947111E+04    0.91944E-03   -0.86334E-04  6564   0.127E-01    0.545E-01
DAV:  14    -0.129697938695E+04    0.84158E-04   -0.33933E-04  6612   0.834E-02    0.496E-01
DAV:  15    -0.129697948326E+04   -0.96311E-04   -0.52624E-04  6612   0.914E-02    0.504E-01
DAV:  16    -0.129697917586E+04    0.30740E-03   -0.50610E-04  6660   0.942E-02    0.322E-01
DAV:  17    -0.129697893750E+04    0.23836E-03   -0.17492E-04  6552   0.643E-02    0.205E-01
DAV:  18    -0.129697893579E+04    0.17135E-05   -0.67125E-05  6456   0.351E-02    0.187E-01
DAV:  19    -0.129697889124E+04    0.44545E-04   -0.55122E-05  6348   0.325E-02    0.104E-01
DAV:  20    -0.129697886157E+04    0.29674E-04   -0.24784E-05  4836   0.233E-02    0.455E-02
DAV:  21    -0.129697886136E+04    0.21345E-06   -0.78184E-06  3276   0.127E-02
  17 F= -.12969789E+04 E0= -.12963136E+04  d E =-.153876E-01
       N       E                     dE             d eps       ncg     rms          rms(c)
DAV:   1    -0.129697662721E+04    0.22344E-02   -0.96707E+00  6072   0.329E+00    0.421E-01
DAV:   2    -0.129711172573E+04   -0.13510E+00   -0.11916E-01  6636   0.118E+00    0.739E+00
DAV:   3    -0.129708697848E+04    0.24747E-01   -0.11032E-01  6624   0.134E+00    0.694E+00
DAV:   4    -0.129699391238E+04    0.93066E-01   -0.47308E-02  6624   0.991E-01    0.192E+00
DAV:   5    -0.129699152577E+04    0.23866E-02   -0.20029E-02  6816   0.503E-01    0.170E+00
DAV:   6    -0.129700194460E+04   -0.10419E-01   -0.17494E-02  6804   0.582E-01    0.235E+00
DAV:   7    -0.129700388369E+04   -0.19391E-02   -0.26444E-02  6720   0.607E-01    0.265E+00
DAV:   8    -0.129698877908E+04    0.15105E-01   -0.13463E-02  6552   0.490E-01    0.126E+00
DAV:   9    -0.129698578128E+04    0.29978E-02   -0.39848E-03  6528   0.272E-01    0.738E-01
DAV:  10    -0.129698552164E+04    0.25964E-03   -0.19812E-03  6828   0.164E-01    0.666E-01
DAV:  11    -0.129698554736E+04   -0.25719E-04   -0.15611E-03  6684   0.164E-01    0.589E-01
DAV:  12    -0.129698586030E+04   -0.31294E-03   -0.14406E-03  6672   0.158E-01    0.765E-01
DAV:  13    -0.129698522622E+04    0.63408E-03   -0.89971E-04  6576   0.114E-01    0.615E-01
DAV:  14    -0.129698503874E+04    0.18748E-03   -0.33598E-04  6636   0.764E-02    0.545E-01
DAV:  15    -0.129698493810E+04    0.10064E-03   -0.28742E-04  6624   0.770E-02    0.432E-01
DAV:  16    -0.129698460034E+04    0.33776E-03   -0.30266E-04  6624   0.780E-02    0.217E-01
DAV:  17    -0.129698452146E+04    0.78880E-04   -0.12016E-04  6624   0.462E-02    0.141E-01
DAV:  18    -0.129698451897E+04    0.24900E-05   -0.54605E-05  6504   0.305E-02    0.131E-01
DAV:  19    -0.129698454164E+04   -0.22675E-04   -0.55909E-05  6420   0.335E-02    0.147E-01
DAV:  20    -0.129698449850E+04    0.43141E-04   -0.41765E-05  6024   0.292E-02    0.835E-02
DAV:  21    -0.129698449133E+04    0.71729E-05   -0.11730E-05  3252   0.159E-02    0.691E-02
DAV:  22    -0.129698449558E+04   -0.42457E-05   -0.10934E-05  3300   0.160E-02
  18 F= -.12969845E+04 E0= -.12963194E+04  d E =-.563422E-02
       N       E                     dE             d eps       ncg     rms          rms(c)
DAV:   1    -0.129698136222E+04    0.31291E-02   -0.61504E+00  6072   0.262E+00    0.329E-01
DAV:   2    -0.129705664655E+04   -0.75284E-01   -0.73414E-02  6636   0.899E-01    0.547E+00
DAV:   3    -0.129704818536E+04    0.84612E-02   -0.56250E-02  6696   0.102E+00    0.542E+00
DAV:   4    -0.129699168133E+04    0.56504E-01   -0.27538E-02  6648   0.770E-01    0.144E+00
DAV:   5    -0.129699115692E+04    0.52441E-03   -0.12354E-02  6828   0.398E-01    0.141E+00
DAV:   6    -0.129699665163E+04   -0.54947E-02   -0.11072E-02  6744   0.454E-01    0.182E+00
DAV:   7    -0.129699761724E+04   -0.96561E-03   -0.14556E-02  6672   0.474E-01    0.201E+00
DAV:   8    -0.129698935240E+04    0.82648E-02   -0.89397E-03  6600   0.378E-01    0.105E+00
DAV:   9    -0.129698707872E+04    0.22737E-02   -0.26341E-03  6528   0.218E-01    0.553E-01
DAV:  10    -0.129698693493E+04    0.14378E-03   -0.12029E-03  6828   0.133E-01    0.507E-01
DAV:  11    -0.129698705844E+04   -0.12350E-03   -0.96496E-04  6696   0.130E-01    0.509E-01
DAV:  12    -0.129698720178E+04   -0.14334E-03   -0.94357E-04  6768   0.126E-01    0.605E-01
DAV:  13    -0.129698675563E+04    0.44615E-03   -0.56734E-04  6600   0.929E-02    0.478E-01
DAV:  14    -0.129698666019E+04    0.95436E-04   -0.20772E-04  6648   0.591E-02    0.429E-01
DAV:  15    -0.129698663757E+04    0.22626E-04   -0.19851E-04  6648   0.601E-02    0.378E-01
DAV:  16    -0.129698646028E+04    0.17729E-03   -0.22661E-04  6624   0.643E-02    0.233E-01
DAV:  17    -0.129698633168E+04    0.12860E-03   -0.10662E-04  6624   0.464E-02    0.105E-01
DAV:  18    -0.129698633411E+04   -0.24355E-05   -0.33920E-05  5796   0.242E-02
  19 F= -.12969863E+04 E0= -.12963214E+04  d E =-.747276E-02
       N       E                     dE             d eps       ncg     rms          rms(c)
DAV:   1    -0.129698413095E+04    0.22007E-02   -0.70901E+00  6072   0.281E+00    0.375E-01
DAV:   2    -0.129705838309E+04   -0.74252E-01   -0.82851E-02  6300   0.985E-01    0.500E+00
DAV:   3    -0.129707146219E+04   -0.13079E-01   -0.67529E-02  6312   0.114E+00    0.650E+00
DAV:   4    -0.129700144966E+04    0.70013E-01   -0.40970E-02  6408   0.830E-01    0.225E+00
DAV:   5    -0.129699277795E+04    0.86717E-02   -0.12633E-02  6480   0.460E-01    0.120E+00
DAV:   6    -0.129699784669E+04   -0.50687E-02   -0.11458E-02  6612   0.423E-01    0.177E+00
DAV:   7    -0.129700037552E+04   -0.25288E-02   -0.14950E-02  6588   0.473E-01    0.189E+00
DAV:   8    -0.129699482200E+04    0.55535E-02   -0.10560E-02  6588   0.433E-01    0.143E+00
DAV:   9    -0.129699047652E+04    0.43455E-02   -0.47576E-03  6528   0.273E-01    0.697E-01
DAV:  10    -0.129698969625E+04    0.78027E-03   -0.16884E-03  6564   0.164E-01    0.446E-01
DAV:  11    -0.129699055042E+04   -0.85417E-03   -0.14964E-03  6612   0.155E-01    0.709E-01
DAV:  12    -0.129699074988E+04   -0.19947E-03   -0.18654E-03  6588   0.169E-01    0.738E-01
DAV:  13    -0.129698941449E+04    0.13354E-02   -0.95134E-04  6564   0.138E-01    0.302E-01
DAV:  14    -0.129698936081E+04    0.53677E-04   -0.24760E-04  6648   0.628E-02    0.271E-01
DAV:  15    -0.129698932263E+04    0.38179E-04   -0.18172E-04  6648   0.511E-02    0.227E-01
DAV:  16    -0.129698937560E+04   -0.52975E-04   -0.17316E-04  6696   0.593E-02    0.233E-01
DAV:  17    -0.129698922919E+04    0.14641E-03   -0.10079E-04  6624   0.526E-02    0.122E-01
DAV:  18    -0.129698921980E+04    0.93945E-05   -0.31489E-05  5808   0.261E-02    0.102E-01
DAV:  19    -0.129698922990E+04   -0.10108E-04   -0.27053E-05  5064   0.238E-02    0.102E-01
DAV:  20    -0.129698921025E+04    0.19651E-04   -0.25354E-05  4260   0.242E-02    0.595E-02
DAV:  21    -0.129698920093E+04    0.93199E-05   -0.93287E-06  3312   0.149E-02    0.337E-02
DAV:  22    -0.129698920135E+04   -0.42235E-06   -0.43015E-06  3168   0.952E-03
  20 F= -.12969892E+04 E0= -.12963241E+04  d E =-.286724E-02
       N       E                     dE             d eps       ncg     rms          rms(c)
DAV:   1    -0.129698889213E+04    0.30880E-03   -0.10470E+00  6084   0.108E+00    0.146E-01
DAV:   2    -0.129699951231E+04   -0.10620E-01   -0.12288E-02  6300   0.384E-01    0.181E+00
DAV:   3    -0.129699358921E+04    0.59231E-02   -0.86077E-03  6288   0.387E-01    0.140E+00
DAV:   4    -0.129699210704E+04    0.14822E-02   -0.25898E-03  6396   0.234E-01    0.110E+00
DAV:   5    -0.129699005641E+04    0.20506E-02   -0.15052E-03  6432   0.174E-01    0.435E-01
DAV:   6    -0.129699041004E+04   -0.35362E-03   -0.12376E-03  6576   0.139E-01    0.544E-01
DAV:   7    -0.129699108147E+04   -0.67143E-03   -0.17102E-03  6720   0.161E-01    0.700E-01
DAV:   8    -0.129699066936E+04    0.41211E-03   -0.17195E-03  6624   0.163E-01    0.614E-01
DAV:   9    -0.129698982668E+04    0.84268E-03   -0.87135E-04  6528   0.117E-01    0.288E-01
DAV:  10    -0.129698966953E+04    0.15715E-03   -0.24429E-04  6564   0.653E-02    0.157E-01
DAV:  11    -0.129698974331E+04   -0.73785E-04   -0.16548E-04  6624   0.538E-02    0.227E-01
DAV:  12    -0.129698981629E+04   -0.72972E-04   -0.22321E-04  6576   0.583E-02    0.272E-01
DAV:  13    -0.129698963452E+04    0.18177E-03   -0.14056E-04  6564   0.520E-02    0.955E-02
DAV:  14    -0.129698962169E+04    0.12832E-04   -0.34402E-05  4620   0.242E-02    0.820E-02
DAV:  15    -0.129698961184E+04    0.98443E-05   -0.19952E-05  3492   0.166E-02    0.506E-02
DAV:  16    -0.129698962166E+04   -0.98190E-05   -0.14832E-05  3528   0.178E-02    0.664E-02
DAV:  17    -0.129698960973E+04    0.11930E-04   -0.12457E-05  3420   0.170E-02    0.340E-02
DAV:  18    -0.129698960659E+04    0.31453E-05   -0.37813E-06  3168   0.918E-03
  21 F= -.12969896E+04 E0= -.12963245E+04  d E =-.327247E-02
       N       E                     dE             d eps       ncg     rms          rms(c)
DAV:   1    -0.129698545587E+04    0.41539E-02   -0.76577E+00  6072   0.292E+00    0.392E-01
DAV:   2    -0.129714826530E+04   -0.16281E+00   -0.10983E-01  6672   0.116E+00    0.839E+00
DAV:   3    -0.129709428280E+04    0.53982E-01   -0.11938E-01  6672   0.138E+00    0.708E+00
DAV:   4    -0.129699904042E+04    0.95242E-01   -0.46620E-02  6648   0.927E-01    0.174E+00
DAV:   5    -0.129699864378E+04    0.39664E-03   -0.16377E-02  6858   0.477E-01    0.172E+00
DAV:   6    -0.129701377491E+04   -0.15131E-01   -0.24212E-02  6828   0.575E-01    0.284E+00
DAV:   7    -0.129700501585E+04    0.87591E-02   -0.25168E-02  6804   0.601E-01    0.218E+00
DAV:   8    -0.129699508827E+04    0.99276E-02   -0.12372E-02  6612   0.422E-01    0.124E+00
DAV:   9    -0.129699228461E+04    0.28037E-02   -0.33177E-03  6612   0.238E-01    0.664E-01
DAV:  10    -0.129699268255E+04   -0.39794E-03   -0.19251E-03  6612   0.192E-01    0.699E-01
DAV:  11    -0.129699373641E+04   -0.10539E-02   -0.24005E-03  6624   0.202E-01    0.100E+00
DAV:  12    -0.129699220364E+04    0.15328E-02   -0.18081E-03  6624   0.169E-01    0.630E-01
DAV:  13    -0.129699180535E+04    0.39828E-03   -0.53088E-04  6528   0.109E-01    0.545E-01
DAV:  14    -0.129699182441E+04   -0.19051E-04   -0.38780E-04  6840   0.786E-02    0.529E-01
DAV:  15    -0.129699166570E+04    0.15871E-03   -0.48470E-04  6672   0.840E-02    0.408E-01
DAV:  16    -0.129699129851E+04    0.36719E-03   -0.28580E-04  6576   0.751E-02    0.156E-01
DAV:  17    -0.129699126318E+04    0.35330E-04   -0.76416E-05  6552   0.389E-02    0.123E-01
DAV:  18    -0.129699130715E+04   -0.43978E-04   -0.59048E-05  6552   0.370E-02    0.158E-01
DAV:  19    -0.129699125454E+04    0.52616E-04   -0.50352E-05  6312   0.348E-02    0.936E-02
DAV:  20    -0.129699124124E+04    0.13297E-04   -0.15224E-05  3564   0.188E-02    0.680E-02
DAV:  21    -0.129699124661E+04   -0.53713E-05   -0.10754E-05  3348   0.153E-02    0.715E-02
DAV:  22    -0.129699123940E+04    0.72116E-05   -0.11198E-05  3324   0.161E-02    0.476E-02
DAV:  23    -0.129699123408E+04    0.53166E-05   -0.46675E-06  3192   0.106E-02    0.310E-02
DAV:  24    -0.129699123418E+04   -0.99652E-07   -0.22225E-06  3144   0.644E-03
  22 F= -.12969912E+04 E0= -.12963260E+04  d E =-.162760E-02
       N       E                     dE             d eps       ncg     rms          rms(c)
DAV:   1    -0.129699123405E+04    0.29977E-07   -0.61449E-06  3204   0.778E-03    0.261E-02
DAV:   2    -0.129699176702E+04   -0.53297E-03   -0.32487E-04  8916   0.824E-02    0.406E-01
DAV:   3    -0.129699165750E+04    0.10953E-03   -0.27115E-04  7080   0.906E-02    0.477E-01
DAV:   4    -0.129699127441E+04    0.38309E-03   -0.12875E-04  6084   0.563E-02    0.131E-01
DAV:   5    -0.129699124425E+04    0.30150E-04   -0.49715E-05  6084   0.257E-02    0.756E-02
DAV:   6    -0.129699124406E+04    0.19401E-06   -0.35740E-05  5364   0.206E-02
  23 F= -.12969912E+04 E0= -.12963260E+04  d E =-.163748E-02
       N       E                     dE             d eps       ncg     rms          rms(c)
DAV:   1    -0.129698856813E+04    0.26761E-02   -0.57050E+00  6072   0.253E+00    0.346E-01
DAV:   2    -0.129714140786E+04   -0.15284E+00   -0.88060E-02  6480   0.112E+00    0.823E+00
DAV:   3    -0.129708357113E+04    0.57837E-01   -0.10102E-01  6564   0.130E+00    0.663E+00
DAV:   4    -0.129700330632E+04    0.80265E-01   -0.41370E-02  6504   0.874E-01    0.209E+00
DAV:   5    -0.129699584035E+04    0.74660E-02   -0.14212E-02  6516   0.466E-01    0.120E+00
DAV:   6    -0.129700823618E+04   -0.12396E-01   -0.17135E-02  6720   0.493E-01    0.245E+00
DAV:   7    -0.129700590906E+04    0.23271E-02   -0.20382E-02  6708   0.548E-01    0.216E+00
DAV:   8    -0.129699648113E+04    0.94279E-02   -0.11564E-02  6636   0.440E-01    0.124E+00
DAV:   9    -0.129699321341E+04    0.32677E-02   -0.35229E-03  6516   0.259E-01    0.643E-01
DAV:  10    -0.129699268561E+04    0.52780E-03   -0.13324E-03  6552   0.156E-01    0.471E-01
DAV:  11    -0.129699312526E+04   -0.43965E-03   -0.12382E-03  6648   0.145E-01    0.609E-01
DAV:  12    -0.129699316470E+04   -0.39440E-04   -0.14142E-03  6624   0.143E-01    0.633E-01
DAV:  13    -0.129699248582E+04    0.67888E-03   -0.63923E-04  6552   0.109E-01    0.444E-01
DAV:  14    -0.129699242582E+04    0.59997E-04   -0.21195E-04  6696   0.529E-02    0.417E-01
DAV:  15    -0.129699235944E+04    0.66383E-04   -0.20635E-04  6708   0.549E-02    0.350E-01
DAV:  16    -0.129699218464E+04    0.17480E-03   -0.18494E-04  6696   0.594E-02    0.175E-01
DAV:  17    -0.129699211422E+04    0.70419E-04   -0.69588E-05  6600   0.391E-02    0.110E-01
DAV:  18    -0.129699211796E+04   -0.37373E-05   -0.34776E-05  5964   0.253E-02
  24 F= -.12969921E+04 E0= -.12963269E+04  d E =-.873898E-03
       N       E                     dE             d eps       ncg     rms          rms(c)
DAV:   1    -0.129699212107E+04   -0.68528E-05   -0.65736E-04  6132   0.380E-02    0.110E-01
DAV:   2    -0.129707373530E+04   -0.81614E-01   -0.15609E-02  8004   0.669E-01    0.649E+00
DAV:   3    -0.129699891322E+04    0.74822E-01   -0.25785E-02  7212   0.700E-01    0.151E+00
DAV:   4    -0.129699304739E+04    0.58658E-02   -0.30093E-03  7266   0.282E-01    0.556E-01
DAV:   5    -0.129699616714E+04   -0.31198E-02   -0.35682E-03  7884   0.231E-01    0.124E+00
DAV:   6    -0.129699459605E+04    0.15711E-02   -0.41412E-03  7116   0.259E-01    0.857E-01
DAV:   7    -0.129699335988E+04    0.12362E-02   -0.23048E-03  6852   0.206E-01    0.672E-01
DAV:   8    -0.129699250314E+04    0.85674E-03   -0.11049E-03  6612   0.129E-01    0.390E-01
DAV:   9    -0.129699214532E+04    0.35782E-03   -0.31930E-04  6684   0.753E-02    0.142E-01
DAV:  10    -0.129699214317E+04    0.21527E-05   -0.12305E-04  6852   0.418E-02    0.148E-01
DAV:  11    -0.129699216794E+04   -0.24771E-04   -0.12408E-04  6744   0.399E-02    0.163E-01
DAV:  12    -0.129699213517E+04    0.32764E-04   -0.88530E-05  6612   0.375E-02    0.125E-01
DAV:  13    -0.129699210934E+04    0.25832E-04   -0.36255E-05  5088   0.237E-02    0.892E-02
DAV:  14    -0.129699209978E+04    0.95572E-05   -0.13126E-05  3324   0.133E-02    0.662E-02
DAV:  15    -0.129699209827E+04    0.15097E-05   -0.62079E-06  3240   0.983E-03
  25 F= -.12969921E+04 E0= -.12963268E+04  d E =-.854213E-03
       N       E                     dE             d eps       ncg     rms          rms(c)
DAV:   1    -0.129699170153E+04    0.39825E-03   -0.75496E-01  6072   0.925E-01    0.124E-01
DAV:   2    -0.129701104069E+04   -0.19339E-01   -0.11416E-02  6576   0.399E-01    0.295E+00
DAV:   3    -0.129700137415E+04    0.96665E-02   -0.10163E-02  6516   0.460E-01    0.206E+00
DAV:   4    -0.129699351355E+04    0.78606E-02   -0.42097E-03  6576   0.289E-01    0.677E-01
DAV:   5    -0.129699289119E+04    0.62235E-03   -0.16600E-03  6540   0.158E-01    0.441E-01
DAV:   6    -0.129699456235E+04   -0.16712E-02   -0.20181E-03  6696   0.183E-01    0.865E-01
DAV:   7    -0.129699356098E+04    0.10014E-02   -0.21463E-03  6696   0.188E-01    0.625E-01
DAV:   8    -0.129699279460E+04    0.76639E-03   -0.99569E-04  6612   0.126E-01    0.391E-01
DAV:   9    -0.129699248660E+04    0.30800E-03   -0.39288E-04  6552   0.759E-02    0.189E-01
DAV:  10    -0.129699247926E+04    0.73334E-05   -0.16836E-04  6576   0.534E-02    0.183E-01
DAV:  11    -0.129699257448E+04   -0.95220E-04   -0.19062E-04  6600   0.550E-02    0.259E-01
DAV:  12    -0.129699252261E+04    0.51877E-04   -0.18339E-04  6612   0.536E-02    0.223E-01
DAV:  13    -0.129699246098E+04    0.61622E-04   -0.79477E-05  6480   0.381E-02    0.186E-01
DAV:  14    -0.129699245110E+04    0.98823E-05   -0.32736E-05  4200   0.212E-02    0.171E-01
DAV:  15    -0.129699243008E+04    0.21026E-04   -0.30676E-05  4260   0.229E-02    0.126E-01
DAV:  16    -0.129699240687E+04    0.23207E-04   -0.23399E-05  3720   0.235E-02    0.688E-02
DAV:  17    -0.129699239795E+04    0.89218E-05   -0.11019E-05  3408   0.156E-02    0.539E-02
DAV:  18    -0.129699239825E+04   -0.30466E-06   -0.51030E-06  3228   0.101E-02
  26 F= -.12969924E+04 E0= -.12963271E+04  d E =-.299978E-03
       N       E                     dE             d eps       ncg     rms          rms(c)
DAV:   1    -0.129699240047E+04   -0.25192E-05   -0.36121E-03  6096   0.648E-02    0.458E-02
DAV:   2    -0.129700669199E+04   -0.14292E-01   -0.27758E-03  7128   0.281E-01    0.271E+00
DAV:   3    -0.129699356224E+04    0.13130E-01   -0.30763E-03  6912   0.293E-01    0.625E-01
DAV:   4    -0.129699257075E+04    0.99149E-03   -0.44963E-04  6828   0.118E-01    0.227E-01
DAV:   5    -0.129699304857E+04   -0.47782E-03   -0.45570E-04  7860   0.964E-02    0.508E-01
DAV:   6    -0.129699281606E+04    0.23252E-03   -0.60949E-04  7416   0.988E-02    0.351E-01
DAV:   7    -0.129699255102E+04    0.26503E-03   -0.29053E-04  7296   0.802E-02    0.218E-01
DAV:   8    -0.129699244307E+04    0.10795E-03   -0.12252E-04  6648   0.462E-02    0.131E-01
DAV:   9    -0.129699240626E+04    0.36810E-04   -0.47172E-05  4800   0.252E-02    0.584E-02
DAV:  10    -0.129699240579E+04    0.47183E-06   -0.20965E-05  4080   0.169E-02
  27 F= -.12969924E+04 E0= -.12963272E+04  d E =-.307518E-03
       N       E                     dE             d eps       ncg     rms          rms(c)
DAV:   1    -0.129699207080E+04    0.33546E-03   -0.59458E-01  6072   0.816E-01    0.127E-01
DAV:   2    -0.129700731091E+04   -0.15240E-01   -0.12612E-02  6708   0.372E-01    0.249E+00
DAV:   3    -0.129699677721E+04    0.10534E-01   -0.11003E-02  6600   0.396E-01    0.145E+00
DAV:   4    -0.129699421788E+04    0.25593E-02   -0.20854E-03  6378   0.218E-01    0.854E-01
DAV:   5    -0.129699298791E+04    0.12300E-02   -0.13158E-03  6540   0.159E-01    0.397E-01
DAV:   6    -0.129699347454E+04   -0.48663E-03   -0.12312E-03  6576   0.131E-01    0.586E-01
DAV:   7    -0.129699358717E+04   -0.11263E-03   -0.14538E-03  6612   0.150E-01    0.558E-01
DAV:   8    -0.129699339166E+04    0.19551E-03   -0.11516E-03  6588   0.142E-01    0.538E-01
DAV:   9    -0.129699274037E+04    0.65129E-03   -0.59478E-04  6564   0.101E-01    0.232E-01
DAV:  10    -0.129699264421E+04    0.96163E-04   -0.18307E-04  6660   0.574E-02    0.155E-01
DAV:  11    -0.129699272110E+04   -0.76897E-04   -0.15557E-04  6720   0.496E-02    0.218E-01
DAV:  12    -0.129699276026E+04   -0.39154E-04   -0.21114E-04  6678   0.572E-02    0.236E-01
DAV:  13    -0.129699264450E+04    0.11576E-03   -0.13161E-04  6660   0.499E-02    0.146E-01
DAV:  14    -0.129699260153E+04    0.42968E-04   -0.41694E-05  5076   0.272E-02    0.719E-02
DAV:  15    -0.129699259640E+04    0.51380E-05   -0.14971E-05  3552   0.173E-02    0.604E-02
DAV:  16    -0.129699260178E+04   -0.53816E-05   -0.15667E-05  3588   0.175E-02    0.643E-02
DAV:  17    -0.129699259099E+04    0.10783E-04   -0.11188E-05  3480   0.161E-02    0.326E-02
DAV:  18    -0.129699258807E+04    0.29200E-05   -0.32488E-06  3156   0.851E-03
  28 F= -.12969926E+04 E0= -.12963273E+04  d E =-.182283E-03
       N       E                     dE             d eps       ncg     rms          rms(c)
DAV:   1    -0.129699258614E+04    0.48498E-05   -0.25369E-03  6096   0.536E-02    0.229E-02
DAV:   2    -0.129699310877E+04   -0.52263E-03   -0.28105E-04  6768   0.767E-02    0.413E-01
DAV:   3    -0.129699277823E+04    0.33054E-03   -0.34595E-04  6636   0.812E-02    0.316E-01
DAV:   4    -0.129699267627E+04    0.10196E-03   -0.78342E-05  5052   0.456E-02    0.208E-01
DAV:   5    -0.129699259414E+04    0.82133E-04   -0.40706E-05  3852   0.280E-02    0.525E-02
DAV:   6    -0.129699259542E+04   -0.12757E-05   -0.15260E-05  3528   0.184E-02
  29 F= -.12969926E+04 E0= -.12963274E+04  d E =-.189625E-03
       N       E                     dE             d eps       ncg     rms          rms(c)
DAV:   1    -0.129699240391E+04    0.19023E-03   -0.27701E-01  6072   0.558E-01    0.110E-01
DAV:   2    -0.129700725040E+04   -0.14846E-01   -0.93109E-03  6708   0.370E-01    0.241E+00
DAV:   3    -0.129699374600E+04    0.13504E-01   -0.89413E-03  6600   0.371E-01    0.592E-01
DAV:   4    -0.129699494655E+04   -0.12005E-02   -0.11412E-03  6426   0.159E-01    0.110E+00
DAV:   5    -0.129699289271E+04    0.20538E-02   -0.85592E-04  6552   0.140E-01    0.305E-01
DAV:   6    -0.129699314958E+04   -0.25687E-03   -0.65925E-04  6648   0.100E-01    0.427E-01
DAV:   7    -0.129699335843E+04   -0.20885E-03   -0.90335E-04  6672   0.117E-01    0.483E-01
DAV:   8    -0.129699290601E+04    0.45242E-03   -0.60013E-04  6576   0.104E-01    0.299E-01
DAV:   9    -0.129699273882E+04    0.16719E-03   -0.25488E-04  6564   0.651E-02    0.173E-01
DAV:  10    -0.129699270382E+04    0.34999E-04   -0.10145E-04  6564   0.429E-02    0.135E-01
DAV:  11    -0.129699274510E+04   -0.41272E-04   -0.96245E-05  6420   0.411E-02    0.177E-01
DAV:  12    -0.129699273453E+04    0.10561E-04   -0.10088E-04  6588   0.423E-02    0.148E-01
DAV:  13    -0.129699268300E+04    0.51533E-04   -0.55062E-05  6348   0.354E-02    0.954E-02
DAV:  14    -0.129699266637E+04    0.16632E-04   -0.18765E-05  3552   0.186E-02    0.643E-02
DAV:  15    -0.129699266631E+04    0.55996E-07   -0.11732E-05  3384   0.137E-02
  30 F= -.12969927E+04 E0= -.12963274E+04  d E =-.708964E-04
       N       E                     dE             d eps       ncg     rms          rms(c)
DAV:   1    -0.129699265291E+04    0.13459E-04   -0.19628E-02  6084   0.149E-01    0.687E-02
DAV:   2    -0.129699858335E+04   -0.59304E-02   -0.24852E-03  6720   0.243E-01    0.149E+00
DAV:   3    -0.129699923990E+04   -0.65654E-03   -0.30416E-03  6642   0.295E-01    0.185E+00
DAV:   4    -0.129699299223E+04    0.62477E-02   -0.16327E-03  6648   0.212E-01    0.333E-01
DAV:   5    -0.129699290094E+04    0.91290E-04   -0.41427E-04  6606   0.891E-02    0.301E-01
DAV:   6    -0.129699296153E+04   -0.60585E-04   -0.39246E-04  6648   0.872E-02    0.303E-01
DAV:   7    -0.129699310798E+04   -0.14646E-03   -0.44063E-04  6648   0.869E-02    0.403E-01
DAV:   8    -0.129699276594E+04    0.34204E-03   -0.31970E-04  6564   0.723E-02    0.186E-01
DAV:   9    -0.129699268839E+04    0.77558E-04   -0.78766E-05  6456   0.398E-02    0.102E-01
DAV:  10    -0.129699267684E+04    0.11541E-04   -0.36492E-05  3960   0.235E-02    0.781E-02
DAV:  11    -0.129699268417E+04   -0.73289E-05   -0.30479E-05  3864   0.222E-02    0.897E-02
DAV:  12    -0.129699268110E+04    0.30707E-05   -0.29977E-05  3792   0.210E-02
  31 F= -.12969927E+04 E0= -.12963274E+04  d E =-.856853E-04
       N       E                     dE             d eps       ncg     rms          rms(c)
DAV:   1    -0.129699258953E+04    0.94640E-04   -0.19799E-01  6072   0.474E-01    0.803E-02
DAV:   2    -0.129703340357E+04   -0.40814E-01   -0.93074E-03  6594   0.469E-01    0.461E+00
DAV:   3    -0.129699525204E+04    0.38152E-01   -0.10217E-02  6576   0.487E-01    0.940E-01
DAV:   4    -0.129699327189E+04    0.19801E-02   -0.15037E-03  6522   0.183E-01    0.466E-01
DAV:   5    -0.129699428813E+04   -0.10162E-02   -0.16518E-03  7032   0.165E-01    0.746E-01
DAV:   6    -0.129699430836E+04   -0.20220E-04   -0.19117E-03  6972   0.184E-01    0.717E-01
DAV:   7    -0.129699334849E+04    0.95986E-03   -0.14996E-03  6864   0.154E-01    0.465E-01
DAV:   8    -0.129699288203E+04    0.46647E-03   -0.53918E-04  6624   0.936E-02    0.243E-01
DAV:   9    -0.129699278346E+04    0.98562E-04   -0.18614E-04  6624   0.534E-02    0.153E-01
DAV:  10    -0.129699277763E+04    0.58286E-05   -0.11032E-04  6600   0.390E-02    0.132E-01
DAV:  11    -0.129699282184E+04   -0.44202E-04   -0.96600E-05  6576   0.406E-02    0.178E-01
DAV:  12    -0.129699277724E+04    0.44596E-04   -0.84513E-05  6480   0.378E-02    0.132E-01
DAV:  13    -0.129699275209E+04    0.25153E-04   -0.30654E-05  4596   0.246E-02    0.102E-01
DAV:  14    -0.129699274617E+04    0.59168E-05   -0.10677E-05  3408   0.126E-02    0.898E-02
DAV:  15    -0.129699274238E+04    0.37905E-05   -0.74999E-06  3228   0.120E-02
  32 F= -.12969927E+04 E0= -.12963275E+04  d E =-.612772E-04
       N       E                     dE             d eps       ncg     rms          rms(c)
DAV:   1    -0.129699273034E+04    0.15835E-04   -0.12918E-03  6096   0.405E-02    0.433E-02
DAV:   2    -0.129699672326E+04   -0.39929E-02   -0.11138E-03  7872   0.178E-01    0.131E+00
DAV:   3    -0.129699474317E+04    0.19801E-02   -0.13476E-03  6852   0.199E-01    0.978E-01
DAV:   4    -0.129699280092E+04    0.19422E-02   -0.49984E-04  7272   0.131E-01    0.184E-01
DAV:   5    -0.129699288390E+04   -0.82977E-04   -0.18539E-04  6816   0.587E-02    0.255E-01
DAV:   6    -0.129699287840E+04    0.54945E-05   -0.21285E-04  6960   0.598E-02    0.217E-01
DAV:   7    -0.129699286592E+04    0.12486E-04   -0.15905E-04  6708   0.568E-02    0.218E-01
DAV:   8    -0.129699276171E+04    0.10421E-03   -0.10508E-04  6300   0.418E-02    0.114E-01
DAV:   9    -0.129699273140E+04    0.30311E-04   -0.33600E-05  4164   0.230E-02    0.479E-02
DAV:  10    -0.129699273057E+04    0.82958E-06   -0.11829E-05  3480   0.128E-02
  33 F= -.12969927E+04 E0= -.12963275E+04  d E =-.494634E-04
