NiAl                                    
           1
     0.000000  -15.146222    0.000000
     0.000000   -7.573111  -13.117013
    29.000000    0.000000    0.000000
   Ni   N 
 252   1
Direct configuration=     1
   0.44444444  0.44444444  0.10434507
   0.44444444  0.77777778  0.10434507
   0.44444444  0.11111111  0.10434507
   0.77777778  0.44444444  0.10434507
   0.77777778  0.77777778  0.10434507
   0.77777778  0.11111111  0.10434507
   0.11111111  0.44444444  0.10434507
   0.11111111  0.77777778  0.10434507
   0.11111111  0.11111111  0.10434507
   0.55555556  0.55555556  0.17318538
   0.55555556  0.88888889  0.17318538
   0.55555556  0.22222222  0.17318538
   0.88888889  0.55555556  0.17318538
   0.88888889  0.88888889  0.17318538
   0.88888889  0.22222222  0.17318538
   0.22222222  0.55555556  0.17318538
   0.22222222  0.88888889  0.17318538
   0.22222222  0.22222222  0.17318538
   0.66666667  0.66666667  0.24249888
   0.66666667  0.00000000  0.24249888
   0.66666667  0.33333333  0.24249888
   0.00000000  0.66666667  0.24249888
   0.00000000  0.00000000  0.24249888
   0.00000000  0.33333333  0.24249888
   0.33333333  0.66666667  0.24249888
   0.33333333  0.00000000  0.24249888
   0.33333333  0.33333333  0.24249888
   0.77777778  0.77777778  0.31173066
   0.77777778  0.11111111  0.31173066
   0.77777778  0.44444444  0.31173066
   0.11111111  0.77777778  0.31173066
   0.11111111  0.11111111  0.31173066
   0.11111111  0.44444444  0.31173066
   0.44444444  0.77777778  0.31173066
   0.44444444  0.11111111  0.31173066
   0.44444444  0.44444444  0.31173066
   0.88888889  0.88888889  0.38096243
   0.88888889  0.22222222  0.38096243
   0.88888889  0.55555556  0.38096243
   0.22222222  0.88888889  0.38096243
   0.22222222  0.22222222  0.38096243
   0.22222222  0.55555556  0.38096243
   0.55555556  0.88888889  0.38096243
   0.55555556  0.22222222  0.38096243
   0.55555556  0.55555556  0.38096243
   0.00000000  0.00000000  0.45027593
   0.00000000  0.33333333  0.45027593
   0.00000000  0.66666667  0.45027593
   0.33333333  0.00000000  0.45027593
   0.33333333  0.33333333  0.45027593
   0.33333333  0.66666667  0.45027593
   0.66666667  0.00000000  0.45027593
   0.66666667  0.33333333  0.45027593
   0.66666667  0.66666667  0.45027593
   0.11111111  0.11111111  0.51911624
   0.11111111  0.44444444  0.51911624
   0.11111111  0.77777778  0.51911624
   0.44444444  0.11111111  0.51911624
   0.44444444  0.44444444  0.51911624
   0.44444444  0.77777778  0.51911624
   0.77777778  0.11111111  0.51911624
   0.77777778  0.44444444  0.51911624
   0.77777778  0.77777778  0.51911624
   0.27777778  0.27777778  0.10434507
   0.27777778  0.61111111  0.10434507
   0.27777778  0.94444444  0.10434507
   0.61111111  0.27777778  0.10434507
   0.61111111  0.61111111  0.10434507
   0.61111111  0.94444444  0.10434507
   0.94444444  0.27777778  0.10434507
   0.94444444  0.61111111  0.10434507
   0.94444444  0.94444444  0.10434507
   0.38888889  0.38888889  0.17318538
   0.38888889  0.72222222  0.17318538
   0.38888889  0.05555556  0.17318538
   0.72222222  0.38888889  0.17318538
   0.72222222  0.72222222  0.17318538
   0.72222222  0.05555556  0.17318538
   0.05555556  0.38888889  0.17318538
   0.05555556  0.72222222  0.17318538
   0.05555556  0.05555556  0.17318538
   0.50000000  0.50000000  0.24249888
   0.50000000  0.83333333  0.24249888
   0.50000000  0.16666667  0.24249888
   0.83333333  0.50000000  0.24249888
   0.83333333  0.83333333  0.24249888
   0.83333333  0.16666667  0.24249888
   0.16666667  0.50000000  0.24249888
   0.16666667  0.83333333  0.24249888
   0.16666667  0.16666667  0.24249888
   0.61111111  0.61111111  0.31173066
   0.61111111  0.94444444  0.31173066
   0.61111111  0.27777778  0.31173066
   0.94444444  0.61111111  0.31173066
   0.94444444  0.94444444  0.31173066
   0.94444444  0.27777778  0.31173066
   0.27777778  0.61111111  0.31173066
   0.27777778  0.94444444  0.31173066
   0.27777778  0.27777778  0.31173066
   0.72222222  0.72222222  0.38096243
   0.72222222  0.05555556  0.38096243
   0.72222222  0.38888889  0.38096243
   0.05555556  0.72222222  0.38096243
   0.05555556  0.05555556  0.38096243
   0.05555556  0.38888889  0.38096243
   0.38888889  0.72222222  0.38096243
   0.38888889  0.05555556  0.38096243
   0.38888889  0.38888889  0.38096243
   0.83333333  0.83333333  0.45027593
   0.83333333  0.16666667  0.45027593
   0.83333333  0.50000000  0.45027593
   0.16666667  0.83333333  0.45027593
   0.16666667  0.16666667  0.45027593
   0.16666667  0.50000000  0.45027593
   0.50000000  0.83333333  0.45027593
   0.50000000  0.16666667  0.45027593
   0.50000000  0.50000000  0.45027593
   0.94444444  0.94444444  0.51911624
   0.94444444  0.27777778  0.51911624
   0.94444444  0.61111111  0.51911624
   0.27777778  0.94444444  0.51911624
   0.27777778  0.27777778  0.51911624
   0.27777778  0.61111111  0.51911624
   0.61111111  0.94444444  0.51911624
   0.61111111  0.27777778  0.51911624
   0.61111111  0.61111111  0.51911624
   0.27777778  0.44444444  0.10434507
   0.27777778  0.77777778  0.10434507
   0.27777778  0.11111111  0.10434507
   0.61111111  0.44444444  0.10434507
   0.61111111  0.77777778  0.10434507
   0.61111111  0.11111111  0.10434507
   0.94444444  0.44444444  0.10434507
   0.94444444  0.77777778  0.10434507
   0.94444444  0.11111111  0.10434507
   0.38888889  0.55555556  0.17318538
   0.38888889  0.88888889  0.17318538
   0.38888889  0.22222222  0.17318538
   0.72222222  0.55555556  0.17318538
   0.72222222  0.88888889  0.17318538
   0.72222222  0.22222222  0.17318538
   0.05555556  0.55555556  0.17318538
   0.05555556  0.88888889  0.17318538
   0.05555556  0.22222222  0.17318538
   0.50000000  0.66666667  0.24249888
   0.50000000  0.00000000  0.24249888
   0.50000000  0.33333333  0.24249888
   0.83333333  0.66666667  0.24249888
   0.83333333  0.00000000  0.24249888
   0.83333333  0.33333333  0.24249888
   0.16666667  0.66666667  0.24249888
   0.16666667  0.00000000  0.24249888
   0.16666667  0.33333333  0.24249888
   0.61111111  0.77777778  0.31173066
   0.61111111  0.11111111  0.31173066
   0.61111111  0.44444444  0.31173066
   0.94444444  0.77777778  0.31173066
   0.94444444  0.11111111  0.31173066
   0.94444444  0.44444444  0.31173066
   0.27777778  0.77777778  0.31173066
   0.27777778  0.11111111  0.31173066
   0.27777778  0.44444444  0.31173066
   0.72222222  0.88888889  0.38096243
   0.72222222  0.22222222  0.38096243
   0.72222222  0.55555556  0.38096243
   0.05555556  0.88888889  0.38096243
   0.05555556  0.22222222  0.38096243
   0.05555556  0.55555556  0.38096243
   0.38888889  0.88888889  0.38096243
   0.38888889  0.22222222  0.38096243
   0.38888889  0.55555556  0.38096243
   0.83333333  0.00000000  0.45027593
   0.83333333  0.33333333  0.45027593
   0.83333333  0.66666667  0.45027593
   0.16666667  0.00000000  0.45027593
   0.16666667  0.33333333  0.45027593
   0.16666667  0.66666667  0.45027593
   0.50000000  0.00000000  0.45027593
   0.50000000  0.33333333  0.45027593
   0.50000000  0.66666667  0.45027593
   0.94444444  0.11111111  0.51911624
   0.94444444  0.44444444  0.51911624
   0.94444444  0.77777778  0.51911624
   0.27777778  0.11111111  0.51911624
   0.27777778  0.44444444  0.51911624
   0.27777778  0.77777778  0.51911624
   0.61111111  0.11111111  0.51911624
   0.61111111  0.44444444  0.51911624
   0.61111111  0.77777778  0.51911624
   0.44444444  0.27777778  0.10434507
   0.44444444  0.61111111  0.10434507
   0.44444444  0.94444444  0.10434507
   0.77777778  0.27777778  0.10434507
   0.77777778  0.61111111  0.10434507
   0.77777778  0.94444444  0.10434507
   0.11111111  0.27777778  0.10434507
   0.11111111  0.61111111  0.10434507
   0.11111111  0.94444444  0.10434507
   0.55555556  0.38888889  0.17318538
   0.55555556  0.72222222  0.17318538
   0.55555556  0.05555556  0.17318538
   0.88888889  0.38888889  0.17318538
   0.88888889  0.72222222  0.17318538
   0.88888889  0.05555556  0.17318538
   0.22222222  0.38888889  0.17318538
   0.22222222  0.72222222  0.17318538
   0.22222222  0.05555556  0.17318538
   0.66666667  0.50000000  0.24249888
   0.66666667  0.83333333  0.24249888
   0.66666667  0.16666667  0.24249888
   0.00000000  0.50000000  0.24249888
   0.00000000  0.83333333  0.24249888
   0.00000000  0.16666667  0.24249888
   0.33333333  0.50000000  0.24249888
   0.33333333  0.83333333  0.24249888
   0.33333333  0.16666667  0.24249888
   0.77777778  0.61111111  0.31173066
   0.77777778  0.94444444  0.31173066
   0.77777778  0.27777778  0.31173066
   0.11111111  0.61111111  0.31173066
   0.11111111  0.94444444  0.31173066
   0.11111111  0.27777778  0.31173066
   0.44444444  0.61111111  0.31173066
   0.44444444  0.94444444  0.31173066
   0.44444444  0.27777778  0.31173066
   0.88888889  0.72222222  0.38096243
   0.88888889  0.05555556  0.38096243
   0.88888889  0.38888889  0.38096243
   0.22222222  0.72222222  0.38096243
   0.22222222  0.05555556  0.38096243
   0.22222222  0.38888889  0.38096243
   0.55555556  0.72222222  0.38096243
   0.55555556  0.05555556  0.38096243
   0.55555556  0.38888889  0.38096243
   0.00000000  0.83333333  0.45027593
   0.00000000  0.16666667  0.45027593
   0.00000000  0.50000000  0.45027593
   0.33333333  0.83333333  0.45027593
   0.33333333  0.16666667  0.45027593
   0.33333333  0.50000000  0.45027593
   0.66666667  0.83333333  0.45027593
   0.66666667  0.16666667  0.45027593
   0.66666667  0.50000000  0.45027593
   0.11111111  0.94444444  0.51911624
   0.11111111  0.27777778  0.51911624
   0.11111111  0.61111111  0.51911624
   0.44444444  0.94444444  0.51911624
   0.44444444  0.27777778  0.51911624
   0.44444444  0.61111111  0.51911624
   0.77777778  0.94444444  0.51911624
   0.77777778  0.27777778  0.51911624
   0.77777778  0.61111111  0.51911624
   0.38888889  0.55555556  0.47000000
Direct configuration=     2
   0.44444583  0.44444167  0.10433811
   0.44444649  0.77777544  0.10433666
   0.44444374  0.11111384  0.10433805
   0.77777775  0.44444430  0.10433357
   0.77778078  0.77777178  0.10433887
   0.77777575  0.11111384  0.10433805
   0.11111128  0.44444430  0.10433357
   0.11111140  0.77777544  0.10433666
   0.11110891  0.11111552  0.10433691
   0.55555661  0.55555700  0.17321531
   0.55555676  0.88888714  0.17321503
   0.55555511  0.22222312  0.17321630
   0.88888656  0.55556021  0.17321320
   0.88888943  0.88888714  0.17321503
   0.88888832  0.22222018  0.17321428
   0.22221972  0.55555700  0.17321531
   0.22222389  0.88888555  0.17321374
   0.22222482  0.22222018  0.17321428
   0.66667489  0.66667572  0.24250975
   0.66667002 -0.00000670  0.24251230
   0.66666250  0.33333358  0.24251265
  -0.00001728  0.66667572  0.24250975
  -0.00000251 -0.00000417  0.24251403
  -0.00000380  0.33334094  0.24251551
   0.33333305  0.66666723  0.24251180
   0.33334001 -0.00000417  0.24251403
   0.33333725  0.33333358  0.24251265
   0.77777957  0.77777420  0.31170909
   0.77778456  0.11110382  0.31171123
   0.77777670  0.44445105  0.31170883
   0.11108851  0.77779030  0.31169005
   0.11111694  0.11109946  0.31170946
   0.11110558  0.44445105  0.31170883
   0.44445453  0.77779030  0.31169005
   0.44444495  0.11110382  0.31171123
   0.44444182  0.44444969  0.31172707
   0.88888856  0.88888432  0.38096717
   0.88888763  0.22222208  0.38097001
   0.88888598  0.55556137  0.38097202
   0.22222539  0.88888255  0.38097554
   0.22222362  0.22222208  0.38097001
   0.22208167  0.55560379  0.38089709
   0.55556045  0.88888432  0.38096717
   0.55554225  0.22224884  0.38096786
   0.55564787  0.55560379  0.38089709
  -0.00004528  0.00005592  0.45029139
   0.00000018  0.33333298  0.45029308
   0.00001217  0.66664350  0.45029027
   0.33332269  0.00005592  0.45029139
   0.33332027  0.33324021  0.45029906
   0.32842067  0.67649200  0.44851470
   0.66666659  0.00000015  0.45029181
   0.66677286  0.33324021  0.45029906
   0.66667767  0.66664350  0.45029027
   0.11111333  0.11110667  0.51908000
   0.11109682  0.44446992  0.51907707
   0.11114905  0.77777902  0.51909220
   0.44444091  0.11110376  0.51907791
   0.44474474  0.44384385  0.51936391
   0.44440526  0.77777902  0.51909220
   0.77778866  0.11110376  0.51907791
   0.77776660  0.44446992  0.51907707
   0.77778132  0.77777070  0.51907892
   0.27777764  0.27777794  0.10433357
   0.27777500  0.61111250  0.10433811
   0.27777764  0.94444442  0.10433357
   0.61110877  0.27777807  0.10433666
   0.61110877  0.61111316  0.10433666
   0.61110512  0.94444744  0.10433887
   0.94444885  0.27777558  0.10433691
   0.94444717  0.61111041  0.10433805
   0.94444717  0.94444242  0.10433805
   0.38889034  0.38888639  0.17321531
   0.38889034  0.72222328  0.17321531
   0.38889355  0.05555323  0.17321320
   0.72221888  0.38889056  0.17321374
   0.72222047  0.72222343  0.17321503
   0.72222047  0.05555610  0.17321503
   0.05555352  0.38889149  0.17321428
   0.05555646  0.72222177  0.17321630
   0.05555352  0.05555499  0.17321428
   0.50000056  0.49999972  0.24251180
   0.50000905  0.83334156  0.24250975
   0.50000905  0.16664939  0.24250975
   0.83332916  0.50000668  0.24251403
   0.83332663  0.83333668  0.24251230
   0.83332916  0.16666416  0.24251403
   0.16666691  0.50000392  0.24251265
   0.16666691  0.83332917  0.24251265
   0.16667427  0.16666287  0.24251551
   0.61112363  0.61112119  0.31169005
   0.61110753  0.94444623  0.31170909
   0.61112363  0.27775518  0.31169005
   0.94443716  0.61111162  0.31171123
   0.94443716  0.94445122  0.31171123
   0.94443280  0.27778360  0.31170946
   0.27778302  0.61110849  0.31172707
   0.27778438  0.94444337  0.31170883
   0.27778438  0.27777225  0.31170883
   0.72221765  0.72222712  0.38096717
   0.72221765  0.05555522  0.38096717
   0.72221589  0.38889206  0.38097554
   0.05558218  0.72220891  0.38096786
   0.05555541  0.05555430  0.38097001
   0.05555541  0.38889029  0.38097001
   0.38893712  0.72231454  0.38089709
   0.38889470  0.05555265  0.38097202
   0.38893712  0.38874834  0.38089709
   0.83333349  0.83333326  0.45029181
   0.83338926  0.16662138  0.45029139
   0.83338926  0.49998936  0.45029139
   0.16657354  0.83343953  0.45029906
   0.16666631  0.16666685  0.45029308
   0.16657354  0.49998693  0.45029906
   0.49997683  0.83334434  0.45029027
   0.49997683  0.16667883  0.45029027
   0.50982534  0.49508733  0.44851470
   0.94443709  0.94445533  0.51907791
   0.94444001  0.27778000  0.51908000
   0.94443709  0.61110758  0.51907791
   0.27780326  0.94443326  0.51907707
   0.27780326  0.27776348  0.51907707
   0.27717719  0.61141141  0.51936391
   0.61110403  0.94444799  0.51907892
   0.61111236  0.27781572  0.51909220
   0.61111236  0.61107193  0.51909220
   0.27777875  0.44444542  0.10433413
   0.27777875  0.77777583  0.10433413
   0.27777176  0.11111412  0.10433748
   0.61110917  0.44444542  0.10433413
   0.61110783  0.77777450  0.10433859
   0.61110783  0.11111766  0.10433859
   0.94444745  0.44443843  0.10433748
   0.94445100  0.77777450  0.10433859
   0.94444745  0.11111412  0.10433748
   0.38888889  0.55555556  0.17321634
   0.38888324  0.88888782  0.17321539
   0.38888324  0.22222894  0.17321539
   0.72222115  0.55554990  0.17321539
   0.72222222  0.88888889  0.17321428
   0.72222115  0.22222894  0.17321539
   0.05556228  0.55554990  0.17321539
   0.05556228  0.88888782  0.17321539
   0.05555556  0.22222222  0.17321856
   0.50000008  0.66666674  0.24250662
   0.50000199 -0.00000099  0.24251375
   0.50000008  0.33333318  0.24250662
   0.83333234  0.66666865  0.24251375
   0.83333234 -0.00000099  0.24251375
   0.83332900  0.33333550  0.24251255
   0.16666651  0.66666674  0.24250662
   0.16666883 -0.00000433  0.24251255
   0.16666883  0.33333550  0.24251255
   0.61111262  0.77777929  0.31171000
   0.61111262  0.11110809  0.31171000
   0.61109883  0.44445059  0.31171410
   0.94444143  0.77777929  0.31171000
   0.94444118  0.11110785  0.31170952
   0.94444118  0.44445097  0.31170952
   0.27778392  0.77776550  0.31171410
   0.27778430  0.11110785  0.31170952
   0.27778392  0.44445059  0.31171410
   0.72222222  0.88888889  0.38096686
   0.72220582  0.22223681  0.38097362
   0.72220582  0.55555738  0.38097362
   0.05557014  0.88887248  0.38097362
   0.05555556  0.22222222  0.38097008
   0.05557014  0.55555738  0.38097362
   0.38889071  0.88887248  0.38097362
   0.38889071  0.22223681  0.38097362
   0.38888889  0.55555556  0.38044452
   0.83333109 -0.00000225  0.45029670
   0.83332006  0.33333997  0.45029451
   0.83333109  0.66667116  0.45029670
   0.16667330 -0.00001327  0.45029451
   0.16667330  0.33333997  0.45029451
   0.16590687  0.66704657  0.45020083
   0.50000449 -0.00000225  0.45029670
   0.50037990  0.33257353  0.45020083
   0.50037990  0.66704657  0.45020083
   0.94445000  0.11111667  0.51907320
   0.94445000  0.44443333  0.51907320
   0.94444705  0.77777647  0.51907945
   0.27776666  0.11111667  0.51907320
   0.27753032  0.44419698  0.51916692
   0.27753032  0.77827270  0.51916692
   0.61110981  0.11111372  0.51907945
   0.61160603  0.44419698  0.51916692
   0.61110981  0.77777647  0.51907945
   0.44444649  0.27777807  0.10433666
   0.44444583  0.61111250  0.10433811
   0.44444374  0.94444242  0.10433805
   0.77777775  0.27777794  0.10433357
   0.77777575  0.61111041  0.10433805
   0.77778078  0.94444744  0.10433887
   0.11110891  0.27777558  0.10433691
   0.11111140  0.61111316  0.10433666
   0.11111128  0.94444442  0.10433357
   0.55555661  0.38888639  0.17321531
   0.55555511  0.72222177  0.17321630
   0.55555676  0.05555610  0.17321503
   0.88888832  0.38889149  0.17321428
   0.88888943  0.72222343  0.17321503
   0.88888656  0.05555323  0.17321320
   0.22222389  0.38889056  0.17321374
   0.22221972  0.72222328  0.17321531
   0.22222482  0.05555499  0.17321428
   0.66666250  0.50000392  0.24251265
   0.66667002  0.83333668  0.24251230
   0.66667489  0.16664939  0.24250975
  -0.00000251  0.50000668  0.24251403
  -0.00001728  0.83334156  0.24250975
  -0.00000380  0.16666287  0.24251551
   0.33333305  0.49999972  0.24251180
   0.33333725  0.83332917  0.24251265
   0.33334001  0.16666416  0.24251403
   0.77778456  0.61111162  0.31171123
   0.77777957  0.94444623  0.31170909
   0.77777670  0.27777225  0.31170883
   0.11108851  0.61112119  0.31169005
   0.11110558  0.94444337  0.31170883
   0.11111694  0.27778360  0.31170946
   0.44444182  0.61110849  0.31172707
   0.44444495  0.94445122  0.31171123
   0.44445453  0.27775518  0.31169005
   0.88888856  0.72222712  0.38096717
   0.88888598  0.05555265  0.38097202
   0.88888763  0.38889029  0.38097001
   0.22208167  0.72231454  0.38089709
   0.22222362  0.05555430  0.38097001
   0.22222539  0.38889206  0.38097554
   0.55554225  0.72220891  0.38096786
   0.55556045  0.05555522  0.38096717
   0.55564787  0.38874834  0.38089709
   0.00001217  0.83334434  0.45029027
   0.00000018  0.16666685  0.45029308
  -0.00004528  0.49998936  0.45029139
   0.33332027  0.83343953  0.45029906
   0.33332269  0.16662138  0.45029139
   0.32842067  0.49508733  0.44851470
   0.66666659  0.83333326  0.45029181
   0.66667767  0.16667883  0.45029027
   0.66677286  0.49998693  0.45029906
   0.11109682  0.94443326  0.51907707
   0.11111333  0.27778000  0.51908000
   0.11114905  0.61107193  0.51909220
   0.44444091  0.94445533  0.51907791
   0.44440526  0.27781572  0.51909220
   0.44474474  0.61141141  0.51936391
   0.77778132  0.94444799  0.51907892
   0.77776660  0.27776348  0.51907707
   0.77778866  0.61110758  0.51907791
   0.38888889  0.55555556  0.47538520
Direct configuration=     3
   0.44444614  0.44444106  0.10433658
   0.44444694  0.77777493  0.10433483
   0.44444359  0.11111444  0.10433651
   0.77777775  0.44444427  0.10433106
   0.77778143  0.77777047  0.10433751
   0.77777531  0.11111444  0.10433651
   0.11111131  0.44444427  0.10433106
   0.11111146  0.77777493  0.10433483
   0.11110843  0.11111648  0.10433513
   0.55555684  0.55555732  0.17322186
   0.55555703  0.88888675  0.17322151
   0.55555501  0.22222332  0.17322306
   0.88888605  0.55556123  0.17321928
   0.88888955  0.88888675  0.17322151
   0.88888820  0.22221974  0.17322060
   0.22221918  0.55555732  0.17322186
   0.22222426  0.88888481  0.17321995
   0.22222539  0.22221974  0.17322060
   0.66667669  0.66667770  0.24251213
   0.66667075 -0.00000817  0.24251523
   0.66666159  0.33333364  0.24251566
  -0.00002105  0.66667770  0.24251213
  -0.00000305 -0.00000508  0.24251735
  -0.00000463  0.33334260  0.24251915
   0.33333299  0.66666735  0.24251462
   0.33334147 -0.00000508  0.24251735
   0.33333811  0.33333364  0.24251566
   0.77777996  0.77777342  0.31170437
   0.77778604  0.11110223  0.31170698
   0.77777647  0.44445249  0.31170406
   0.11108357  0.77779303  0.31168117
   0.11111821  0.11109692  0.31170482
   0.11110437  0.44445249  0.31170406
   0.44445673  0.77779303  0.31168117
   0.44444507  0.11110223  0.31170698
   0.44444125  0.44445084  0.31172629
   0.88888849  0.88888332  0.38096820
   0.88888736  0.22222205  0.38097166
   0.88888535  0.55556264  0.38097411
   0.22222608  0.88888117  0.38097841
   0.22222393  0.22222205  0.38097166
   0.22205093  0.55561434  0.38088280
   0.55556152  0.88888332  0.38096820
   0.55553934  0.22225466  0.38096904
   0.55566806  0.55561434  0.38088280
  -0.00005519  0.00006815  0.45029476
   0.00000022  0.33333290  0.45029683
   0.00001483  0.66663843  0.45029340
   0.33332037  0.00006815  0.45029476
   0.33331741  0.33321984  0.45030412
   0.32734634  0.67864066  0.44812954
   0.66666657  0.00000019  0.45029529
   0.66679608  0.33321984  0.45030412
   0.66668008  0.66663843  0.45029340
   0.11111381  0.11110570  0.51907207
   0.11109369  0.44447549  0.51906850
   0.11115735  0.77777929  0.51908695
   0.44444014  0.11110215  0.51906953
   0.44481041  0.44371251  0.51941807
   0.44439669  0.77777929  0.51908695
   0.77779105  0.11110215  0.51906953
   0.77776415  0.44447549  0.51906850
   0.77778209  0.77776915  0.51907076
   0.27777761  0.27777798  0.10433106
   0.27777440  0.61111280  0.10433658
   0.27777761  0.94444441  0.10433106
   0.61110826  0.27777813  0.10433483
   0.61110826  0.61111361  0.10433483
   0.61110380  0.94444810  0.10433751
   0.94444981  0.27777509  0.10433513
   0.94444777  0.61111025  0.10433651
   0.94444777  0.94444197  0.10433651
   0.38889065  0.38888584  0.17322186
   0.38889065  0.72222351  0.17322186
   0.38889456  0.05555272  0.17321928
   0.72221815  0.38889093  0.17321995
   0.72222009  0.72222369  0.17322151
   0.72222009  0.05555622  0.17322151
   0.05555307  0.38889206  0.17322060
   0.05555665  0.72222167  0.17322306
   0.05555307  0.05555487  0.17322060
   0.50000068  0.49999966  0.24251462
   0.50001103  0.83334336  0.24251213
   0.50001103  0.16664561  0.24251213
   0.83332825  0.50000814  0.24251735
   0.83332517  0.83333742  0.24251523
   0.83332825  0.16666361  0.24251735
   0.16666697  0.50000478  0.24251566
   0.16666697  0.83332825  0.24251566
   0.16667593  0.16666203  0.24251915
   0.61112637  0.61112340  0.31168117
   0.61110675  0.94444662  0.31170437
   0.61112637  0.27775024  0.31168117
   0.94443556  0.61111173  0.31170698
   0.94443556  0.94445270  0.31170698
   0.94443025  0.27778488  0.31170482
   0.27778417  0.61110791  0.31172629
   0.27778582  0.94444313  0.31170406
   0.27778582  0.27777104  0.31170406
   0.72221666  0.72222819  0.38096820
   0.72221666  0.05555515  0.38096820
   0.72221450  0.38889275  0.38097841
   0.05558800  0.72220600  0.38096904
   0.05555538  0.05555402  0.38097166
   0.05555538  0.38889059  0.38097166
   0.38894767  0.72233473  0.38088280
   0.38889597  0.05555201  0.38097411
   0.38894767  0.38871760  0.38088280
   0.83333352  0.83333324  0.45029529
   0.83340149  0.16661148  0.45029476
   0.83340149  0.49998703  0.45029476
   0.16655318  0.83346275  0.45030412
   0.16666623  0.16666688  0.45029683
   0.16655318  0.49998407  0.45030412
   0.49997176  0.83334674  0.45029340
   0.49997176  0.16668149  0.45029340
   0.51197400  0.49401300  0.44812954
   0.94443548  0.94445771  0.51906953
   0.94443904  0.27778048  0.51907207
   0.94443548  0.61110681  0.51906953
   0.27780883  0.94443082  0.51906850
   0.27780883  0.27776036  0.51906850
   0.27704585  0.61147708  0.51941807
   0.61110248  0.94444876  0.51907076
   0.61111263  0.27782402  0.51908695
   0.61111263  0.61106336  0.51908695
   0.27777896  0.44444563  0.10433173
   0.27777896  0.77777541  0.10433173
   0.27777045  0.11111478  0.10433582
   0.61110874  0.44444563  0.10433173
   0.61110712  0.77777378  0.10433717
   0.61110712  0.11111910  0.10433717
   0.94444811  0.44443711  0.10433582
   0.94445243  0.77777378  0.10433717
   0.94444811  0.11111478  0.10433582
   0.38888889  0.55555556  0.17322311
   0.38888200  0.88888759  0.17322195
   0.38888200  0.22223041  0.17322195
   0.72222092  0.55554867  0.17322195
   0.72222222  0.88888889  0.17322060
   0.72222092  0.22223041  0.17322195
   0.05556375  0.55554867  0.17322195
   0.05556375  0.88888759  0.17322195
   0.05555556  0.22222222  0.17322581
   0.50000009  0.66666676  0.24250832
   0.50000242 -0.00000121  0.24251700
   0.50000009  0.33333315  0.24250832
   0.83333212  0.66666909  0.24251700
   0.83333212 -0.00000121  0.24251700
   0.83332806  0.33333597  0.24251554
   0.16666648  0.66666676  0.24250832
   0.16666930 -0.00000528  0.24251554
   0.16666930  0.33333597  0.24251554
   0.61111295  0.77777962  0.31170548
   0.61111295  0.11110743  0.31170548
   0.61109614  0.44445193  0.31171048
   0.94444077  0.77777962  0.31170548
   0.94444047  0.11110714  0.31170490
   0.94444047  0.44445239  0.31170490
   0.27778526  0.77776281  0.31171048
   0.27778572  0.11110714  0.31170490
   0.27778526  0.44445193  0.31171048
   0.72222222  0.88888889  0.38096783
   0.72220223  0.22224000  0.38097607
   0.72220223  0.55555778  0.38097607
   0.05557333  0.88886889  0.38097607
   0.05555556  0.22222222  0.38097175
   0.05557333  0.55555778  0.38097607
   0.38889111  0.88886889  0.38097607
   0.38889111  0.22224000  0.38097607
   0.38888889  0.55555556  0.38033126
   0.83333060 -0.00000274  0.45030124
   0.83331716  0.33334142  0.45029857
   0.83333060  0.66667214  0.45030124
   0.16667475 -0.00001617  0.45029857
   0.16667475  0.33334142  0.45029857
   0.16574071  0.66712964  0.45018440
   0.50000547 -0.00000274  0.45030124
   0.50046298  0.33240738  0.45018440
   0.50046298  0.66712964  0.45018440
   0.94445122  0.11111789  0.51906379
   0.94445122  0.44443089  0.51906379
   0.94444762  0.77777619  0.51907140
   0.27776423  0.11111789  0.51906379
   0.27747620  0.44414287  0.51917801
   0.27747620  0.77838093  0.51917801
   0.61110952  0.11111429  0.51907140
   0.61171427  0.44414287  0.51917801
   0.61110952  0.77777619  0.51907140
   0.44444694  0.27777813  0.10433483
   0.44444614  0.61111280  0.10433658
   0.44444359  0.94444197  0.10433651
   0.77777775  0.27777798  0.10433106
   0.77777531  0.61111025  0.10433651
   0.77778143  0.94444810  0.10433751
   0.11110843  0.27777509  0.10433513
   0.11111146  0.61111361  0.10433483
   0.11111131  0.94444441  0.10433106
   0.55555684  0.38888584  0.17322186
   0.55555501  0.72222167  0.17322306
   0.55555703  0.05555622  0.17322151
   0.88888820  0.38889206  0.17322060
   0.88888955  0.72222369  0.17322151
   0.88888605  0.05555272  0.17321928
   0.22222426  0.38889093  0.17321995
   0.22221918  0.72222351  0.17322186
   0.22222539  0.05555487  0.17322060
   0.66666159  0.50000478  0.24251566
   0.66667075  0.83333742  0.24251523
   0.66667669  0.16664561  0.24251213
  -0.00000305  0.50000814  0.24251735
  -0.00002105  0.83334336  0.24251213
  -0.00000463  0.16666203  0.24251915
   0.33333299  0.49999966  0.24251462
   0.33333811  0.83332825  0.24251566
   0.33334147  0.16666361  0.24251735
   0.77778604  0.61111173  0.31170698
   0.77777996  0.94444662  0.31170437
   0.77777647  0.27777104  0.31170406
   0.11108357  0.61112340  0.31168117
   0.11110437  0.94444313  0.31170406
   0.11111821  0.27778488  0.31170482
   0.44444125  0.61110791  0.31172629
   0.44444507  0.94445270  0.31170698
   0.44445673  0.27775024  0.31168117
   0.88888849  0.72222819  0.38096820
   0.88888535  0.05555201  0.38097411
   0.88888736  0.38889059  0.38097166
   0.22205093  0.72233473  0.38088280
   0.22222393  0.05555402  0.38097166
   0.22222608  0.38889275  0.38097841
   0.55553934  0.72220600  0.38096904
   0.55556152  0.05555515  0.38096820
   0.55566806  0.38871760  0.38088280
   0.00001483  0.83334674  0.45029340
   0.00000022  0.16666688  0.45029683
  -0.00005519  0.49998703  0.45029476
   0.33331741  0.83346275  0.45030412
   0.33332037  0.16661148  0.45029476
   0.32734634  0.49401300  0.44812954
   0.66666657  0.83333324  0.45029529
   0.66668008  0.16668149  0.45029340
   0.66679608  0.49998407  0.45030412
   0.11109369  0.94443082  0.51906850
   0.11111381  0.27778048  0.51907207
   0.11115735  0.61106336  0.51908695
   0.44444014  0.94445771  0.51906953
   0.44439669  0.27782402  0.51908695
   0.44481041  0.61147708  0.51941807
   0.77778209  0.94444876  0.51907076
   0.77776415  0.27776036  0.51906850
   0.77779105  0.61110681  0.51906953
   0.38888889  0.55555556  0.47656287
Direct configuration=     4
   0.44444611  0.44444111  0.10433670
   0.44444691  0.77777496  0.10433496
   0.44444360  0.11111439  0.10433662
   0.77777775  0.44444427  0.10433125
   0.77778138  0.77777057  0.10433761
   0.77777534  0.11111439  0.10433662
   0.11111131  0.44444427  0.10433125
   0.11111146  0.77777496  0.10433496
   0.11110846  0.11111641  0.10433526
   0.55555682  0.55555729  0.17322138
   0.55555701  0.88888678  0.17322103
   0.55555501  0.22222330  0.17322257
   0.88888609  0.55556116  0.17321884
   0.88888955  0.88888678  0.17322103
   0.88888821  0.22221977  0.17322013
   0.22221922  0.55555729  0.17322138
   0.22222423  0.88888487  0.17321949
   0.22222535  0.22221977  0.17322013
   0.66667656  0.66667755  0.24251196
   0.66667070 -0.00000806  0.24251502
   0.66666165  0.33333363  0.24251544
  -0.00002078  0.66667755  0.24251196