LAMMPS (24 Mar 2022)
OMP_NUM_THREADS environment is not set. Defaulting to 1 thread. (src/comm.cpp:98)
  using 1 OpenMP thread(s) per MPI task
Reading data file ...
  triclinic box = (0 0 0) to (15.146222 13.117013 29) with tilt (7.5731109 0 0)
  1 by 1 by 1 MPI processor grid
  reading atoms ...
  252 atoms
  read_data CPU = 0.001 seconds
WARNING: Using 'neigh_modify every 1 delay 0 check yes' setting during minimization (src/min.cpp:187)
Neighbor list info ...
  update every 1 steps, delay 0 steps, check yes
  max neighbors/atom: 2000, page size: 100000
  master list distance cutoff = 8.28721
  ghost atom cutoff = 8.28721
  binsize = 4.143605, bins = 6 4 7
  1 neighbor lists, perpetual/occasional/extra = 1 0 0
  (1) pair eam/alloy, perpetual
      attributes: half, newton on
      pair build: half/bin/newton/tri
      stencil: half/bin/3d/tri
      bin: standard
Setting up cg style minimization ...
  Unit style    : metal
  Current step  : 0
Per MPI rank memory allocation (min/avg/max) = 4.513 | 4.513 | 4.513 Mbytes
   Step          Temp          E_pair         E_mol          TotEng         Press     
         0   0             -1076.5921      0             -1076.5921     -16277.378    
Loop time of 3.012e-06 on 1 procs for 0 steps with 252 atoms

132.8% CPU use with 1 MPI tasks x 1 OpenMP threads

Minimization stats:
  Stopping criterion = max iterations
  Energy initial, next-to-last, final = 
     -1076.59207147997                  0  -1076.59207147997
  Force two-norm initial, final = 2.4285593 2.4285593
  Force max component initial, final = 0.47917176 0.47917176
  Final line search alpha, max atom move = 0 0
  Iterations, force evaluations = 0 0

MPI task timing breakdown:
Section |  min time  |  avg time  |  max time  |%varavg| %total
---------------------------------------------------------------
Pair    | 0          | 0          | 0          |   0.0 |  0.00
Neigh   | 0          | 0          | 0          |   0.0 |  0.00
Comm    | 0          | 0          | 0          |   0.0 |  0.00
Output  | 0          | 0          | 0          |   0.0 |  0.00
Modify  | 0          | 0          | 0          |   0.0 |  0.00
Other   |            | 3.012e-06  |            |       |100.00

Nlocal:            252 ave         252 max         252 min
Histogram: 1 0 0 0 0 0 0 0 0 0
Nghost:           1627 ave        1627 max        1627 min
Histogram: 1 0 0 0 0 0 0 0 0 0
Neighs:          20238 ave       20238 max       20238 min
Histogram: 1 0 0 0 0 0 0 0 0 0

Total # of neighbors = 20238
Ave neighs/atom = 80.309524
Neighbor list builds = 0
Dangerous builds = 0
Setting up Verlet run ...
  Unit style    : metal
  Current step  : 0
  Time step     : 0.01
Per MPI rank memory allocation (min/avg/max) = 4.398 | 4.398 | 4.398 Mbytes
   Step          Temp          E_pair         E_mol          TotEng         Press     
         0   300           -1076.5921      0             -1066.8588     -14472.942    
       100   150.98898     -1071.5382      0             -1066.6395     -13214.73     
       200   158.22426     -1071.7878      0             -1066.6544     -19897.963    
       300   153.8496      -1071.6385      0             -1066.647      -25881.159    
       400   146.47464     -1071.3925      0             -1066.6402     -25636.466    
       500   135.5897      -1071.0203      0             -1066.6212     -20217.122    
       600   152.34954     -1071.5936      0             -1066.6508     -15851.03     
       700   165.69173     -1072.0349      0             -1066.6591     -16447.445    
       800   156.75759     -1071.7327      0             -1066.6468     -20432.369    
       900   148.59023     -1071.4647      0             -1066.6438     -23735.63     
      1000   150.70362     -1071.5329      0             -1066.6434     -22877.636    
      1100   161.73941     -1071.9214      0             -1066.6739     -19333.192    
      1200   148.52529     -1071.4753      0             -1066.6565     -16187.096    
      1300   149.45722     -1071.4984      0             -1066.6493     -17849.506    
      1400   137.28443     -1071.0778      0             -1066.6237     -22284.093    
      1500   149.33254     -1071.4879      0             -1066.6429     -25144.091    
      1600   150.68435     -1071.538       0             -1066.6492     -23148.81     
      1700   152.8584      -1071.6088      0             -1066.6494     -18036.983    
      1800   159.54333     -1071.8376      0             -1066.6614     -15060.248    
      1900   149.28577     -1071.4836      0             -1066.6401     -16778.207    
      2000   163.70591     -1071.9794      0             -1066.6681     -21900.607    
      2100   167.07807     -1072.0887      0             -1066.668      -25036.721    
      2200   153.09835     -1071.6178      0             -1066.6507     -23249.77     
      2300   152.79819     -1071.6057      0             -1066.6483     -18633.803    
      2400   158.0607      -1071.792       0             -1066.6638     -16238.408    
      2500   148.31043     -1071.4588      0             -1066.647      -18407.636    
      2600   149.99969     -1071.5075      0             -1066.6409     -22262.88     
      2700   148.42402     -1071.4659      0             -1066.6504     -23401.024    
      2800   154.11999     -1071.6502      0             -1066.6499     -20703.316    
      2900   165.5681      -1072.0382      0             -1066.6665     -17135.307    
      3000   148.2587      -1071.463       0             -1066.6529     -16000.504    
      3100   167.13635     -1072.0914      0             -1066.6688     -19871.648    
      3200   156.74177     -1071.7457      0             -1066.6603     -23673.404    
      3300   152.72431     -1071.6151      0             -1066.66       -24334.598    
      3400   157.9891      -1071.7861      0             -1066.6602     -21167.775    
      3500   160.07138     -1071.855       0             -1066.6616     -16902.374    
      3600   143.38756     -1071.288       0             -1066.6359     -15624.828    
      3700   162.03708     -1071.9185      0             -1066.6613     -19078.118    
      3800   153.32993     -1071.6125      0             -1066.6378     -23339.332    
      3900   150.11625     -1071.5232      0             -1066.6527     -24303.201    
      4000   160.20163     -1071.8575      0             -1066.6598     -21236.508    
      4100   158.64665     -1071.7995      0             -1066.6523     -17463.576    
      4200   163.75335     -1071.977       0             -1066.6642     -16441.065    
      4300   156.35004     -1071.7359      0             -1066.6632     -19058.247    
      4400   154.42947     -1071.66        0             -1066.6496     -22965.184    
      4500   143.55784     -1071.2948      0             -1066.6372     -23994.797    
      4600   156.8548      -1071.7428      0             -1066.6538     -21126.9      
      4700   158.15613     -1071.7882      0             -1066.657      -17280.343    
      4800   152.23354     -1071.5834      0             -1066.6443     -16553.618    
      4900   157.96337     -1071.7768      0             -1066.6518     -19333.795    
      5000   154.29565     -1071.6536      0             -1066.6475     -22837.008    
      5100   155.84493     -1071.7136      0             -1066.6574     -24298.762    
      5200   149.49593     -1071.5013      0             -1066.651      -21341.724    
      5300   142.40917     -1071.2579      0             -1066.6375     -16514.039    
      5400   156.09049     -1071.7176      0             -1066.6533     -15991.144    
      5500   163.03466     -1071.9591      0             -1066.6696     -19243.639    
      5600   159.25573     -1071.8227      0             -1066.6557     -22892.529    
      5700   158.79123     -1071.8142      0             -1066.6624     -23972.058    
      5800   154.75637     -1071.6721      0             -1066.6512     -21314.194    
      5900   151.49769     -1071.57        0             -1066.6547     -17499.566    
      6000   147.8684      -1071.4313      0             -1066.6338     -17190.129    
      6100   154.62272     -1071.671       0             -1066.6544     -20183.377    
      6200   158.47182     -1071.7984      0             -1066.6569     -22691.834    
      6300   162.07568     -1071.9266      0             -1066.6682     -23039.625    
      6400   160.77303     -1071.8733      0             -1066.6571     -20325.694    
      6500   152.17944     -1071.581       0             -1066.6437     -16999.912    
      6600   157.50066     -1071.7707      0             -1066.6607     -17285.541    
      6700   153.8334      -1071.6433      0             -1066.6523     -20523.33     
      6800   152.12171     -1071.5928      0             -1066.6573     -23903.997    
      6900   142.90609     -1071.2735      0             -1066.637      -23708.765    
      7000   153.71413     -1071.6378      0             -1066.6506     -19959.418    
      7100   158.45297     -1071.8027      0             -1066.6618     -16360.552    
      7200   157.97183     -1071.7786      0             -1066.6533     -16549.165    
      7300   154.90758     -1071.6734      0             -1066.6475     -20431.72     
      7400   159.02437     -1071.8095      0             -1066.6501     -23511.087    
      7500   156.98931     -1071.7546      0             -1066.6612     -23057.15     
      7600   159.43104     -1071.8305      0             -1066.6579     -19370.802    
      7700   149.48964     -1071.4987      0             -1066.6486     -16673.91     
      7800   160.14291     -1071.8493      0             -1066.6536     -17883.973    
      7900   145.19514     -1071.3531      0             -1066.6424     -21155.093    
      8000   155.72095     -1071.7103      0             -1066.658      -23192.841    
      8100   156.9219      -1071.7474      0             -1066.6562     -21486.862    
      8200   149.00425     -1071.4797      0             -1066.6454     -17662.112    
      8300   149.66321     -1071.4972      0             -1066.6415     -16714.058    
      8400   157.48709     -1071.7673      0             -1066.6577     -18905.994    
      8500   152.5273      -1071.5979      0             -1066.6493     -22668.682    
      8600   148.28202     -1071.4563      0             -1066.6454     -24401.215    
      8700   157.24395     -1071.7501      0             -1066.6484     -21737.669    
      8800   158.83518     -1071.8091      0             -1066.6558     -17353.359    
      8900   149.96672     -1071.5146      0             -1066.649      -15979.247    
      9000   157.054       -1071.7501      0             -1066.6546     -18644.598    
      9100   159.09022     -1071.8252      0             -1066.6636     -22923.25     
      9200   153.69421     -1071.6368      0             -1066.6503     -24859.557    
      9300   158.69144     -1071.8155      0             -1066.6669     -22040.963    
      9400   147.46847     -1071.4212      0             -1066.6367     -17410.686    
      9500   158.5946      -1071.8131      0             -1066.6676     -16504.117    
      9600   160.70344     -1071.8726      0             -1066.6587     -19450.574    
      9700   162.0577      -1071.9225      0             -1066.6647     -23038.718    
      9800   143.0644      -1071.2751      0             -1066.6335     -23514.347    
      9900   154.3871      -1071.6641      0             -1066.6551     -20272.456    
     10000   160.12906     -1071.8615      0             -1066.6663     -17307.219    
Loop time of 6.77357 on 1 procs for 10000 steps with 252 atoms

Performance: 1275.545 ns/day, 0.019 hours/ns, 1476.325 timesteps/s
99.8% CPU use with 1 MPI tasks x 1 OpenMP threads

MPI task timing breakdown:
Section |  min time  |  avg time  |  max time  |%varavg| %total
---------------------------------------------------------------
Pair    | 6.4986     | 6.4986     | 6.4986     |   0.0 | 95.94
Neigh   | 0          | 0          | 0          |   0.0 |  0.00
Comm    | 0.063521   | 0.063521   | 0.063521   |   0.0 |  0.94
Output  | 0.17147    | 0.17147    | 0.17147    |   0.0 |  2.53
Modify  | 0.021464   | 0.021464   | 0.021464   |   0.0 |  0.32
Other   |            | 0.01854    |            |       |  0.27

Nlocal:            252 ave         252 max         252 min
Histogram: 1 0 0 0 0 0 0 0 0 0
Nghost:           1627 ave        1627 max        1627 min
Histogram: 1 0 0 0 0 0 0 0 0 0
Neighs:          20238 ave       20238 max       20238 min
Histogram: 1 0 0 0 0 0 0 0 0 0

Total # of neighbors = 20238
Ave neighs/atom = 80.309524
Neighbor list builds = 0
Dangerous builds = 0
System init for write_restart ...
Total wall time: 0:00:06
