 254 254   0   0
  0.3019211E+02  0.1718057E-08  0.1718057E-08  0.3000000E-08  0.5000000E-15
  1.000000000000000E-004
  CAR 
 NiAl                                    
      5.02315949    -15.03708041  301      1.76021515      1.00000000
    -15.037  0.0000E+00  0.0000E+00
    -14.970  0.0000E+00  0.0000E+00
    -14.903  0.0000E+00  0.0000E+00
    -14.836  0.0000E+00  0.0000E+00
    -14.770  0.0000E+00  0.0000E+00
    -14.703  0.0000E+00  0.0000E+00
    -14.636  0.0000E+00  0.0000E+00
    -14.569  0.0000E+00  0.0000E+00
    -14.502  0.0000E+00  0.0000E+00
    -14.435  0.0000E+00  0.0000E+00
    -14.368  0.9059E-10  0.6058E-11
    -14.302  0.9171E-05  0.6133E-06
    -14.235  0.2936E-01  0.1964E-02
    -14.168  0.3387E+01  0.2284E+00
    -14.101  0.1913E+02  0.1508E+01
    -14.034  0.7212E+01  0.1990E+01
    -13.967  0.1484E+00  0.2000E+01
    -13.900  0.1173E-03  0.2000E+01
    -13.833  0.3002E-08  0.2000E+01
    -13.767  0.0000E+00  0.2000E+01
    -13.700  0.0000E+00  0.2000E+01
    -13.633  0.0000E+00  0.2000E+01
    -13.566  0.0000E+00  0.2000E+01
    -13.499  0.0000E+00  0.2000E+01
    -13.432  0.0000E+00  0.2000E+01
    -13.365  0.0000E+00  0.2000E+01
    -13.299  0.0000E+00  0.2000E+01
    -13.232  0.0000E+00  0.2000E+01
    -13.165  0.0000E+00  0.2000E+01
    -13.098  0.0000E+00  0.2000E+01
    -13.031  0.0000E+00  0.2000E+01
    -12.964  0.0000E+00  0.2000E+01
    -12.897  0.0000E+00  0.2000E+01
    -12.830  0.0000E+00  0.2000E+01
    -12.764  0.0000E+00  0.2000E+01
    -12.697  0.0000E+00  0.2000E+01
    -12.630  0.0000E+00  0.2000E+01
    -12.563  0.0000E+00  0.2000E+01
    -12.496  0.0000E+00  0.2000E+01
    -12.429  0.0000E+00  0.2000E+01
    -12.362  0.0000E+00  0.2000E+01
    -12.296  0.0000E+00  0.2000E+01
    -12.229  0.0000E+00  0.2000E+01
    -12.162  0.0000E+00  0.2000E+01
    -12.095  0.0000E+00  0.2000E+01
    -12.028  0.0000E+00  0.2000E+01
    -11.961  0.0000E+00  0.2000E+01
    -11.894  0.0000E+00  0.2000E+01
    -11.827  0.0000E+00  0.2000E+01
    -11.761  0.0000E+00  0.2000E+01
    -11.694  0.0000E+00  0.2000E+01
    -11.627  0.0000E+00  0.2000E+01
    -11.560  0.0000E+00  0.2000E+01
    -11.493  0.0000E+00  0.2000E+01
    -11.426  0.0000E+00  0.2000E+01
    -11.359  0.0000E+00  0.2000E+01
    -11.293  0.0000E+00  0.2000E+01
    -11.226  0.0000E+00  0.2000E+01
    -11.159  0.0000E+00  0.2000E+01
    -11.092  0.0000E+00  0.2000E+01
    -11.025  0.0000E+00  0.2000E+01
    -10.958  0.0000E+00  0.2000E+01
    -10.891  0.0000E+00  0.2000E+01
    -10.824  0.0000E+00  0.2000E+01
    -10.758  0.0000E+00  0.2000E+01
    -10.691  0.0000E+00  0.2000E+01
    -10.624  0.0000E+00  0.2000E+01
    -10.557  0.0000E+00  0.2000E+01
    -10.490  0.0000E+00  0.2000E+01
    -10.423  0.0000E+00  0.2000E+01
    -10.356  0.0000E+00  0.2000E+01
    -10.289  0.0000E+00  0.2000E+01
    -10.223  0.0000E+00  0.2000E+01
    -10.156  0.0000E+00  0.2000E+01
    -10.089  0.0000E+00  0.2000E+01
    -10.022  0.0000E+00  0.2000E+01
     -9.955  0.0000E+00  0.2000E+01
     -9.888  0.0000E+00  0.2000E+01
     -9.821  0.0000E+00  0.2000E+01
     -9.755  0.0000E+00  0.2000E+01
     -9.688  0.0000E+00  0.2000E+01
     -9.621  0.0000E+00  0.2000E+01
     -9.554  0.0000E+00  0.2000E+01
     -9.487  0.0000E+00  0.2000E+01
     -9.420  0.4277E-11  0.2000E+01
     -9.353  0.6665E-06  0.2000E+01
     -9.286  0.3254E-02  0.2000E+01
     -9.220  0.5591E+00  0.2038E+01
     -9.153  0.4490E+01  0.2338E+01
     -9.086  0.4192E+01  0.2618E+01
     -9.019  0.2993E+02  0.4620E+01
     -8.952  0.3896E+02  0.7224E+01
     -8.885  0.4265E+01  0.7510E+01
     -8.818  0.3246E+01  0.7727E+01
     -8.752  0.4303E+01  0.8014E+01
     -8.685  0.2097E+02  0.9417E+01
     -8.618  0.5624E+02  0.1318E+02
     -8.551  0.1594E+02  0.1424E+02
     -8.484  0.2762E+02  0.1609E+02
     -8.417  0.1333E+02  0.1698E+02
     -8.350  0.7461E+01  0.1748E+02
     -8.283  0.2939E+02  0.1945E+02
     -8.217  0.9821E+01  0.2010E+02
     -8.150  0.2513E+02  0.2178E+02
     -8.083  0.2563E+02  0.2350E+02
     -8.016  0.4477E+02  0.2649E+02
     -7.949  0.7964E+02  0.3182E+02
     -7.882  0.1017E+02  0.3250E+02
     -7.815  0.6771E-01  0.3250E+02
     -7.749  0.1358E+01  0.3259E+02
     -7.682  0.4800E+02  0.3580E+02
     -7.615  0.1109E+03  0.4321E+02
     -7.548  0.2219E+02  0.4470E+02
     -7.481  0.2668E+02  0.4648E+02
     -7.414  0.1504E+02  0.4749E+02
     -7.347  0.1362E+02  0.4840E+02
     -7.280  0.3326E+02  0.5062E+02
     -7.214  0.1743E+02  0.5179E+02
     -7.147  0.5778E+02  0.5565E+02
     -7.080  0.2370E+02  0.5724E+02
     -7.013  0.7498E+02  0.6225E+02
     -6.946  0.9305E+02  0.6847E+02
     -6.879  0.1702E+02  0.6961E+02
     -6.812  0.5600E+02  0.7335E+02
     -6.746  0.2681E+02  0.7515E+02
     -6.679  0.6787E+02  0.7969E+02
     -6.612  0.9973E+02  0.8635E+02
     -6.545  0.2082E+02  0.8775E+02
     -6.478  0.2868E+02  0.8966E+02
     -6.411  0.4986E+01  0.9000E+02
     -6.344  0.7403E+00  0.9005E+02
     -6.277  0.5171E+01  0.9039E+02
     -6.211  0.3601E+02  0.9280E+02
     -6.144  0.1338E+03  0.1017E+03
     -6.077  0.6541E+02  0.1061E+03
     -6.010  0.1057E+03  0.1132E+03
     -5.943  0.6232E+02  0.1174E+03
     -5.876  0.1531E+02  0.1184E+03
     -5.809  0.4791E+02  0.1216E+03
     -5.743  0.4323E+02  0.1245E+03
     -5.676  0.1156E+03  0.1322E+03
     -5.609  0.8491E+02  0.1379E+03
     -5.542  0.2401E+02  0.1395E+03
     -5.475  0.2692E+02  0.1413E+03
     -5.408  0.1495E+02  0.1423E+03
     -5.341  0.8244E+02  0.1478E+03
     -5.274  0.4123E+02  0.1506E+03
     -5.208  0.4451E+02  0.1535E+03
     -5.141  0.9818E+02  0.1601E+03
     -5.074  0.6160E+02  0.1642E+03
     -5.007  0.9068E+02  0.1703E+03
     -4.940  0.2510E+02  0.1720E+03
     -4.873  0.1063E+02  0.1727E+03
     -4.806  0.5851E+02  0.1766E+03
     -4.739  0.7919E+02  0.1819E+03
     -4.673  0.1415E+03  0.1913E+03
     -4.606  0.3693E+02  0.1938E+03
     -4.539  0.6654E+02  0.1983E+03
     -4.472  0.4866E+02  0.2015E+03
     -4.405  0.2365E+02  0.2031E+03
     -4.338  0.7430E+02  0.2081E+03
     -4.271  0.6194E+02  0.2122E+03
     -4.205  0.1374E+03  0.2214E+03
     -4.138  0.1094E+03  0.2287E+03
     -4.071  0.8307E+02  0.2343E+03
     -4.004  0.5371E+02  0.2379E+03
     -3.937  0.2307E+02  0.2394E+03
     -3.870  0.9058E+02  0.2455E+03
     -3.803  0.6897E+02  0.2501E+03
     -3.736  0.8370E+02  0.2557E+03
     -3.670  0.8396E+02  0.2613E+03
     -3.603  0.4159E+02  0.2641E+03
     -3.536  0.7599E+02  0.2691E+03
     -3.469  0.3186E+02  0.2713E+03
     -3.402  0.4148E+01  0.2715E+03
     -3.335  0.2140E+02  0.2730E+03
     -3.268  0.7993E+02  0.2783E+03
     -3.202  0.9326E+02  0.2846E+03
     -3.135  0.8092E+02  0.2900E+03
     -3.068  0.1291E+03  0.2986E+03
     -3.001  0.7148E+02  0.3034E+03
     -2.934  0.1015E+03  0.3102E+03
     -2.867  0.1644E+03  0.3212E+03
     -2.800  0.1690E+03  0.3325E+03
     -2.733  0.1508E+03  0.3426E+03
     -2.667  0.1412E+02  0.3435E+03
     -2.600  0.1467E+00  0.3435E+03
     -2.533  0.6878E+01  0.3440E+03
     -2.466  0.4468E+02  0.3470E+03
     -2.399  0.8547E+02  0.3527E+03
     -2.332  0.1329E+03  0.3616E+03
     -2.265  0.1091E+03  0.3688E+03
     -2.199  0.4710E+02  0.3720E+03
     -2.132  0.1183E+03  0.3799E+03
     -2.065  0.5899E+02  0.3839E+03
     -1.998  0.4562E+02  0.3869E+03
     -1.931  0.9966E+02  0.3936E+03
     -1.864  0.1115E+03  0.4010E+03
     -1.797  0.1713E+03  0.4125E+03
     -1.730  0.7895E+02  0.4178E+03
     -1.664  0.3675E+02  0.4202E+03
     -1.597  0.7463E+02  0.4252E+03
     -1.530  0.8520E+02  0.4309E+03
     -1.463  0.4990E+02  0.4342E+03
     -1.396  0.1419E+03  0.4437E+03
     -1.329  0.1782E+03  0.4556E+03
     -1.262  0.7352E+02  0.4606E+03
     -1.196  0.1388E+03  0.4698E+03
     -1.129  0.8818E+02  0.4757E+03
     -1.062  0.8923E+02  0.4817E+03
     -0.995  0.7517E+02  0.4867E+03
     -0.928  0.8787E+02  0.4926E+03
     -0.861  0.1439E+03  0.5022E+03
     -0.794  0.8593E+02  0.5080E+03
     -0.727  0.7926E+02  0.5133E+03
     -0.661  0.4394E+02  0.5162E+03
     -0.594  0.3047E+02  0.5182E+03
     -0.527  0.1069E+03  0.5254E+03
     -0.460  0.2143E+03  0.5397E+03
     -0.393  0.1614E+03  0.5505E+03
     -0.326  0.6637E+02  0.5549E+03
     -0.259  0.1642E+03  0.5659E+03
     -0.193  0.7488E+02  0.5709E+03
     -0.126  0.4134E+02  0.5737E+03
     -0.059  0.2467E+02  0.5753E+03
      0.008  0.7641E+02  0.5805E+03
      0.075  0.1199E+03  0.5885E+03
      0.142  0.7110E+02  0.5932E+03
      0.209  0.1142E+03  0.6009E+03
      0.276  0.7181E+02  0.6057E+03
      0.342  0.6730E+02  0.6102E+03
      0.409  0.1050E+03  0.6172E+03
      0.476  0.1608E+03  0.6279E+03
      0.543  0.7583E+02  0.6330E+03
      0.610  0.6833E+02  0.6376E+03
      0.677  0.5475E+02  0.6412E+03
      0.744  0.3073E+02  0.6433E+03
      0.811  0.6445E+02  0.6476E+03
      0.877  0.9516E+02  0.6540E+03
      0.944  0.2587E+03  0.6713E+03
      1.011  0.2083E+03  0.6852E+03
      1.078  0.1185E+03  0.6931E+03
      1.145  0.8800E+02  0.6990E+03
      1.212  0.7411E+02  0.7040E+03
      1.279  0.6461E+02  0.7083E+03
      1.345  0.7884E+02  0.7136E+03
      1.412  0.8777E+02  0.7194E+03
      1.479  0.1150E+03  0.7271E+03
      1.546  0.1570E+03  0.7376E+03
      1.613  0.1874E+03  0.7502E+03
      1.680  0.1508E+03  0.7602E+03
      1.747  0.7659E+02  0.7654E+03
      1.814  0.2982E+02  0.7674E+03
      1.880  0.7436E+02  0.7723E+03
      1.947  0.1975E+03  0.7855E+03
      2.014  0.1376E+03  0.7947E+03
      2.081  0.8280E+02  0.8003E+03
      2.148  0.8039E+02  0.8056E+03
      2.215  0.8514E+02  0.8113E+03
      2.282  0.5489E+02  0.8150E+03
      2.348  0.7562E+02  0.8201E+03
      2.415  0.1256E+03  0.8285E+03
      2.482  0.7851E+02  0.8337E+03
      2.549  0.1219E+03  0.8419E+03
      2.616  0.1475E+03  0.8517E+03
      2.683  0.6914E+02  0.8563E+03
      2.750  0.7090E+02  0.8611E+03
      2.817  0.8406E+02  0.8667E+03
      2.883  0.2594E+03  0.8840E+03
      2.950  0.2945E+03  0.9037E+03
      3.017  0.1722E+03  0.9153E+03
      3.084  0.5699E+02  0.9191E+03
      3.151  0.4936E+02  0.9224E+03
      3.218  0.9058E+02  0.9284E+03
      3.285  0.1245E+03  0.9368E+03
      3.351  0.1335E+03  0.9457E+03
      3.418  0.1694E+03  0.9570E+03
      3.485  0.1020E+03  0.9638E+03
      3.552  0.6635E+02  0.9683E+03
      3.619  0.9501E+02  0.9746E+03
      3.686  0.1088E+03  0.9819E+03
      3.753  0.8078E+02  0.9873E+03
      3.820  0.6076E+02  0.9914E+03
      3.886  0.1352E+03  0.1000E+04
      3.953  0.1825E+03  0.1013E+04
      4.020  0.1547E+03  0.1023E+04
      4.087  0.9644E+02  0.1029E+04
      4.154  0.3588E+02  0.1032E+04
      4.221  0.3077E+01  0.1032E+04
      4.288  0.1890E-01  0.1032E+04
      4.354  0.4765E-05  0.1032E+04
      4.421  0.4046E-10  0.1032E+04
      4.488  0.0000E+00  0.1032E+04
      4.555  0.0000E+00  0.1032E+04
      4.622  0.0000E+00  0.1032E+04
      4.689  0.0000E+00  0.1032E+04
      4.756  0.0000E+00  0.1032E+04
      4.823  0.0000E+00  0.1032E+04
      4.889  0.0000E+00  0.1032E+04
      4.956  0.0000E+00  0.1032E+04
      5.023  0.0000E+00  0.1032E+04
