 vasp.5.4.4.18Apr17-6-g9f103f2a35 (build May 02 2017 15:33:50) complex          
  
 executed on Intel-16.0.3.210-OMP date 2018.08.08  23:36:01
 running on    6 total cores
 distrk:  each k-point on    6 cores,    1 groups
 distr:  one band on NCORES_PER_BAND=   1 cores,    6 groups


--------------------------------------------------------------------------------------------------------


 INCAR:
 POTCAR:    PAW Al_GW 19Mar2012                   
 POTCAR:    PAW_PBE N 08Apr2002                   

 ----------------------------------------------------------------------------- 
|                                                                             |
|           W    W    AA    RRRRR   N    N  II  N    N   GGGG   !!!           |
|           W    W   A  A   R    R  NN   N  II  NN   N  G    G  !!!           |
|           W    W  A    A  R    R  N N  N  II  N N  N  G       !!!           |
|           W WW W  AAAAAA  RRRRR   N  N N  II  N  N N  G  GGG   !            |
|           WW  WW  A    A  R   R   N   NN  II  N   NN  G    G                |
|           W    W  A    A  R    R  N    N  II  N    N   GGGG   !!!           |
|                                                                             |
|      For optimal performance we recommend to set                            |
|        NCORE= 4 - approx SQRT( number of cores)                             |
|      NCORE specifies how many cores store one orbital (NPAR=cpu/NCORE).     |
|      This setting can  greatly improve the performance of VASP for DFT.     |
|      The default,   NCORE=1            might be grossly inefficient         |
|      on modern multi-core architectures or massively parallel machines.     |
|      Do your own testing !!!!                                               |
|      Unfortunately you need to use the default for GW and RPA calculations. |
|      (for HF NCORE is supported but not extensively tested yet)             |
|                                                                             |
 ----------------------------------------------------------------------------- 

 POTCAR:    PAW Al_GW 19Mar2012                   
   VRHFIN =Al: s2p1                                                             
   LEXCH  = PE                                                                  
   EATOM  =    53.5387 eV,    3.9350 Ry                                         
                                                                                
   TITEL  = PAW Al_GW 19Mar2012                                                 
   LULTRA =        F    use ultrasoft PP ?                                      
   IUNSCR =        1    unscreen: 0-lin 1-nonlin 2-no                           
   RPACOR =    1.500    partial core radius                                     
   POMASS =   26.982; ZVAL   =    3.000    mass and valenz                      
   RCORE  =    2.000    outmost cutoff radius                                   
   RWIGS  =    2.000; RWIGS  =    1.058    wigner-seitz radius (au A)           
   ENMAX  =  240.300; ENMIN  =  180.225 eV                                      
   ICORE  =        3    local potential                                         
   LCOR   =        T    correct aug charges                                     
   LPAW   =        T    paw PP                                                  
   EAUG   =  482.059                                                            
   DEXC   =    0.000                                                            
   RMAX   =    2.051    core radius for proj-oper                               
   RAUG   =    1.300    factor for augmentation sphere                          
   RDEP   =    2.096    radius for radial grids                                 
   RDEPT  =    1.856    core radius for aug-charge                              
                                                                                
   Atomic configuration                                                         
    7 entries                                                                   
     n  l   j            E        occ.                                          
     1  0  0.50     -1511.1048   2.0000                                         
     2  0  0.50      -108.1629   2.0000                                         
     2  1  1.50       -69.6402   6.0000                                         
     3  0  0.50        -7.7528   2.0000                                         
     3  1  1.50        -2.7121   1.0000                                         
     3  2  2.50        -2.7212   0.0000                                         
     4  3  2.50        -2.7212   0.0000                                         
   Description                                                                  
     l       E           TYP  RCUT    TYP  RCUT                                 
     0     -7.7528455     23  1.900                                             
     0     68.0291300     23  1.900                                             
     1     -2.7120682     23  1.900                                             
     1     68.0291300     23  1.900                                             
     2     -1.3605826     23  1.900                                             
     2     81.6349560     23  1.900                                             
     3     74.8320430     23  2.000                                             
  local pseudopotential read in
  partial core-charges read in
  partial kinetic energy density read in
  kinetic energy density of atom read in
  atomic valenz-charges read in
  non local Contribution for L=           0  read in
    real space projection operators read in
  non local Contribution for L=           0  read in
    real space projection operators read in
  non local Contribution for L=           1  read in
    real space projection operators read in
  non local Contribution for L=           1  read in
    real space projection operators read in
  non local Contribution for L=           2  read in
    real space projection operators read in
  non local Contribution for L=           2  read in
    real space projection operators read in
    PAW grid and wavefunctions read in
 
   number of l-projection  operators is LMAX  =           6
   number of lm-projection operators is LMMAX =          18
 
 POTCAR:    PAW_PBE N 08Apr2002                   
   VRHFIN =N: s2p3                                                              
   LEXCH  = PE                                                                  
   EATOM  =   264.5486 eV,   19.4438 Ry                                         
                                                                                
   TITEL  = PAW_PBE N 08Apr2002                                                 
   LULTRA =        F    use ultrasoft PP ?                                      
   IUNSCR =        1    unscreen: 0-lin 1-nonlin 2-no                           
   RPACOR =    1.200    partial core radius                                     
   POMASS =   14.001; ZVAL   =    5.000    mass and valenz                      
   RCORE  =    1.500    outmost cutoff radius                                   
   RWIGS  =    1.400; RWIGS  =    0.741    wigner-seitz radius (au A)           
   ENMAX  =  400.000; ENMIN  =  300.000 eV                                      
   ICORE  =        2    local potential                                         
   LCOR   =        T    correct aug charges                                     
   LPAW   =        T    paw PP                                                  
   EAUG   =  627.112                                                            
   DEXC   =    0.000                                                            
   RMAX   =    1.529    core radius for proj-oper                               
   RAUG   =    1.300    factor for augmentation sphere                          
   RDEP   =    1.514    radius for radial grids                                 
   RDEPT  =    1.338    core radius for aug-charge                              
                                                                                
   Atomic configuration                                                         
    4 entries                                                                   
     n  l   j            E        occ.                                          
     1  0  0.50      -384.7179   2.0000                                         
     2  0  0.50       -18.5828   2.0000                                         
     2  1  0.50        -7.0898   3.0000                                         
     3  2  1.50        -6.8029   0.0000                                         
   Description                                                                  
     l       E           TYP  RCUT    TYP  RCUT                                 
     0    -18.5828119     23  1.200                                             
     0    -13.5018863     23  1.200                                             
     1     -7.0897853     23  1.500                                             
     1      9.5240782     23  1.500                                             
     2     -6.8029130      7  1.500                                             
  local pseudopotential read in
  partial core-charges read in
  partial kinetic energy density read in
  atomic valenz-charges read in
  non local Contribution for L=           0  read in
    real space projection operators read in
  non local Contribution for L=           0  read in
    real space projection operators read in
  non local Contribution for L=           1  read in
    real space projection operators read in
  non local Contribution for L=           1  read in
    real space projection operators read in
    PAW grid and wavefunctions read in
 
   number of l-projection  operators is LMAX  =           4
   number of lm-projection operators is LMMAX =           8
 
 Optimization of the real space projectors (new method)

 maximal supplied QI-value         = 18.90
 optimisation between [QCUT,QGAM] = [  8.69, 17.57] = [ 21.16, 86.49] Ry 
 Optimized for a Real-space Cutoff    1.59 Angstroem

   l    n(q)    QCUT    max X(q) W(low)/X(q) W(high)/X(q)  e(spline) 
   0      8     8.693    11.519    0.12E-03    0.31E-04    0.21E-06
   0      8     8.693     5.834    0.89E-04    0.32E-04    0.16E-06
   1      8     8.693    10.132    0.25E-03    0.39E-03    0.25E-06
   1      8     8.693     3.004    0.16E-03    0.27E-03    0.22E-06
   2      7     8.693     3.169    0.39E-03    0.93E-03    0.44E-06
   2      7     8.693     1.605    0.70E-04    0.91E-04    0.19E-06
 Optimization of the real space projectors (new method)

 maximal supplied QI-value         = 25.13
 optimisation between [QCUT,QGAM] = [  8.80, 17.59] = [ 21.67, 86.68] Ry 
 Optimized for a Real-space Cutoff    2.14 Angstroem

   l    n(q)    QCUT    max X(q) W(low)/X(q) W(high)/X(q)  e(spline) 
   0     11     8.797    79.467    0.70E-04    0.19E-04    0.19E-05
   0     11     8.797    66.151    0.68E-04    0.18E-04    0.19E-05
   1     11     8.797     6.738    0.26E-03    0.11E-02    0.73E-05
   1     11     8.797     5.013    0.25E-03    0.11E-02    0.72E-05
  PAW Al_GW 19Mar2012                   :
 energy of atom  1       EATOM=  -53.5387
 kinetic energy error for atom=    0.0011 (will be added to EATOM!!)
  PAW_PBE N 08Apr2002                   :
 energy of atom  2       EATOM= -264.5486
 kinetic energy error for atom=    0.6882 (will be added to EATOM!!)
 
 
 POSCAR: New structure                           
  positions in cartesian coordinates
  No initial velocities read in
 exchange correlation table for  LEXCH =        8
   RHO(1)=    0.500       N(1)  =     2000
   RHO(2)=  100.500       N(2)  =     4000
 


--------------------------------------------------------------------------------------------------------


 ion  position               nearest neighbor table
   1  0.444  0.444  0.079-
   2  0.444  0.778  0.079-
   3  0.444  0.111  0.079-
   4  0.778  0.444  0.079-
   5  0.778  0.778  0.079-
   6  0.778  0.111  0.079-
   7  0.111  0.444  0.079-
   8  0.111  0.778  0.079-
   9  0.111  0.111  0.079-
  10  0.556  0.556  0.157-
  11  0.556  0.889  0.157-
  12  0.556  0.222  0.157-
  13  0.889  0.556  0.157-
  14  0.889  0.889  0.157-
  15  0.889  0.222  0.157-
  16  0.222  0.556  0.157-
  17  0.222  0.889  0.157-
  18  0.222  0.222  0.157-
  19  0.667  0.667  0.234-
  20  0.667  0.000  0.234-
  21  0.667  0.333  0.234-
  22  0.000  0.667  0.234-
  23  0.000  0.000  0.234-
  24  0.000  0.333  0.234-
  25  0.333  0.667  0.234-
  26  0.333  0.000  0.234-
  27  0.333  0.333  0.234-
  28  0.778  0.778  0.312-
  29  0.778  0.111  0.312-
  30  0.778  0.444  0.312-
  31  0.111  0.778  0.312-
  32  0.111  0.111  0.312-
  33  0.111  0.444  0.312-
  34  0.444  0.778  0.312-
  35  0.444  0.111  0.312-
  36  0.444  0.444  0.312-
  37  0.889  0.889  0.390-
  38  0.889  0.222  0.390-
  39  0.889  0.556  0.390-
  40  0.222  0.889  0.390-
  41  0.222  0.222  0.390-
  42  0.222  0.556  0.390-
  43  0.556  0.889  0.390-
  44  0.556  0.222  0.390-
  45  0.556  0.556  0.390-
  46  0.000  0.000  0.466-
  47  0.000  0.333  0.466-
  48  0.000  0.667  0.466-
  49  0.333  0.000  0.466-
  50  0.333  0.333  0.466-
  51  0.333  0.667  0.466-
  52  0.667  0.000  0.466-
  53  0.667  0.333  0.466-
  54  0.667  0.667  0.466-
  55  0.111  0.111  0.545-
  56  0.111  0.444  0.545-
  57  0.111  0.778  0.545-
  58  0.444  0.111  0.545-
  59  0.444  0.444  0.545-
  60  0.444  0.778  0.545-
  61  0.778  0.111  0.545-
  62  0.778  0.444  0.545-
  63  0.778  0.778  0.545-
  64  0.278  0.278  0.079-
  65  0.278  0.611  0.079-
  66  0.278  0.944  0.079-
  67  0.611  0.278  0.079-
  68  0.611  0.611  0.079-
  69  0.611  0.944  0.079-
  70  0.944  0.278  0.079-
  71  0.944  0.611  0.079-
  72  0.944  0.944  0.079-
  73  0.389  0.389  0.157-
  74  0.389  0.722  0.157-
  75  0.389  0.056  0.157-
  76  0.722  0.389  0.157-
  77  0.722  0.722  0.157-
  78  0.722  0.056  0.157-
  79  0.056  0.389  0.157-
  80  0.056  0.722  0.157-
  81  0.056  0.056  0.157-
  82  0.500  0.500  0.234-
  83  0.500  0.833  0.234-
  84  0.500  0.167  0.234-
  85  0.833  0.500  0.234-
  86  0.833  0.833  0.234-
  87  0.833  0.167  0.234-
  88  0.167  0.500  0.234-
  89  0.167  0.833  0.234-
  90  0.167  0.167  0.234-
  91  0.611  0.611  0.312-
  92  0.611  0.944  0.312-
  93  0.611  0.278  0.312-
  94  0.944  0.611  0.312-
  95  0.944  0.944  0.312-
  96  0.944  0.278  0.312-
  97  0.278  0.611  0.312-
  98  0.278  0.944  0.312-
  99  0.278  0.278  0.312-
 100  0.722  0.722  0.390-
 101  0.722  0.056  0.390-
 102  0.722  0.389  0.390-
 103  0.056  0.722  0.390-
 104  0.056  0.056  0.390-
 105  0.056  0.389  0.390-
 106  0.389  0.722  0.390-
 107  0.389  0.056  0.390-
 108  0.389  0.389  0.390-
 109  0.833  0.833  0.466-
 110  0.833  0.167  0.466-
 111  0.833  0.500  0.466-
 112  0.167  0.833  0.466-
 113  0.167  0.167  0.466-
 114  0.167  0.500  0.466-
 115  0.500  0.833  0.466-
 116  0.500  0.167  0.466-
 117  0.500  0.500  0.466-
 118  0.944  0.944  0.545-
 119  0.944  0.278  0.545-
 120  0.944  0.611  0.545-
 121  0.278  0.944  0.545-
 122  0.278  0.278  0.545-
 123  0.278  0.611  0.545-
 124  0.611  0.944  0.545-
 125  0.611  0.278  0.545-
 126  0.611  0.611  0.545-
 127  0.278  0.444  0.079-
 128  0.278  0.778  0.079-
 129  0.278  0.111  0.079-
 130  0.611  0.444  0.079-
 131  0.611  0.778  0.079-
 132  0.611  0.111  0.079-
 133  0.944  0.444  0.079-
 134  0.944  0.778  0.079-
 135  0.944  0.111  0.079-
 136  0.389  0.556  0.157-
 137  0.389  0.889  0.157-
 138  0.389  0.222  0.157-
 139  0.722  0.556  0.157-
 140  0.722  0.889  0.157-
 141  0.722  0.222  0.157-
 142  0.056  0.556  0.157-
 143  0.056  0.889  0.157-
 144  0.056  0.222  0.157-
 145  0.500  0.667  0.234-
 146  0.500  0.000  0.234-
 147  0.500  0.333  0.234-
 148  0.833  0.667  0.234-
 149  0.833  0.000  0.234-
 150  0.833  0.333  0.234-
 151  0.167  0.667  0.234-
 152  0.167  0.000  0.234-
 153  0.167  0.333  0.234-
 154  0.611  0.778  0.312-
 155  0.611  0.111  0.312-
 156  0.611  0.444  0.312-
 157  0.944  0.778  0.312-
 158  0.944  0.111  0.312-
 159  0.944  0.444  0.312-
 160  0.278  0.778  0.312-
 161  0.278  0.111  0.312-
 162  0.278  0.444  0.312-
 163  0.722  0.889  0.390-
 164  0.722  0.222  0.390-
 165  0.722  0.556  0.390-
 166  0.056  0.889  0.390-
 167  0.056  0.222  0.390-
 168  0.056  0.556  0.390-
 169  0.389  0.889  0.390-
 170  0.389  0.222  0.390-
 171  0.389  0.556  0.390-
 172  0.833  0.000  0.466-
 173  0.833  0.333  0.466-
 174  0.833  0.667  0.466-
 175  0.167  0.000  0.466-
 176  0.167  0.333  0.466-
 177  0.167  0.667  0.466-
 178  0.500  0.000  0.466-
 179  0.500  0.333  0.466-
 180  0.500  0.667  0.466-
 181  0.944  0.111  0.545-
 182  0.944  0.444  0.545-
 183  0.944  0.778  0.545-
 184  0.278  0.111  0.545-
 185  0.278  0.444  0.545-
 186  0.278  0.778  0.545-
 187  0.611  0.111  0.545-
 188  0.611  0.444  0.545-
 189  0.611  0.778  0.545-
 190  0.444  0.278  0.079-
 191  0.444  0.611  0.079-
 192  0.444  0.944  0.079-
 193  0.778  0.278  0.079-
 194  0.778  0.611  0.079-
 195  0.778  0.944  0.079-
 196  0.111  0.278  0.079-
 197  0.111  0.611  0.079-
 198  0.111  0.944  0.079-
 199  0.556  0.389  0.157-
 200  0.556  0.722  0.157-
 201  0.556  0.056  0.157-
 202  0.889  0.389  0.157-
 203  0.889  0.722  0.157-
 204  0.889  0.056  0.157-
 205  0.222  0.389  0.157-
 206  0.222  0.722  0.157-
 207  0.222  0.056  0.157-
 208  0.667  0.500  0.234-
 209  0.667  0.833  0.234-
 210  0.667  0.167  0.234-
 211  1.000  0.500  0.234-
 212  1.000  0.833  0.234-
 213  1.000  0.167  0.234-
 214  0.333  0.500  0.234-
 215  0.333  0.833  0.234-
 216  0.333  0.167  0.234-
 217  0.778  0.611  0.312-
 218  0.778  0.944  0.312-
 219  0.778  0.278  0.312-
 220  0.111  0.611  0.312-
 221  0.111  0.944  0.312-
 222  0.111  0.278  0.312-
 223  0.444  0.611  0.312-
 224  0.444  0.944  0.312-
 225  0.444  0.278  0.312-
 226  0.889  0.722  0.390-
 227  0.889  0.056  0.390-
 228  0.889  0.389  0.390-
 229  0.222  0.722  0.390-
 230  0.222  0.056  0.390-
 231  0.222  0.389  0.390-
 232  0.556  0.722  0.390-
 233  0.556  0.056  0.390-
 234  0.556  0.389  0.390-
 235  1.000  0.833  0.466-
 236  1.000  0.167  0.466-
 237  1.000  0.500  0.466-
 238  0.333  0.833  0.466-
 239  0.333  0.167  0.466-
 240  0.333  0.500  0.466-
 241  0.667  0.833  0.466-
 242  0.667  0.167  0.466-
 243  0.667  0.500  0.466-
 244  0.111  0.944  0.545-
 245  0.111  0.278  0.545-
 246  0.111  0.611  0.545-
 247  0.444  0.944  0.545-
 248  0.444  0.278  0.545-
 249  0.444  0.611  0.545-
 250  0.778  0.944  0.545-
 251  0.778  0.278  0.545-
 252  0.778  0.611  0.545-
 253  0.333  0.500  0.635- 254 1.65
 254  0.389  0.389  0.635- 253 1.65
 
  LATTYP: Found a hexagonal cell.
 ALAT       =    17.1805734625
 C/A-ratio  =     1.7461582447
  
  Lattice vectors:
  
 A1 = (   0.0000000000,  -8.5902867312,  14.8788130701)
 A2 = (   0.0000000000,  17.1805734625,   0.0000000000)
 A3 = ( -30.0000000000,   0.0000000000,   0.0000000000)


Analysis of symmetry for initial positions (statically):
=====================================================================
 Subroutine PRICEL returns:
 Original cell was already a primitive cell.
 

 Routine SETGRP: Setting up the symmetry group for a 
 hexagonal supercell.


 Subroutine GETGRP returns: Found  2 space group operations
 (whereof  1 operations were pure point group operations)
 out of a pool of 24 trial point group operations.


The static configuration has the point symmetry C_1 .
 The point group associated with its full space group is C_1h.


Analysis of symmetry for dynamics (positions and initial velocities):
=====================================================================
 Subroutine PRICEL returns:
 Original cell was already a primitive cell.
 

 Routine SETGRP: Setting up the symmetry group for a 
 hexagonal supercell.


 Subroutine GETGRP returns: Found  2 space group operations
 (whereof  1 operations were pure point group operations)
 out of a pool of 24 trial point group operations.


The dynamic configuration has the point symmetry C_1 .
 The point group associated with its full space group is C_1h.


 Subroutine INISYM returns: Found  2 space group operations
 (whereof  1 operations are pure point group operations),
 and found     1 'primitive' translations

 
 
 KPOINTS: Automatic generation                    

Automatic generation of k-mesh.
Space group operators:
 irot       det(A)        alpha          n_x          n_y          n_z        tau_x        tau_y        tau_z
    1     1.000000     0.000000     1.000000     0.000000     0.000000     0.000000     0.000000     0.000000
    2    -1.000000   180.000000     0.000000     1.000000     0.000000    -0.833333     0.000000     0.000000
 
 Subroutine IBZKPT returns following result:
 ===========================================
 
 Found      3 irreducible k-points:
 
 Following reciprocal coordinates:
            Coordinates               Weight
  0.000000  0.000000  0.000000      1.000000
  0.500000  0.000000  0.000000      2.000000
  0.000000  0.500000  0.000000      1.000000
 
 Following cartesian coordinates:
            Coordinates               Weight
  0.000000  0.000000  0.000000      1.000000
  0.000000 -0.029103  0.016802      2.000000
  0.000000  0.000000 -0.033605      1.000000
 


--------------------------------------------------------------------------------------------------------




 Dimension of arrays:
   k-points           NKPTS =      3   k-points in BZ     NKDIM =      3   number of bands    NBANDS=    516
   number of dos      NEDOS =    301   number of ions     NIONS =    254
   non local maximal  LDIM  =      6   non local SUM 2l+1 LMDIM =     18
   total plane-waves  NPLWV = 819200
   max r-space proj   IRMAX =   4449   max aug-charges    IRDMAX=   4357
   dimension x,y,z NGX =    80 NGY =   80 NGZ =  128
   dimension x,y,z NGXF=   160 NGYF=  160 NGZF=  256
   support grid    NGXF=   160 NGYF=  160 NGZF=  256
   ions per type =             252   2
   NGX,Y,Z   is equivalent  to a cutoff of   7.74,  7.74,  7.09 a.u.
   NGXF,Y,Z  is equivalent  to a cutoff of  15.48, 15.48, 14.19 a.u.

 SYSTEM =  NiAl                                    
 POSCAR =  New structure                           

 Startparameter for this run:
   NWRITE =      2    write-flag & timer
   PREC   = normal    normal or accurate (medium, high low for compatibility)
   ISTART =      0    job   : 0-new  1-cont  2-samecut
   ICHARG =      2    charge: 1-file 2-atom 10-const
   ISPIN  =      1    spin polarized calculation?
   LNONCOLLINEAR =      F non collinear calculations
   LSORBIT =      F    spin-orbit coupling
   INIWAV =      1    electr: 0-lowe 1-rand  2-diag
   LASPH  =      F    aspherical Exc in radial PAW
   METAGGA=      F    non-selfconsistent MetaGGA calc.

 Electronic Relaxation 1
   ENCUT  =  300.0 eV  22.05 Ry    4.70 a.u.  24.26 24.26 42.37*2*pi/ulx,y,z
   ENINI  =  300.0     initial cutoff
   ENAUG  =  627.1 eV  augmentation charge cutoff
   NELM   =     60;   NELMIN=  6; NELMDL= -5     # of ELM steps 
   EDIFF  = 0.5E-05   stopping-criterion for ELM
   LREAL  =      T    real-space projection
   NLSPLINE    = F    spline interpolate recip. space projectors
   LCOMPAT=      F    compatible to vasp.4.4
   GGA_COMPAT  = T    GGA compatible to vasp.4.4-vasp.4.6
   LMAXPAW     = -100 max onsite density
   LMAXMIX     =    2 max onsite mixed and CHGCAR
   VOSKOWN=      0    Vosko Wilk Nusair interpolation
   ROPT   =   -0.00050  -0.00050
 Ionic relaxation
   EDIFFG = 0.5E-04   stopping-criterion for IOM
   NSW    =      0    number of steps for IOM
   NBLOCK =      1;   KBLOCK =      1    inner block; outer block 
   IBRION =     -1    ionic relax: 0-MD 1-quasi-New 2-CG
   NFREE  =      0    steps in history (QN), initial steepest desc. (CG)
   ISIF   =      0    stress and relaxation
   IWAVPR =     10    prediction:  0-non 1-charg 2-wave 3-comb
   ISYM   =      2    0-nonsym 1-usesym 2-fastsym
   LCORR  =      T    Harris-Foulkes like correction to forces

   POTIM  = 0.5000    time-step for ionic-motion
   TEIN   =    0.0    initial temperature
   TEBEG  =    0.0;   TEEND  =   0.0 temperature during run
   SMASS  =  -3.00    Nose mass-parameter (am)
   estimated Nose-frequenzy (Omega)   =  0.10E-29 period in steps =****** mass=  -0.675E-26a.u.
   SCALEE = 1.0000    scale energy and forces
   NPACO  =    256;   APACO  = 16.0  distance and # of slots for P.C.
   PSTRESS=    0.0 pullay stress

  Mass of Ions in am
   POMASS =  26.98 14.00
  Ionic Valenz
   ZVAL   =   3.00  5.00
  Atomic Wigner-Seitz radii
   RWIGS  =  -1.00 -1.00
  virtual crystal weights 
   VCA    =   1.00  1.00
   NELECT =     766.0000    total number of electrons
   NUPDOWN=      -1.0000    fix difference up-down

 DOS related values:
   EMIN   =  10.00;   EMAX   =-10.00  energy-range for DOS
   EFERMI =   0.00
   ISMEAR =     0;   SIGMA  =   0.05  broadening in eV -4-tet -1-fermi 0-gaus

 Electronic relaxation 2 (details)
   IALGO  =     38    algorithm
   LDIAG  =      T    sub-space diagonalisation (order eigenvalues)
   LSUBROT=      F    optimize rotation matrix (better conditioning)
   TURBO    =      0    0=normal 1=particle mesh
   IRESTART =      0    0=no restart 2=restart with 2 vectors
   NREBOOT  =      0    no. of reboots
   NMIN     =      0    reboot dimension
   EREF     =   0.00    reference energy to select bands
   IMIX   =      4    mixing-type and parameters
     AMIX     =   0.40;   BMIX     =  1.00
     AMIX_MAG =   1.60;   BMIX_MAG =  1.00
     AMIN     =   0.10
     WC   =   100.;   INIMIX=   1;  MIXPRE=   1;  MAXMIX= -45

 Intra band minimization:
   WEIMIN = 0.0000     energy-eigenvalue tresh-hold
   EBREAK =  0.24E-08  absolut break condition
   DEPER  =   0.30     relativ break condition  

   TIME   =   0.40     timestep for ELM

  volume/ion in A,a.u.               =      30.19       203.75
  Fermi-wavevector in a.u.,A,eV,Ry     =   0.759583  1.435404  7.850108  0.576967
  Thomas-Fermi vector in A             =   1.858410
 
 Write flags
   LWAVE        =      F    write WAVECAR
   LDOWNSAMPLE  =      F    k-point downsampling of WAVECAR
   LCHARG       =      F    write CHGCAR
   LVTOT        =      F    write LOCPOT, total local potential
   LVHAR        =      F    write LOCPOT, Hartree potential only
   LELF         =      F    write electronic localiz. function (ELF)
   LORBIT       =      0    0 simple, 1 ext, 2 COOP (PROOUT), +10 PAW based schemes


 Dipole corrections
   LMONO  =      F    monopole corrections only (constant potential shift)
   LDIPOL =      F    correct potential (dipole corrections)
   IDIPOL =      0    1-x, 2-y, 3-z, 4-all directions 
   EPSILON=  1.0000000 bulk dielectric constant

 Exchange correlation treatment:
   GGA     =    --    GGA type
   LEXCH   =     8    internal setting for exchange type
   VOSKOWN=      0    Vosko Wilk Nusair interpolation
   LHFCALC =     F    Hartree Fock is set to
   LHFONE  =     F    Hartree Fock one center treatment
   AEXX    =    0.0000 exact exchange contribution

 Linear response parameters
   LEPSILON=     F    determine dielectric tensor
   LRPA    =     F    only Hartree local field effects (RPA)
   LNABLA  =     F    use nabla operator in PAW spheres
   LVEL    =     F    velocity operator in full k-point grid
   LINTERFAST=   F  fast interpolation
   KINTER  =     0    interpolate to denser k-point grid
   CSHIFT  =0.1000    complex shift for real part using Kramers Kronig
   OMEGAMAX=  -1.0    maximum frequency
   DEG_THRESHOLD= 0.2000000E-02 threshold for treating states as degnerate
   RTIME   =   -0.100 relaxation time in fs
  (WPLASMAI=    0.000 imaginary part of plasma frequency in eV, 0.658/RTIME)
   DFIELD  = 0.0000000 0.0000000 0.0000000 field for delta impulse in time
 
 Orbital magnetization related:
   ORBITALMAG=     F  switch on orbital magnetization
   LCHIMAG   =     F  perturbation theory with respect to B field
   DQ        =  0.001000  dq finite difference perturbation B field
   LLRAUG    =     F  two centre corrections for induced B field



--------------------------------------------------------------------------------------------------------


 Static calculation
 charge density and potential will be updated during run
 non-spin polarized calculation
 Variant of blocked Davidson
 Davidson routine will perform the subspace rotation
 perform sub-space diagonalisation
    after iterative eigenvector-optimisation
 modified Broyden-mixing scheme, WC =      100.0
 initial mixing is a Kerker type mixing with AMIX =  0.4000 and BMIX =      1.0000
 Hartree-type preconditioning will be used
 using additional bands          133
 real space projection scheme for non local part
 use partial core corrections
 calculate Harris-corrections to forces 
   (improved forces if not selfconsistent)
 use gradient corrections 
 use of overlap-Matrix (Vanderbilt PP)
 Gauss-broadening in eV      SIGMA  =   0.05


--------------------------------------------------------------------------------------------------------


  energy-cutoff  :      300.00
  volume of cell :     7668.80
      direct lattice vectors                 reciprocal lattice vectors
     0.000000000-17.180573462  0.000000000     0.000000000 -0.058205275  0.033604831
     0.000000000 -8.590286731-14.878813070     0.000000000  0.000000000 -0.067209662
    30.000000000  0.000000000  0.000000000     0.033333333  0.000000000  0.000000000

  length of vectors
    17.180573462 17.180573462 30.000000000     0.067209662  0.067209662  0.033333333


 
 k-points in units of 2pi/SCALE and weight: Automatic generation                    
   0.00000000  0.00000000  0.00000000       0.250
   0.00000000 -0.02910264  0.01680242       0.500
   0.00000000  0.00000000 -0.03360483       0.250
 
 k-points in reciprocal lattice and weights: Automatic generation                    
   0.00000000  0.00000000  0.00000000       0.250
   0.50000000  0.00000000  0.00000000       0.500
   0.00000000  0.50000000  0.00000000       0.250
 
 position of ions in fractional coordinates (direct lattice) 
   0.44444456  0.44444473  0.07873467
   0.44444419  0.77777777  0.07873467
   0.44444468  0.11111101  0.07873467
   0.77777744  0.44444473  0.07873467
   0.77777765  0.77777777  0.07873467
   0.77777756  0.11111101  0.07873467
   0.11111110  0.44444473  0.07873467
   0.11111131  0.77777777  0.07873467
   0.11111122  0.11111101  0.07873467
   0.55555520  0.55555574  0.15702600
   0.55555541  0.88888878  0.15702600
   0.55555591  0.22222203  0.15702600
   0.88888866  0.55555574  0.15702600
   0.88888887  0.88888878  0.15702600
   0.88888878  0.22222203  0.15702600
   0.22222232  0.55555574  0.15702600
   0.22222253  0.88888878  0.15702600
   0.22222245  0.22222203  0.15702600
   0.66666642  0.66666675  0.23375733
   0.66666692  0.00000000  0.23375733
   0.66666655  0.33333304  0.23375733
   0.00000008  0.66666675  0.23375733
   0.00000000  0.00000000  0.23375733
   0.00000021  0.33333304  0.23375733
   0.33333354  0.66666675  0.23375733
   0.33333346  0.00000000  0.23375733
   0.33333367  0.33333304  0.23375733
   0.77777765  0.77777777  0.31173067
   0.77777756  0.11111101  0.31173067
   0.77777744  0.44444473  0.31173067
   0.11111131  0.77777777  0.31173067
   0.11111122  0.11111101  0.31173067
   0.11111110  0.44444473  0.31173067
   0.44444419  0.77777777  0.31173067
   0.44444468  0.11111101  0.31173067
   0.44444456  0.44444473  0.31173067
   0.88888887  0.88888878  0.38970400
   0.88888878  0.22222203  0.38970400
   0.88888866  0.55555574  0.38970400
   0.22222253  0.88888878  0.38970400
   0.22222245  0.22222203  0.38970400
   0.22222232  0.55555574  0.38970400
   0.55555541  0.88888878  0.38970400
   0.55555591  0.22222203  0.38970400
   0.55555520  0.55555574  0.38970400
   0.00000000  0.00000000  0.46643533
   0.00000021  0.33333304  0.46643533
   0.00000008  0.66666675  0.46643533
   0.33333346  0.00000000  0.46643533
   0.33333367  0.33333304  0.46643533
   0.33333354  0.66666675  0.46643533
   0.66666692  0.00000000  0.46643533
   0.66666655  0.33333304  0.46643533
   0.66666642  0.66666675  0.46643533
   0.11111122  0.11111101  0.54472667
   0.11111110  0.44444473  0.54472667
   0.11111131  0.77777777  0.54472667
   0.44444468  0.11111101  0.54472667
   0.44444456  0.44444473  0.54472667
   0.44444419  0.77777777  0.54472667
   0.77777756  0.11111101  0.54472667
   0.77777744  0.44444473  0.54472667
   0.77777765  0.77777777  0.54472667
   0.27777777  0.27777753  0.07873467
   0.27777764  0.61111125  0.07873467
   0.27777785  0.94444429  0.07873467
   0.61111123  0.27777753  0.07873467
   0.61111110  0.61111125  0.07873467
   0.61111131  0.94444429  0.07873467
   0.94444469  0.27777753  0.07873467
   0.94444456  0.61111125  0.07873467
   0.94444477  0.94444429  0.07873467
   0.38888865  0.38888922  0.15702600
   0.38888886  0.72222226  0.15702600
   0.38888878  0.05555551  0.15702600
   0.72222211  0.38888922  0.15702600
   0.72222232  0.72222226  0.15702600
   0.72222224  0.05555551  0.15702600
   0.05555519  0.38888922  0.15702600
   0.05555540  0.72222226  0.15702600
   0.05555532  0.05555551  0.15702600
   0.49999988  0.50000023  0.23375733
   0.50000009  0.83333327  0.23375733
   0.50000000  0.16666652  0.23375733
   0.83333334  0.50000023  0.23375733
   0.83333355  0.83333327  0.23375733
   0.83333346  0.16666652  0.23375733
   0.16666642  0.50000023  0.23375733
   0.16666663  0.83333327  0.23375733
   0.16666654  0.16666652  0.23375733
   0.61111110  0.61111125  0.31173067
   0.61111131  0.94444429  0.31173067
   0.61111123  0.27777753  0.31173067
   0.94444456  0.61111125  0.31173067
   0.94444477  0.94444429  0.31173067
   0.94444469  0.27777753  0.31173067
   0.27777764  0.61111125  0.31173067
   0.27777785  0.94444429  0.31173067
   0.27777777  0.27777753  0.31173067
   0.72222232  0.72222226  0.38970400
   0.72222224  0.05555551  0.38970400
   0.72222211  0.38888922  0.38970400
   0.05555540  0.72222226  0.38970400
   0.05555532  0.05555551  0.38970400
   0.05555519  0.38888922  0.38970400
   0.38888886  0.72222226  0.38970400
   0.38888878  0.05555551  0.38970400
   0.38888865  0.38888922  0.38970400
   0.83333355  0.83333327  0.46643533
   0.83333346  0.16666652  0.46643533
   0.83333334  0.50000023  0.46643533
   0.16666663  0.83333327  0.46643533
   0.16666654  0.16666652  0.46643533
   0.16666642  0.50000023  0.46643533
   0.50000009  0.83333327  0.46643533
   0.50000000  0.16666652  0.46643533
   0.49999988  0.50000023  0.46643533
   0.94444477  0.94444429  0.54472667
   0.94444469  0.27777753  0.54472667
   0.94444456  0.61111125  0.54472667
   0.27777785  0.94444429  0.54472667
   0.27777777  0.27777753  0.54472667
   0.27777764  0.61111125  0.54472667
   0.61111131  0.94444429  0.54472667
   0.61111123  0.27777753  0.54472667
   0.61111110  0.61111125  0.54472667
   0.27777783  0.44444473  0.07873467
   0.27777804  0.77777777  0.07873467
   0.27777795  0.11111101  0.07873467
   0.61111071  0.44444473  0.07873467
   0.61111092  0.77777777  0.07873467
   0.61111141  0.11111101  0.07873467
   0.94444417  0.44444473  0.07873467
   0.94444438  0.77777777  0.07873467
   0.94444429  0.11111101  0.07873467
   0.38888905  0.55555574  0.15702600
   0.38888868  0.88888878  0.15702600
   0.38888918  0.22222203  0.15702600
   0.72222193  0.55555574  0.15702600
   0.72222214  0.88888878  0.15702600
   0.72222205  0.22222203  0.15702600
   0.05555559  0.55555574  0.15702600
   0.05555580  0.88888878  0.15702600
   0.05555572  0.22222203  0.15702600
   0.49999969  0.66666675  0.23375733
   0.50000019  0.00000000  0.23375733
   0.50000040  0.33333304  0.23375733
   0.83333315  0.66666675  0.23375733
   0.83333307  0.00000000  0.23375733
   0.83333328  0.33333304  0.23375733
   0.16666681  0.66666675  0.23375733
   0.16666673  0.00000000  0.23375733
   0.16666694  0.33333304  0.23375733
   0.61111092  0.77777777  0.31173067
   0.61111141  0.11111101  0.31173067
   0.61111071  0.44444473  0.31173067
   0.94444438  0.77777777  0.31173067
   0.94444429  0.11111101  0.31173067
   0.94444417  0.44444473  0.31173067
   0.27777804  0.77777777  0.31173067
   0.27777795  0.11111101  0.31173067
   0.27777783  0.44444473  0.31173067
   0.72222214  0.88888878  0.38970400
   0.72222205  0.22222203  0.38970400
   0.72222193  0.55555574  0.38970400
   0.05555580  0.88888878  0.38970400
   0.05555572  0.22222203  0.38970400
   0.05555559  0.55555574  0.38970400
   0.38888868  0.88888878  0.38970400
   0.38888918  0.22222203  0.38970400
   0.38888905  0.55555574  0.38970400
   0.83333307  0.00000000  0.46643533
   0.83333328  0.33333304  0.46643533
   0.83333315  0.66666675  0.46643533
   0.16666673  0.00000000  0.46643533
   0.16666694  0.33333304  0.46643533
   0.16666681  0.66666675  0.46643533
   0.50000019  0.00000000  0.46643533
   0.50000040  0.33333304  0.46643533
   0.49999969  0.66666675  0.46643533
   0.94444429  0.11111101  0.54472667
   0.94444417  0.44444473  0.54472667
   0.94444438  0.77777777  0.54472667
   0.27777795  0.11111101  0.54472667
   0.27777783  0.44444473  0.54472667
   0.27777804  0.77777777  0.54472667
   0.61111141  0.11111101  0.54472667
   0.61111071  0.44444473  0.54472667
   0.61111092  0.77777777  0.54472667
   0.44444450  0.27777753  0.07873467
   0.44444437  0.61111125  0.07873467
   0.44444458  0.94444429  0.07873467
   0.77777796  0.27777753  0.07873467
   0.77777783  0.61111125  0.07873467
   0.77777804  0.94444429  0.07873467
   0.11111104  0.27777753  0.07873467
   0.11111091  0.61111125  0.07873467
   0.11111112  0.94444429  0.07873467
   0.55555538  0.38888922  0.15702600
   0.55555559  0.72222226  0.15702600
   0.55555551  0.05555551  0.15702600
   0.88888884  0.38888922  0.15702600
   0.88888905  0.72222226  0.15702600
   0.88888897  0.05555551  0.15702600
   0.22222192  0.38888922  0.15702600
   0.22222213  0.72222226  0.15702600
   0.22222205  0.05555551  0.15702600
   0.66666661  0.50000023  0.23375733
   0.66666682  0.83333327  0.23375733
   0.66666673  0.16666652  0.23375733
   0.99999969  0.50000023  0.23375733
   0.99999990  0.83333327  0.23375733
   0.99999981  0.16666652  0.23375733
   0.33333315  0.50000023  0.23375733
   0.33333336  0.83333327  0.23375733
   0.33333327  0.16666652  0.23375733
   0.77777783  0.61111125  0.31173067
   0.77777804  0.94444429  0.31173067
   0.77777796  0.27777753  0.31173067
   0.11111091  0.61111125  0.31173067
   0.11111112  0.94444429  0.31173067
   0.11111104  0.27777753  0.31173067
   0.44444437  0.61111125  0.31173067
   0.44444458  0.94444429  0.31173067
   0.44444450  0.27777753  0.31173067
   0.88888905  0.72222226  0.38970400
   0.88888897  0.05555551  0.38970400
   0.88888884  0.38888922  0.38970400
   0.22222213  0.72222226  0.38970400
   0.22222205  0.05555551  0.38970400
   0.22222192  0.38888922  0.38970400
   0.55555559  0.72222226  0.38970400
   0.55555551  0.05555551  0.38970400
   0.55555538  0.38888922  0.38970400
   0.99999990  0.83333327  0.46643533
   0.99999981  0.16666652  0.46643533
   0.99999969  0.50000023  0.46643533
   0.33333336  0.83333327  0.46643533
   0.33333327  0.16666652  0.46643533
   0.33333315  0.50000023  0.46643533
   0.66666682  0.83333327  0.46643533
   0.66666673  0.16666652  0.46643533
   0.66666661  0.50000023  0.46643533
   0.11111112  0.94444429  0.54472667
   0.11111104  0.27777753  0.54472667
   0.11111091  0.61111125  0.54472667
   0.44444458  0.94444429  0.54472667
   0.44444450  0.27777753  0.54472667
   0.44444437  0.61111125  0.54472667
   0.77777804  0.94444429  0.54472667
   0.77777796  0.27777753  0.54472667
   0.77777783  0.61111125  0.54472667
   0.33333315  0.50000023  0.63466667
   0.38888907  0.38888877  0.63466667
 
 position of ions in cartesian coordinates  (Angst):
   2.36204000-11.45372000 -6.61281000
   2.36204000-14.31714000-11.57241000
   2.36204000 -8.59029000 -1.65320000
   2.36204000-17.18057000 -6.61281000
   2.36204000-20.04400000-11.57241000
   2.36204000-14.31714000 -1.65320000
   2.36204000 -5.72686000 -6.61281000
   2.36204000 -8.59029000-11.57241000
   2.36204000 -2.86343000 -1.65320000
   4.71078000-14.31714000 -8.26601000
   4.71078000-17.18057000-13.22561000
   4.71078000-11.45372000 -3.30640000
   4.71078000-20.04400000 -8.26601000
   4.71078000-22.90743000-13.22561000
   4.71078000-17.18057000 -3.30640000
   4.71078000 -8.59029000 -8.26601000
   4.71078000-11.45372000-13.22561000
   4.71078000 -5.72686000 -3.30640000
   7.01272000-17.18057000 -9.91921000
   7.01272000-11.45372000  0.00000000
   7.01272000-14.31714000 -4.95960000
   7.01272000 -5.72686000 -9.91921000
   7.01272000  0.00000000  0.00000000
   7.01272000 -2.86343000 -4.95960000
   7.01272000-11.45372000 -9.91921000
   7.01272000 -5.72686000  0.00000000
   7.01272000 -8.59029000 -4.95960000
   9.35192000-20.04400000-11.57241000
   9.35192000-14.31714000 -1.65320000
   9.35192000-17.18057000 -6.61281000
   9.35192000 -8.59029000-11.57241000
   9.35192000 -2.86343000 -1.65320000
   9.35192000 -5.72686000 -6.61281000
   9.35192000-14.31714000-11.57241000
   9.35192000 -8.59029000 -1.65320000
   9.35192000-11.45372000 -6.61281000
  11.69112000-22.90743000-13.22561000
  11.69112000-17.18057000 -3.30640000
  11.69112000-20.04400000 -8.26601000
  11.69112000-11.45372000-13.22561000
  11.69112000 -5.72686000 -3.30640000
  11.69112000 -8.59029000 -8.26601000
  11.69112000-17.18057000-13.22561000
  11.69112000-11.45372000 -3.30640000
  11.69112000-14.31714000 -8.26601000
  13.99306000  0.00000000  0.00000000
  13.99306000 -2.86343000 -4.95960000
  13.99306000 -5.72686000 -9.91921000
  13.99306000 -5.72686000  0.00000000
  13.99306000 -8.59029000 -4.95960000
  13.99306000-11.45372000 -9.91921000
  13.99306000-11.45372000  0.00000000
  13.99306000-14.31714000 -4.95960000
  13.99306000-17.18057000 -9.91921000
  16.34180000 -2.86343000 -1.65320000
  16.34180000 -5.72686000 -6.61281000
  16.34180000 -8.59029000-11.57241000
  16.34180000 -8.59029000 -1.65320000
  16.34180000-11.45372000 -6.61281000
  16.34180000-14.31714000-11.57241000
  16.34180000-14.31714000 -1.65320000
  16.34180000-17.18057000 -6.61281000
  16.34180000-20.04400000-11.57241000
   2.36204000 -7.15857000 -4.13300000
   2.36204000-10.02200000 -9.09261000
   2.36204000-12.88543000-14.05221000
   2.36204000-12.88543000 -4.13300000
   2.36204000-15.74886000 -9.09261000
   2.36204000-18.61229000-14.05221000
   2.36204000-18.61229000 -4.13300000
   2.36204000-21.47572000 -9.09261000
   2.36204000-24.33915000-14.05221000
   4.71078000-10.02200000 -5.78621000
   4.71078000-12.88543000-10.74581000
   4.71078000 -7.15857000 -0.82660000
   4.71078000-15.74886000 -5.78621000
   4.71078000-18.61229000-10.74581000
   4.71078000-12.88543000 -0.82660000
   4.71078000 -4.29514000 -5.78621000
   4.71078000 -7.15857000-10.74581000
   4.71078000 -1.43171000 -0.82660000
   7.01272000-12.88543000 -7.43941000
   7.01272000-15.74886000-12.39901000
   7.01272000-10.02200000 -2.47980000
   7.01272000-18.61229000 -7.43941000
   7.01272000-21.47572000-12.39901000
   7.01272000-15.74886000 -2.47980000
   7.01272000 -7.15857000 -7.43941000
   7.01272000-10.02200000-12.39901000
   7.01272000 -4.29514000 -2.47980000
   9.35192000-15.74886000 -9.09261000
   9.35192000-18.61229000-14.05221000
   9.35192000-12.88543000 -4.13300000
   9.35192000-21.47572000 -9.09261000
   9.35192000-24.33915000-14.05221000
   9.35192000-18.61229000 -4.13300000
   9.35192000-10.02200000 -9.09261000
   9.35192000-12.88543000-14.05221000
   9.35192000 -7.15857000 -4.13300000
  11.69112000-18.61229000-10.74581000
  11.69112000-12.88543000 -0.82660000
  11.69112000-15.74886000 -5.78621000
  11.69112000 -7.15857000-10.74581000
  11.69112000 -1.43171000 -0.82660000
  11.69112000 -4.29514000 -5.78621000
  11.69112000-12.88543000-10.74581000
  11.69112000 -7.15857000 -0.82660000
  11.69112000-10.02200000 -5.78621000
  13.99306000-21.47572000-12.39901000
  13.99306000-15.74886000 -2.47980000
  13.99306000-18.61229000 -7.43941000
  13.99306000-10.02200000-12.39901000
  13.99306000 -4.29514000 -2.47980000
  13.99306000 -7.15857000 -7.43941000
  13.99306000-15.74886000-12.39901000
  13.99306000-10.02200000 -2.47980000
  13.99306000-12.88543000 -7.43941000
  16.34180000-24.33915000-14.05221000
  16.34180000-18.61229000 -4.13300000
  16.34180000-21.47572000 -9.09261000
  16.34180000-12.88543000-14.05221000
  16.34180000 -7.15857000 -4.13300000
  16.34180000-10.02200000 -9.09261000
  16.34180000-18.61229000-14.05221000
  16.34180000-12.88543000 -4.13300000
  16.34180000-15.74886000 -9.09261000
   2.36204000 -8.59029000 -6.61281000
   2.36204000-11.45372000-11.57241000
   2.36204000 -5.72686000 -1.65320000
   2.36204000-14.31714000 -6.61281000
   2.36204000-17.18057000-11.57241000
   2.36204000-11.45372000 -1.65320000
   2.36204000-20.04400000 -6.61281000
   2.36204000-22.90743000-11.57241000
   2.36204000-17.18057000 -1.65320000
   4.71078000-11.45372000 -8.26601000
   4.71078000-14.31714000-13.22561000
   4.71078000 -8.59029000 -3.30640000
   4.71078000-17.18057000 -8.26601000
   4.71078000-20.04400000-13.22561000
   4.71078000-14.31714000 -3.30640000
   4.71078000 -5.72686000 -8.26601000
   4.71078000 -8.59029000-13.22561000
   4.71078000 -2.86343000 -3.30640000
   7.01272000-14.31714000 -9.91921000
   7.01272000 -8.59029000  0.00000000
   7.01272000-11.45372000 -4.95960000
   7.01272000-20.04400000 -9.91921000
   7.01272000-14.31714000  0.00000000
   7.01272000-17.18057000 -4.95960000
   7.01272000 -8.59029000 -9.91921000
   7.01272000 -2.86343000  0.00000000
   7.01272000 -5.72686000 -4.95960000
   9.35192000-17.18057000-11.57241000
   9.35192000-11.45372000 -1.65320000
   9.35192000-14.31714000 -6.61281000
   9.35192000-22.90743000-11.57241000
   9.35192000-17.18057000 -1.65320000
   9.35192000-20.04400000 -6.61281000
   9.35192000-11.45372000-11.57241000
   9.35192000 -5.72686000 -1.65320000
   9.35192000 -8.59029000 -6.61281000
  11.69112000-20.04400000-13.22561000
  11.69112000-14.31714000 -3.30640000
  11.69112000-17.18057000 -8.26601000
  11.69112000 -8.59029000-13.22561000
  11.69112000 -2.86343000 -3.30640000
  11.69112000 -5.72686000 -8.26601000
  11.69112000-14.31714000-13.22561000
  11.69112000 -8.59029000 -3.30640000
  11.69112000-11.45372000 -8.26601000
  13.99306000-14.31714000  0.00000000
  13.99306000-17.18057000 -4.95960000
  13.99306000-20.04400000 -9.91921000
  13.99306000 -2.86343000  0.00000000
  13.99306000 -5.72686000 -4.95960000
  13.99306000 -8.59029000 -9.91921000
  13.99306000 -8.59029000  0.00000000
  13.99306000-11.45372000 -4.95960000
  13.99306000-14.31714000 -9.91921000
  16.34180000-17.18057000 -1.65320000
  16.34180000-20.04400000 -6.61281000
  16.34180000-22.90743000-11.57241000
  16.34180000 -5.72686000 -1.65320000
  16.34180000 -8.59029000 -6.61281000
  16.34180000-11.45372000-11.57241000
  16.34180000-11.45372000 -1.65320000
  16.34180000-14.31714000 -6.61281000
  16.34180000-17.18057000-11.57241000
   2.36204000-10.02200000 -4.13300000
   2.36204000-12.88543000 -9.09261000
   2.36204000-15.74886000-14.05221000
   2.36204000-15.74886000 -4.13300000
   2.36204000-18.61229000 -9.09261000
   2.36204000-21.47572000-14.05221000
   2.36204000 -4.29514000 -4.13300000
   2.36204000 -7.15857000 -9.09261000
   2.36204000-10.02200000-14.05221000
   4.71078000-12.88543000 -5.78621000
   4.71078000-15.74886000-10.74581000
   4.71078000-10.02200000 -0.82660000
   4.71078000-18.61229000 -5.78621000
   4.71078000-21.47572000-10.74581000
   4.71078000-15.74886000 -0.82660000
   4.71078000 -7.15857000 -5.78621000
   4.71078000-10.02200000-10.74581000
   4.71078000 -4.29514000 -0.82660000
   7.01272000-15.74886000 -7.43941000
   7.01272000-18.61229000-12.39901000
   7.01272000-12.88543000 -2.47980000
   7.01272000-21.47571346 -7.43941000
   7.01272000-24.33914346-12.39901000
   7.01272000-18.61228346 -2.47980000
   7.01272000-10.02200000 -7.43941000
   7.01272000-12.88543000-12.39901000
   7.01272000 -7.15857000 -2.47980000
   9.35192000-18.61229000 -9.09261000
   9.35192000-21.47572000-14.05221000
   9.35192000-15.74886000 -4.13300000
   9.35192000 -7.15857000 -9.09261000
   9.35192000-10.02200000-14.05221000
   9.35192000 -4.29514000 -4.13300000
   9.35192000-12.88543000 -9.09261000
   9.35192000-15.74886000-14.05221000
   9.35192000-10.02200000 -4.13300000
  11.69112000-21.47572000-10.74581000
  11.69112000-15.74886000 -0.82660000
  11.69112000-18.61229000 -5.78621000
  11.69112000-10.02200000-10.74581000
  11.69112000 -4.29514000 -0.82660000
  11.69112000 -7.15857000 -5.78621000
  11.69112000-15.74886000-10.74581000
  11.69112000-10.02200000 -0.82660000
  11.69112000-12.88543000 -5.78621000
  13.99306000-24.33914346-12.39901000
  13.99306000-18.61228346 -2.47980000
  13.99306000-21.47571346 -7.43941000
  13.99306000-12.88543000-12.39901000
  13.99306000 -7.15857000 -2.47980000
  13.99306000-10.02200000 -7.43941000
  13.99306000-18.61229000-12.39901000
  13.99306000-12.88543000 -2.47980000
  13.99306000-15.74886000 -7.43941000
  16.34180000-10.02200000-14.05221000
  16.34180000 -4.29514000 -4.13300000
  16.34180000 -7.15857000 -9.09261000
  16.34180000-15.74886000-14.05221000
  16.34180000-10.02200000 -4.13300000
  16.34180000-12.88543000 -9.09261000
  16.34180000-21.47572000-14.05221000
  16.34180000-15.74886000 -4.13300000
  16.34180000-18.61229000 -9.09261000
  19.04000000-10.02200000 -7.43941000
  19.04000000-10.02200333 -5.78620333
 


--------------------------------------------------------------------------------------------------------


 k-point  1 :   0.0000 0.0000 0.0000  plane waves:   90499
 k-point  2 :   0.5000 0.0000 0.0000  plane waves:   90530
 k-point  3 :   0.0000 0.5000 0.0000  plane waves:   90530

 maximum and minimum number of plane-waves per node :     90530    90499

 maximum number of plane-waves:     90530
 maximum index in each direction: 
   IXMAX=   24   IYMAX=   24   IZMAX=   42
   IXMIN=  -24   IYMIN=  -24   IZMIN=  -42


 serial   3D FFT for wavefunctions
 parallel 3D FFT for charge:
    minimum data exchange during FFTs selected (reduces bandwidth)


 total amount of memory used by VASP MPI-rank0   652136. kBytes
=======================================================================

   base      :      30000. kBytes
   nonlr-proj:      89915. kBytes
   fftplans  :      40601. kBytes
   grid      :      95147. kBytes
   one-center:       3950. kBytes
   wavefun   :     392523. kBytes
 
     INWAV:  cpu time    0.0000: real time    0.0001
 Broyden mixing: mesh for mixing (old mesh)
   NGX = 49   NGY = 49   NGZ = 85
  (NGX  =160   NGY  =160   NGZ  =256)
  gives a total of 204085 points

 initial charge density was supplied:
 charge density of overlapping atoms calculated
 number of electron     766.0000000 magnetization 
 keeping initial charge density in first step


--------------------------------------------------------------------------------------------------------


 Maximum index for non-local projection operator         4274
 Maximum index for augmentation-charges          758 (set IRDMAX)


--------------------------------------------------------------------------------------------------------


 First call to EWALD:  gamma=   0.090
 Maximum number of real-space cells 3x 3x 2
 Maximum number of reciprocal cells 2x 2x 4

    FEWALD:  cpu time    0.0263: real time    0.0263


----------------------------------------- Iteration    1(   1)  ---------------------------------------


    POTLOK:  cpu time    0.7749: real time    0.8030
    SETDIJ:  cpu time    0.0892: real time    0.0927
     EDDAV:  cpu time   18.8788: real time   21.3510
       DOS:  cpu time    0.0013: real time    0.0069
    --------------------------------------------
      LOOP:  cpu time   19.7464: real time   22.2717

 eigenvalue-minimisations  :  3120
 total energy-change (2. order) : 0.2124518E+04  (-0.1839509E+05)
 number of electron     766.0000000 magnetization 
 augmentation part      766.0000000 magnetization 

 Free energy of the ion-electron system (eV)
  ---------------------------------------------------
  alpha Z        PSCENC =       505.22967617
  Ewald energy   TEWEN  =     87485.36049136
  -Hartree energ DENC   =   -101573.74229224
  -exchange      EXHF   =         0.00000000
  -V(xc)+E(xc)   XCENC  =     -6607.27530698
  PAW double counting   =     17092.30507181    -9042.14386232
  entropy T*S    EENTRO =        -0.06371881
  eigenvalues    EBANDS =       245.64605379
  atomic energy  EATOM  =     14019.20197576
  Solvation  Ediel_sol  =         0.00000000
  ---------------------------------------------------
  free energy    TOTEN  =      2124.51808853 eV

  energy without entropy =     2124.58180734  energy(sigma->0) =     2124.54994794


--------------------------------------------------------------------------------------------------------




----------------------------------------- Iteration    1(   2)  ---------------------------------------


     EDDAV:  cpu time   23.6214: real time   26.5469
       DOS:  cpu time    0.0021: real time    0.0021
    --------------------------------------------
      LOOP:  cpu time   23.6249: real time   26.5573

 eigenvalue-minimisations  :  4236
 total energy-change (2. order) :-0.2866648E+04  (-0.2705374E+04)
 number of electron     766.0000000 magnetization 
 augmentation part      766.0000000 magnetization 

 Free energy of the ion-electron system (eV)
  ---------------------------------------------------
  alpha Z        PSCENC =       505.22967617
  Ewald energy   TEWEN  =     87485.36049136
  -Hartree energ DENC   =   -101573.74229224
  -exchange      EXHF   =         0.00000000
  -V(xc)+E(xc)   XCENC  =     -6607.27530698
  PAW double counting   =     17092.30507181    -9042.14386232
  entropy T*S    EENTRO =        -0.11353963
  eigenvalues    EBANDS =     -2620.95248855
  atomic energy  EATOM  =     14019.20197576
  Solvation  Ediel_sol  =         0.00000000
  ---------------------------------------------------
  free energy    TOTEN  =      -742.13027463 eV

  energy without entropy =     -742.01673500  energy(sigma->0) =     -742.07350481


--------------------------------------------------------------------------------------------------------




----------------------------------------- Iteration    1(   3)  ---------------------------------------


     EDDAV:  cpu time   24.0321: real time   26.9882
       DOS:  cpu time    0.0011: real time    0.0011
    --------------------------------------------
      LOOP:  cpu time   24.0345: real time   26.9922

 eigenvalue-minimisations  :  4320
 total energy-change (2. order) :-0.2053453E+03  (-0.1949087E+03)
 number of electron     766.0000000 magnetization 
 augmentation part      766.0000000 magnetization 

 Free energy of the ion-electron system (eV)
  ---------------------------------------------------
  alpha Z        PSCENC =       505.22967617
  Ewald energy   TEWEN  =     87485.36049136
  -Hartree energ DENC   =   -101573.74229224
  -exchange      EXHF   =         0.00000000
  -V(xc)+E(xc)   XCENC  =     -6607.27530698
  PAW double counting   =     17092.30507181    -9042.14386232
  entropy T*S    EENTRO =        -0.22453570
  eigenvalues    EBANDS =     -2826.18678036
  atomic energy  EATOM  =     14019.20197576
  Solvation  Ediel_sol  =         0.00000000
  ---------------------------------------------------
  free energy    TOTEN  =      -947.47556251 eV

  energy without entropy =     -947.25102681  energy(sigma->0) =     -947.36329466


--------------------------------------------------------------------------------------------------------




----------------------------------------- Iteration    1(   4)  ---------------------------------------


     EDDAV:  cpu time   25.2997: real time   28.3676
       DOS:  cpu time    0.0011: real time    0.0011
    --------------------------------------------
      LOOP:  cpu time   25.3021: real time   28.3719

 eigenvalue-minimisations  :  4596
 total energy-change (2. order) :-0.9304892E+01  (-0.9114021E+01)
 number of electron     766.0000000 magnetization 
 augmentation part      766.0000000 magnetization 

 Free energy of the ion-electron system (eV)
  ---------------------------------------------------
  alpha Z        PSCENC =       505.22967617
  Ewald energy   TEWEN  =     87485.36049136
  -Hartree energ DENC   =   -101573.74229224
  -exchange      EXHF   =         0.00000000
  -V(xc)+E(xc)   XCENC  =     -6607.27530698
  PAW double counting   =     17092.30507181    -9042.14386232
  entropy T*S    EENTRO =        -0.25344325
  eigenvalues    EBANDS =     -2835.46276510
  atomic energy  EATOM  =     14019.20197576
  Solvation  Ediel_sol  =         0.00000000
  ---------------------------------------------------
  free energy    TOTEN  =      -956.78045480 eV

  energy without entropy =     -956.52701154  energy(sigma->0) =     -956.65373317


--------------------------------------------------------------------------------------------------------




----------------------------------------- Iteration    1(   5)  ---------------------------------------


     EDDAV:  cpu time   27.9134: real time   31.1877
       DOS:  cpu time    0.0225: real time    0.0225
    CHARGE:  cpu time    1.7192: real time    1.7803
    MIXING:  cpu time    0.0232: real time    0.0232
    --------------------------------------------
      LOOP:  cpu time   29.6798: real time   33.0176

 eigenvalue-minimisations  :  5184
 total energy-change (2. order) :-0.4730163E+00  (-0.4622850E+00)
 number of electron     765.9999990 magnetization 
 augmentation part      -10.1338590 magnetization 

 Broyden mixing:
  rms(total) = 0.18062E+01    rms(broyden)= 0.18056E+01
  rms(prec ) = 0.25793E+01
  weight for this iteration     100.00

 Free energy of the ion-electron system (eV)
  ---------------------------------------------------
  alpha Z        PSCENC =       505.22967617
  Ewald energy   TEWEN  =     87485.36049136
  -Hartree energ DENC   =   -101573.74229224
  -exchange      EXHF   =         0.00000000
  -V(xc)+E(xc)   XCENC  =     -6607.27530698
  PAW double counting   =     17092.30507181    -9042.14386232
  entropy T*S    EENTRO =        -0.25351463
  eigenvalues    EBANDS =     -2835.93571003
  atomic energy  EATOM  =     14019.20197576
  Solvation  Ediel_sol  =         0.00000000
  ---------------------------------------------------
  free energy    TOTEN  =      -957.25347111 eV

  energy without entropy =     -956.99995648  energy(sigma->0) =     -957.12671379


--------------------------------------------------------------------------------------------------------




----------------------------------------- Iteration    1(   6)  ---------------------------------------


    POTLOK:  cpu time    0.7456: real time    0.7456
    SETDIJ:  cpu time    0.0874: real time    0.0874
     EDDAV:  cpu time   26.3210: real time   29.4107
       DOS:  cpu time    0.0203: real time    0.0203
    CHARGE:  cpu time    1.7164: real time    1.7474
    MIXING:  cpu time    0.0262: real time    0.0392
    --------------------------------------------
      LOOP:  cpu time   28.9184: real time   32.0532

 eigenvalue-minimisations  :  4824
 total energy-change (2. order) :-0.2127109E+02  (-0.1931367E+02)
 number of electron     765.9999976 magnetization 
 augmentation part       -9.7133429 magnetization 

 Broyden mixing:
  rms(total) = 0.21897E+01    rms(broyden)= 0.21874E+01
  rms(prec ) = 0.45546E+01
  weight for this iteration     100.00

 eigenvalues of (default mixing * dielectric matrix)
  average eigenvalue GAMMA=   0.4896
  0.4896

 Free energy of the ion-electron system (eV)
  ---------------------------------------------------
  alpha Z        PSCENC =       505.22967617
  Ewald energy   TEWEN  =     87485.36049136
  -Hartree energ DENC   =   -102489.44717535
  -exchange      EXHF   =         0.00000000
  -V(xc)+E(xc)   XCENC  =     -6597.81489633
  PAW double counting   =     18939.17650395   -10890.21575585
  entropy T*S    EENTRO =        -0.22525100
  eigenvalues    EBANDS =     -1949.79012743
  atomic energy  EATOM  =     14019.20197576
  Solvation  Ediel_sol  =         0.00000000
  ---------------------------------------------------
  free energy    TOTEN  =      -978.52455872 eV

  energy without entropy =     -978.29930772  energy(sigma->0) =     -978.41193322


--------------------------------------------------------------------------------------------------------




----------------------------------------- Iteration    1(   7)  ---------------------------------------


    POTLOK:  cpu time    0.7467: real time    0.7467
    SETDIJ:  cpu time    0.0900: real time    0.0901
     EDDAV:  cpu time   22.3535: real time   25.0604
       DOS:  cpu time    0.0025: real time    0.0025
    CHARGE:  cpu time    1.7294: real time    1.7613
    MIXING:  cpu time    0.0258: real time    0.0258
    --------------------------------------------
      LOOP:  cpu time   24.9496: real time   27.6893

 eigenvalue-minimisations  :  3900
 total energy-change (2. order) : 0.4579479E+02  (-0.1310820E+02)
 number of electron     765.9999995 magnetization 
 augmentation part      -10.1648487 magnetization 

 Broyden mixing:
  rms(total) = 0.10062E+01    rms(broyden)= 0.10021E+01
  rms(prec ) = 0.12766E+01
  weight for this iteration     100.00

 eigenvalues of (default mixing * dielectric matrix)
  average eigenvalue GAMMA=   1.0100
  1.7659  0.2541

 Free energy of the ion-electron system (eV)
  ---------------------------------------------------
  alpha Z        PSCENC =       505.22967617
  Ewald energy   TEWEN  =     87485.36049136
  -Hartree energ DENC   =   -101975.87774235
  -exchange      EXHF   =         0.00000000
  -V(xc)+E(xc)   XCENC  =     -6595.05664371
  PAW double counting   =     19287.69900418   -11238.91663695
  entropy T*S    EENTRO =        -0.06082050
  eigenvalues    EBANDS =     -2420.30907520
  atomic energy  EATOM  =     14019.20197576
  Solvation  Ediel_sol  =         0.00000000
  ---------------------------------------------------
  free energy    TOTEN  =      -932.72977125 eV

  energy without entropy =     -932.66895075  energy(sigma->0) =     -932.69936100


--------------------------------------------------------------------------------------------------------




----------------------------------------- Iteration    1(   8)  ---------------------------------------


    POTLOK:  cpu time    0.7503: real time    0.7503
    SETDIJ:  cpu time    0.0878: real time    0.0878
     EDDAV:  cpu time   23.4819: real time   26.3567
       DOS:  cpu time    0.0019: real time    0.0019
    CHARGE:  cpu time    1.7529: real time    1.7846
    MIXING:  cpu time    0.0274: real time    0.0274
    --------------------------------------------
      LOOP:  cpu time   26.1038: real time   29.0113

 eigenvalue-minimisations  :  4176
 total energy-change (2. order) :-0.8192828E+01  (-0.3676282E+01)
 number of electron     765.9999980 magnetization 
 augmentation part      -10.1568947 magnetization 

 Broyden mixing:
  rms(total) = 0.85079E+00    rms(broyden)= 0.85027E+00
  rms(prec ) = 0.25966E+01
  weight for this iteration     100.00

 eigenvalues of (default mixing * dielectric matrix)
  average eigenvalue GAMMA=   0.9835
  2.2177  0.4435  0.2894

 Free energy of the ion-electron system (eV)
  ---------------------------------------------------
  alpha Z        PSCENC =       505.22967617
  Ewald energy   TEWEN  =     87485.36049136
  -Hartree energ DENC   =   -102063.95105799
  -exchange      EXHF   =         0.00000000
  -V(xc)+E(xc)   XCENC  =     -6588.27323238
  PAW double counting   =     20418.71800589   -12370.51739950
  entropy T*S    EENTRO =        -0.10881661
  eigenvalues    EBANDS =     -2346.58224195
  atomic energy  EATOM  =     14019.20197576
  Solvation  Ediel_sol  =         0.00000000
  ---------------------------------------------------
  free energy    TOTEN  =      -940.92259925 eV

  energy without entropy =     -940.81378264  energy(sigma->0) =     -940.86819095


--------------------------------------------------------------------------------------------------------




----------------------------------------- Iteration    1(   9)  ---------------------------------------


    POTLOK:  cpu time    0.7537: real time    0.7537
    SETDIJ:  cpu time    0.0934: real time    0.0934
     EDDAV:  cpu time   22.8947: real time   25.6796
       DOS:  cpu time    0.0020: real time    0.0020
    CHARGE:  cpu time    1.7248: real time    1.7566
    MIXING:  cpu time    0.0287: real time    0.0287
    --------------------------------------------
      LOOP:  cpu time   25.4990: real time   28.3168

 eigenvalue-minimisations  :  4032
 total energy-change (2. order) : 0.7587395E+01  (-0.1088833E+01)
 number of electron     765.9999991 magnetization 
 augmentation part      -10.2432929 magnetization 

 Broyden mixing:
  rms(total) = 0.49330E+00    rms(broyden)= 0.49309E+00
  rms(prec ) = 0.12156E+01
  weight for this iteration     100.00

 eigenvalues of (default mixing * dielectric matrix)
  average eigenvalue GAMMA=   0.9112
  2.5043  0.7154  0.2854  0.1398

 Free energy of the ion-electron system (eV)
  ---------------------------------------------------
  alpha Z        PSCENC =       505.22967617
  Ewald energy   TEWEN  =     87485.36049136
  -Hartree energ DENC   =   -102127.95708139
  -exchange      EXHF   =         0.00000000
  -V(xc)+E(xc)   XCENC  =     -6585.16650177
  PAW double counting   =     20896.53965807   -12848.63333293
  entropy T*S    EENTRO =        -0.04529673
  eigenvalues    EBANDS =     -2277.86479273
  atomic energy  EATOM  =     14019.20197576
  Solvation  Ediel_sol  =         0.00000000
  ---------------------------------------------------
  free energy    TOTEN  =      -933.33520419 eV

  energy without entropy =     -933.28990746  energy(sigma->0) =     -933.31255583


--------------------------------------------------------------------------------------------------------




----------------------------------------- Iteration    1(  10)  ---------------------------------------


    POTLOK:  cpu time    0.7540: real time    0.7540
    SETDIJ:  cpu time    0.0901: real time    0.0901
     EDDAV:  cpu time   22.1196: real time   24.9038
       DOS:  cpu time    0.0020: real time    0.0020
    CHARGE:  cpu time    1.7073: real time    1.7387
    MIXING:  cpu time    0.0305: real time    0.0305
    --------------------------------------------
      LOOP:  cpu time   24.7051: real time   27.5218

 eigenvalue-minimisations  :  3876
 total energy-change (2. order) : 0.2980734E+01  (-0.6220312E+00)
 number of electron     765.9999983 magnetization 
 augmentation part      -10.1986726 magnetization 

 Broyden mixing:
  rms(total) = 0.31841E+00    rms(broyden)= 0.31701E+00
  rms(prec ) = 0.37883E+00
  weight for this iteration     100.00

 eigenvalues of (default mixing * dielectric matrix)
  average eigenvalue GAMMA=   0.8098
  2.5164  0.6335  0.4688  0.2918  0.1386

 Free energy of the ion-electron system (eV)
  ---------------------------------------------------
  alpha Z        PSCENC =       505.22967617
  Ewald energy   TEWEN  =     87485.36049136
  -Hartree energ DENC   =   -102273.40856403
  -exchange      EXHF   =         0.00000000
  -V(xc)+E(xc)   XCENC  =     -6578.28054895
  PAW double counting   =     21905.22420191   -13858.09573935
  entropy T*S    EENTRO =        -0.06503282
  eigenvalues    EBANDS =     -2135.52093050
  atomic energy  EATOM  =     14019.20197576
  Solvation  Ediel_sol  =         0.00000000
  ---------------------------------------------------
  free energy    TOTEN  =      -930.35447046 eV

  energy without entropy =     -930.28943764  energy(sigma->0) =     -930.32195405


--------------------------------------------------------------------------------------------------------




----------------------------------------- Iteration    1(  11)  ---------------------------------------


    POTLOK:  cpu time    0.7516: real time    0.7516
    SETDIJ:  cpu time    0.0896: real time    0.0896
     EDDAV:  cpu time   23.1527: real time   25.9866
       DOS:  cpu time    0.0011: real time    0.0011
    CHARGE:  cpu time    1.7485: real time    1.7799
    MIXING:  cpu time    0.0317: real time    0.0317
    --------------------------------------------
      LOOP:  cpu time   25.7769: real time   28.6433

 eigenvalue-minimisations  :  4092
 total energy-change (2. order) : 0.2194684E-01  (-0.2180776E+00)
 number of electron     765.9999989 magnetization 
 augmentation part      -10.3561940 magnetization 

 Broyden mixing:
  rms(total) = 0.15282E+00    rms(broyden)= 0.15046E+00
  rms(prec ) = 0.19931E+00
  weight for this iteration     100.00

 eigenvalues of (default mixing * dielectric matrix)
  average eigenvalue GAMMA=   0.8580
  2.3732  1.4279  0.5916  0.1396  0.2838  0.3320

 Free energy of the ion-electron system (eV)
  ---------------------------------------------------
  alpha Z        PSCENC =       505.22967617
  Ewald energy   TEWEN  =     87485.36049136
  -Hartree energ DENC   =   -102303.18727665
  -exchange      EXHF   =         0.00000000
  -V(xc)+E(xc)   XCENC  =     -6577.58156730
  PAW double counting   =     21946.63470634   -13899.64053898
  entropy T*S    EENTRO =        -0.04735414
  eigenvalues    EBANDS =     -2106.30263617
  atomic energy  EATOM  =     14019.20197576
  Solvation  Ediel_sol  =         0.00000000
  ---------------------------------------------------
  free energy    TOTEN  =      -930.33252362 eV

  energy without entropy =     -930.28516948  energy(sigma->0) =     -930.30884655


--------------------------------------------------------------------------------------------------------




----------------------------------------- Iteration    1(  12)  ---------------------------------------


    POTLOK:  cpu time    0.7505: real time    0.7505
    SETDIJ:  cpu time    0.0881: real time    0.0881
     EDDAV:  cpu time   22.4159: real time   25.1347
       DOS:  cpu time    0.0024: real time    0.0024
    CHARGE:  cpu time    1.7413: real time    1.7728
    MIXING:  cpu time    0.0329: real time    0.0339
    --------------------------------------------
      LOOP:  cpu time   25.0328: real time   27.7853

 eigenvalue-minimisations  :  3924
 total energy-change (2. order) : 0.7835023E-01  (-0.3491450E-01)
 number of electron     765.9999987 magnetization 
 augmentation part      -10.3342562 magnetization 

 Broyden mixing:
  rms(total) = 0.84322E-01    rms(broyden)= 0.84134E-01
  rms(prec ) = 0.11174E+00
  weight for this iteration     100.00

 eigenvalues of (default mixing * dielectric matrix)
  average eigenvalue GAMMA=   0.9576
  2.3576  2.3576  0.6152  0.6152  0.1397  0.2884  0.3293

 Free energy of the ion-electron system (eV)
  ---------------------------------------------------
  alpha Z        PSCENC =       505.22967617
  Ewald energy   TEWEN  =     87485.36049136
  -Hartree energ DENC   =   -102341.07036216
  -exchange      EXHF   =         0.00000000
  -V(xc)+E(xc)   XCENC  =     -6577.30689522
  PAW double counting   =     21935.13845808   -13888.41081478
  entropy T*S    EENTRO =        -0.04968864
  eigenvalues    EBANDS =     -2068.34701396
  atomic energy  EATOM  =     14019.20197576
  Solvation  Ediel_sol  =         0.00000000
  ---------------------------------------------------
  free energy    TOTEN  =      -930.25417339 eV

  energy without entropy =     -930.20448475  energy(sigma->0) =     -930.22932907


--------------------------------------------------------------------------------------------------------




----------------------------------------- Iteration    1(  13)  ---------------------------------------


    POTLOK:  cpu time    0.7591: real time    0.7591
    SETDIJ:  cpu time    0.0897: real time    0.0897
     EDDAV:  cpu time   23.5127: real time   26.3989
       DOS:  cpu time    0.0020: real time    0.0020
    CHARGE:  cpu time    1.7321: real time    1.7635
    MIXING:  cpu time    0.0343: real time    0.0343
    --------------------------------------------
      LOOP:  cpu time   26.1315: real time   29.0501

 eigenvalue-minimisations  :  4176
 total energy-change (2. order) : 0.3323580E-01  (-0.1538904E-01)
 number of electron     765.9999986 magnetization 
 augmentation part      -10.3087658 magnetization 

 Broyden mixing:
  rms(total) = 0.59392E-01    rms(broyden)= 0.58945E-01
  rms(prec ) = 0.85946E-01
  weight for this iteration     100.00

 eigenvalues of (default mixing * dielectric matrix)
  average eigenvalue GAMMA=   0.9855
  2.5517  2.5517  0.7434  0.7434  0.5230  0.1397  0.2860  0.3451

 Free energy of the ion-electron system (eV)
  ---------------------------------------------------
  alpha Z        PSCENC =       505.22967617
  Ewald energy   TEWEN  =     87485.36049136
  -Hartree energ DENC   =   -102384.10130988
  -exchange      EXHF   =         0.00000000
  -V(xc)+E(xc)   XCENC  =     -6576.81047511
  PAW double counting   =     21940.55646248   -13894.11244341
  entropy T*S    EENTRO =        -0.05035326
  eigenvalues    EBANDS =     -2025.49496170
  atomic energy  EATOM  =     14019.20197576
  Solvation  Ediel_sol  =         0.00000000
  ---------------------------------------------------
  free energy    TOTEN  =      -930.22093759 eV

  energy without entropy =     -930.17058433  energy(sigma->0) =     -930.19576096


--------------------------------------------------------------------------------------------------------




----------------------------------------- Iteration    1(  14)  ---------------------------------------


    POTLOK:  cpu time    0.7551: real time    0.7551
    SETDIJ:  cpu time    0.0899: real time    0.0899
     EDDAV:  cpu time   21.6425: real time   24.3978
       DOS:  cpu time    0.0216: real time    0.0216
    CHARGE:  cpu time    1.7139: real time    1.7453
    MIXING:  cpu time    0.0365: real time    0.0365
    --------------------------------------------
      LOOP:  cpu time   24.2613: real time   27.0492

 eigenvalue-minimisations  :  3768
 total energy-change (2. order) : 0.2076772E-01  (-0.4859849E-02)
 number of electron     765.9999986 magnetization 
 augmentation part      -10.2941822 magnetization 

 Broyden mixing:
  rms(total) = 0.71568E-01    rms(broyden)= 0.71414E-01
  rms(prec ) = 0.89805E-01
  weight for this iteration     100.00

 eigenvalues of (default mixing * dielectric matrix)
  average eigenvalue GAMMA=   0.9842
  2.6312  2.6312  0.9229  0.9229  0.1397  0.5621  0.2869  0.3336  0.4270

 Free energy of the ion-electron system (eV)
  ---------------------------------------------------
  alpha Z        PSCENC =       505.22967617
  Ewald energy   TEWEN  =     87485.36049136
  -Hartree energ DENC   =   -102414.11961021
  -exchange      EXHF   =         0.00000000
  -V(xc)+E(xc)   XCENC  =     -6576.28793926
  PAW double counting   =     21963.72034459   -13917.43992857
  entropy T*S    EENTRO =        -0.05158981
  eigenvalues    EBANDS =     -1995.81358989
  atomic energy  EATOM  =     14019.20197576
  Solvation  Ediel_sol  =         0.00000000
  ---------------------------------------------------
  free energy    TOTEN  =      -930.20016987 eV

  energy without entropy =     -930.14858005  energy(sigma->0) =     -930.17437496


--------------------------------------------------------------------------------------------------------




----------------------------------------- Iteration    1(  15)  ---------------------------------------


    POTLOK:  cpu time    0.7574: real time    0.7575
    SETDIJ:  cpu time    0.0903: real time    0.0903
     EDDAV:  cpu time   22.6483: real time   25.4612
       DOS:  cpu time    0.0093: real time    0.0093
    CHARGE:  cpu time    1.7199: real time    1.7514
    MIXING:  cpu time    0.0382: real time    0.0382
    --------------------------------------------
      LOOP:  cpu time   25.2653: real time   28.1108

 eigenvalue-minimisations  :  3984
 total energy-change (2. order) : 0.1364710E-01  (-0.3283297E-02)
 number of electron     765.9999986 magnetization 
 augmentation part      -10.3091328 magnetization 

 Broyden mixing:
  rms(total) = 0.30671E-01    rms(broyden)= 0.30387E-01
  rms(prec ) = 0.39100E-01
  weight for this iteration     100.00

 eigenvalues of (default mixing * dielectric matrix)
  average eigenvalue GAMMA=   0.9580
  2.6462  2.6462  1.0103  1.0103  0.5844  0.5844  0.1397  0.2861  0.3324  0.3396

 Free energy of the ion-electron system (eV)
  ---------------------------------------------------
  alpha Z        PSCENC =       505.22967617
  Ewald energy   TEWEN  =     87485.36049136
  -Hartree energ DENC   =   -102435.72756490
  -exchange      EXHF   =         0.00000000
  -V(xc)+E(xc)   XCENC  =     -6575.92962216
  PAW double counting   =     21974.75145417   -13928.52283480
  entropy T*S    EENTRO =        -0.05022844
  eigenvalues    EBANDS =     -1974.49986993
  atomic energy  EATOM  =     14019.20197576
  Solvation  Ediel_sol  =         0.00000000
  ---------------------------------------------------
  free energy    TOTEN  =      -930.18652277 eV

  energy without entropy =     -930.13629433  energy(sigma->0) =     -930.16140855


--------------------------------------------------------------------------------------------------------




----------------------------------------- Iteration    1(  16)  ---------------------------------------


    POTLOK:  cpu time    0.7518: real time    0.7519
    SETDIJ:  cpu time    0.0909: real time    0.0909
     EDDAV:  cpu time   21.9415: real time   24.6692
       DOS:  cpu time    0.0011: real time    0.0011
    CHARGE:  cpu time    1.7134: real time    1.7446
    MIXING:  cpu time    0.0408: real time    0.0408
    --------------------------------------------
      LOOP:  cpu time   24.5411: real time   27.3482

 eigenvalue-minimisations  :  3816
 total energy-change (2. order) :-0.3648402E-02  (-0.1274286E-02)
 number of electron     765.9999987 magnetization 
 augmentation part      -10.3126617 magnetization 

 Broyden mixing:
  rms(total) = 0.23290E-01    rms(broyden)= 0.23167E-01
  rms(prec ) = 0.30435E-01
  weight for this iteration     100.00

 eigenvalues of (default mixing * dielectric matrix)
  average eigenvalue GAMMA=   0.9645
  2.6897  2.6897  1.1651  1.1651  0.6775  0.6775  0.1397  0.4699  0.2870  0.3402
  0.3085

 Free energy of the ion-electron system (eV)
  ---------------------------------------------------
  alpha Z        PSCENC =       505.22967617
  Ewald energy   TEWEN  =     87485.36049136
  -Hartree energ DENC   =   -102446.07499356
  -exchange      EXHF   =         0.00000000
  -V(xc)+E(xc)   XCENC  =     -6575.82155503
  PAW double counting   =     21973.52332653   -13927.28341711
  entropy T*S    EENTRO =        -0.05010918
  eigenvalues    EBANDS =     -1964.27556610
  atomic energy  EATOM  =     14019.20197576
  Solvation  Ediel_sol  =         0.00000000
  ---------------------------------------------------
  free energy    TOTEN  =      -930.19017117 eV

  energy without entropy =     -930.14006199  energy(sigma->0) =     -930.16511658


--------------------------------------------------------------------------------------------------------




----------------------------------------- Iteration    1(  17)  ---------------------------------------


    POTLOK:  cpu time    0.7567: real time    0.7568
    SETDIJ:  cpu time    0.0911: real time    0.0911
     EDDAV:  cpu time   21.0514: real time   23.6846
       DOS:  cpu time    0.0018: real time    0.0018
    CHARGE:  cpu time    1.7237: real time    1.7552
    MIXING:  cpu time    0.0450: real time    0.0450
    --------------------------------------------
[...]
     11.69112     -8.59029     -8.26601        -0.013645     -0.015199      0.004350
     11.69112    -17.18057    -13.22561         0.009677      0.006850     -0.007257
     11.69112    -11.45372     -3.30640        -0.002956      0.003902     -0.020260
     11.69112    -14.31714     -8.26601         0.000455      0.002325      0.006233
     13.99306      0.00000      0.00000         0.003286     -0.001392     -0.000299
     13.99306     -2.86343     -4.95960        -0.002780     -0.006723      0.001778
     13.99306     -5.72686     -9.91921         0.003501     -0.002369      0.001924
     13.99306     -5.72686      0.00000         0.002159     -0.002754     -0.005422
     13.99306     -8.59029     -4.95960        -0.042355      0.006317     -0.013181
     13.99306    -11.45372     -9.91921        -0.010005      0.002208      0.020497
     13.99306    -11.45372      0.00000        -0.003547     -0.001323     -0.002291
     13.99306    -14.31714     -4.95960        -0.005961     -0.006157     -0.003774
     13.99306    -17.18057     -9.91921        -0.004966      0.005534      0.003980
     16.34180     -2.86343     -1.65320        -0.006582     -0.004985      0.002881
     16.34180     -5.72686     -6.61281         0.015054      0.001345     -0.000037
     16.34180     -8.59029    -11.57241         0.017525     -0.002423      0.002613
     16.34180     -8.59029     -1.65320         0.008022      0.004969     -0.007495
     16.34180    -11.45372     -6.61281         0.263339      0.056344      0.004056
     16.34180    -14.31714    -11.57241         0.005071      0.001441      0.001348
     16.34180    -14.31714     -1.65320         0.002028      0.001288     -0.002807
     16.34180    -17.18057     -6.61281         0.001282      0.013084     -0.000531
     16.34180    -20.04400    -11.57241        -0.002252     -0.006201     -0.005238
      2.36204     -7.15857     -4.13300        -0.000346     -0.000152     -0.013481
      2.36204    -10.02200     -9.09261        -0.015645     -0.000000      0.004639
      2.36204    -12.88543    -14.05221        -0.004552     -0.000809     -0.003793
      2.36204    -12.88543     -4.13300        -0.000346      0.000152     -0.013481
      2.36204    -15.74886     -9.09261         0.010998     -0.008373     -0.012063
      2.36204    -18.61229    -14.05221         0.002258     -0.000000     -0.009199
      2.36204    -18.61229     -4.13300        -0.000672     -0.000000      0.002023
      2.36204    -21.47572     -9.09261         0.010998      0.008373     -0.012063
      2.36204    -24.33915    -14.05221        -0.004552      0.000809     -0.003793
      4.71078    -10.02200     -5.78621        -0.016267     -0.000000     -0.005790
      4.71078    -12.88543    -10.74581         0.004203      0.003362     -0.001609
      4.71078     -7.15857     -0.82660        -0.005075      0.000092      0.004696
      4.71078    -15.74886     -5.78621         0.002481     -0.002636      0.004296
      4.71078    -18.61229    -10.74581        -0.004831     -0.000000     -0.001386
      4.71078    -12.88543     -0.82660        -0.005075     -0.000092      0.004696
      4.71078     -4.29514     -5.78621         0.002481      0.002636      0.004296
      4.71078     -7.15857    -10.74581         0.004203     -0.003362     -0.001609
      4.71078     -1.43171     -0.82660        -0.001444     -0.000000     -0.001258
      7.01272    -12.88543     -7.43941         0.004523      0.011369      0.003531
      7.01272    -15.74886    -12.39901         0.003510     -0.009200      0.007378
      7.01272    -10.02200     -2.47980        -0.005475     -0.000000     -0.007259
      7.01272    -18.61229     -7.43941         0.003392     -0.000000      0.009459
      7.01272    -21.47572    -12.39901         0.003510      0.009200      0.007378
      7.01272    -15.74886     -2.47980         0.003345     -0.002942      0.006257
      7.01272     -7.15857     -7.43941         0.004523     -0.011369      0.003531
      7.01272    -10.02200    -12.39901         0.003098     -0.000000      0.008139
      7.01272     -4.29514     -2.47980         0.003345      0.002942      0.006257
      9.35192    -15.74886     -9.09261        -0.002072     -0.003577      0.002807
      9.35192    -18.61229    -14.05221        -0.010296     -0.000000     -0.002091
      9.35192    -12.88543     -4.13300         0.000805      0.016516     -0.014474
      9.35192    -21.47572     -9.09261        -0.002072      0.003577      0.002807
      9.35192    -24.33915    -14.05221         0.004342     -0.002215     -0.000742
      9.35192    -18.61229     -4.13300         0.005170     -0.000000     -0.003388
      9.35192    -10.02200     -9.09261         0.015835     -0.000000      0.014887
      9.35192    -12.88543    -14.05221         0.004342      0.002215     -0.000742
      9.35192     -7.15857     -4.13300         0.000805     -0.016516     -0.014474
     11.69112    -18.61229    -10.74581         0.005502     -0.000000     -0.000620
     11.69112    -12.88543     -0.82660         0.007843      0.007539     -0.007385
     11.69112    -15.74886     -5.78621         0.000704     -0.002165     -0.000315
     11.69112     -7.15857    -10.74581         0.004080     -0.003469     -0.000438
     11.69112     -1.43171     -0.82660         0.006207     -0.000000     -0.003309
     11.69112     -4.29514     -5.78621         0.000704      0.002165     -0.000315
     11.69112    -12.88543    -10.74581         0.004080      0.003469     -0.000438
     11.69112     -7.15857     -0.82660         0.007843     -0.007539     -0.007385
     11.69112    -10.02200     -5.78621        -0.049819     -0.000000     -0.003030
     13.99306    -21.47572    -12.39901        -0.000688     -0.003490      0.000476
     13.99306    -15.74886     -2.47980        -0.000123     -0.002396      0.000671
     13.99306    -18.61229     -7.43941        -0.003261     -0.000000      0.001691
     13.99306    -10.02200    -12.39901         0.012589     -0.000000      0.001130
     13.99306     -4.29514     -2.47980        -0.000123      0.002396      0.000671
     13.99306     -7.15857     -7.43941        -0.028385     -0.019428      0.018815
     13.99306    -15.74886    -12.39901        -0.000688      0.003490      0.000476
     13.99306    -10.02200     -2.47980        -0.015300      0.000000      0.024866
     13.99306    -12.88543     -7.43941        -0.028385      0.019428      0.018815
     16.34180    -24.33915    -14.05221         0.000175     -0.002769      0.000182
     16.34180    -18.61229     -4.13300        -0.006391     -0.000000     -0.002599
     16.34180    -21.47572     -9.09261         0.007278     -0.004322      0.004011
     16.34180    -12.88543    -14.05221         0.000175      0.002769      0.000182
     16.34180     -7.15857     -4.13300         0.020898     -0.000002      0.000571
     16.34180    -10.02200     -9.09261         0.290672      0.000000      0.137806
     16.34180    -18.61229    -14.05221         0.004881     -0.000000     -0.001958
     16.34180    -12.88543     -4.13300         0.020898      0.000002      0.000571
     16.34180    -15.74886     -9.09261         0.007278      0.004322      0.004011
      2.36204     -8.59029     -6.61281        -0.025721     -0.006743      0.003885
      2.36204    -11.45372    -11.57241         0.000727      0.000584     -0.005357
      2.36204     -5.72686     -1.65320        -0.000982      0.003684      0.007376
      2.36204    -14.31714     -6.61281         0.003482      0.008348      0.012186
      2.36204    -17.18057    -11.57241        -0.004033      0.003055      0.007417
      2.36204    -11.45372     -1.65320         0.006640     -0.005166      0.012432
      2.36204    -20.04400     -6.61281         0.000741      0.007869      0.002846
      2.36204    -22.90743    -11.57241         0.004466      0.001621     -0.007153
      2.36204    -17.18057     -1.65320        -0.003534      0.002110      0.001360
      4.71078    -11.45372     -8.26601        -0.006415     -0.000032      0.011777
      4.71078    -14.31714    -13.22561        -0.006684     -0.001149     -0.003145
      4.71078     -8.59029     -3.30640         0.002063     -0.003743     -0.008427
      4.71078    -17.18057     -8.26601         0.002009     -0.008695      0.003078
      4.71078    -20.04400    -13.22561        -0.006657     -0.001565      0.000987
      4.71078    -14.31714     -3.30640         0.002227     -0.004356     -0.000008
      4.71078     -5.72686     -8.26601         0.006528     -0.008983      0.006865
      4.71078     -8.59029    -13.22561        -0.003154     -0.001350     -0.000220
      4.71078     -2.86343     -3.30640        -0.006152      0.000233      0.006443
      7.01272    -14.31714     -9.91921         0.009040      0.000077      0.000506
      7.01272     -8.59029      0.00000         0.000908     -0.001323     -0.001119
      7.01272    -11.45372     -4.95960         0.009628      0.006377     -0.012507
      7.01272    -20.04400     -9.91921         0.002293     -0.004947     -0.011647
      7.01272    -14.31714      0.00000         0.000171      0.002929      0.000408
      7.01272    -17.18057     -4.95960         0.003555     -0.003356     -0.005649
      7.01272     -8.59029     -9.91921         0.005840     -0.004997      0.013303
      7.01272     -2.86343      0.00000        -0.002345      0.002310     -0.010665
      7.01272     -5.72686     -4.95960         0.001322     -0.013889     -0.008468
      9.35192    -17.18057    -11.57241        -0.003126      0.004277     -0.000346
      9.35192    -11.45372     -1.65320        -0.002887     -0.000809      0.001473
      9.35192    -14.31714     -6.61281         0.009192      0.014854     -0.001643
      9.35192    -22.90743    -11.57241         0.003047     -0.000444      0.001509
      9.35192    -17.18057     -1.65320        -0.000921      0.004308     -0.004308
      9.35192    -20.04400     -6.61281         0.005262      0.002951      0.000273
      9.35192    -11.45372    -11.57241        -0.004988     -0.001584      0.001232
      9.35192     -5.72686     -1.65320         0.002172      0.001335      0.000277
      9.35192     -8.59029     -6.61281         0.025223      0.004551      0.001152
     11.69112    -20.04400    -13.22561         0.009677     -0.006850     -0.007257
     11.69112    -14.31714     -3.30640         0.000503     -0.000459     -0.001735
     11.69112    -17.18057     -8.26601        -0.001843      0.008963      0.005617
     11.69112     -8.59029    -13.22561         0.002229      0.004198      0.013371
     11.69112     -2.86343     -3.30640         0.002810     -0.007315     -0.004694
     11.69112     -5.72686     -8.26601         0.000455     -0.002325      0.006233
     11.69112    -14.31714    -13.22561        -0.000188      0.007729      0.005195
     11.69112     -8.59029     -3.30640        -0.002956     -0.003902     -0.020260
     11.69112    -11.45372     -8.26601        -0.013645      0.015199      0.004350
     13.99306    -14.31714      0.00000         0.002159      0.002754     -0.005422
     13.99306    -17.18057     -4.95960        -0.002780      0.006723      0.001778
     13.99306    -20.04400     -9.91921        -0.004966     -0.005534      0.003980
     13.99306     -2.86343      0.00000         0.003286      0.001392     -0.000299
     13.99306     -5.72686     -4.95960        -0.005961      0.006157     -0.003774
     13.99306     -8.59029     -9.91921        -0.010005     -0.002208      0.020497
     13.99306     -8.59029      0.00000        -0.003547      0.001323     -0.002291
     13.99306    -11.45372     -4.95960        -0.042355     -0.006317     -0.013181
     13.99306    -14.31714     -9.91921         0.003501      0.002369      0.001924
     16.34180    -17.18057     -1.65320        -0.006582      0.004985      0.002881
     16.34180    -20.04400     -6.61281         0.001282     -0.013084     -0.000531
     16.34180    -22.90743    -11.57241         0.005071     -0.001441      0.001348
     16.34180     -5.72686     -1.65320         0.002028     -0.001288     -0.002807
     16.34180     -8.59029     -6.61281         0.263339     -0.056344      0.004056
     16.34180    -11.45372    -11.57241         0.017525      0.002423      0.002613
     16.34180    -11.45372     -1.65320         0.008022     -0.004969     -0.007495
     16.34180    -14.31714     -6.61281         0.015054     -0.001345     -0.000037
     16.34180    -17.18057    -11.57241        -0.002252      0.006201     -0.005238
      2.36204    -10.02200     -4.13300        -0.002642     -0.000000     -0.021150
      2.36204    -12.88543     -9.09261         0.003320      0.015653      0.004036
      2.36204    -15.74886    -14.05221        -0.005523      0.004985     -0.005498
      2.36204    -15.74886     -4.13300         0.002283     -0.002675      0.007597
      2.36204    -18.61229     -9.09261         0.002011     -0.000000     -0.002290
      2.36204    -21.47572    -14.05221        -0.005523     -0.004985     -0.005498
      2.36204     -4.29514     -4.13300         0.002283      0.002675      0.007597
      2.36204     -7.15857     -9.09261         0.003320     -0.015653      0.004036
      2.36204    -10.02200    -14.05221        -0.006364     -0.000000     -0.001148
      4.71078    -12.88543     -5.78621        -0.006444      0.014217     -0.003165
      4.71078    -15.74886    -10.74581        -0.002977     -0.007863     -0.007733
      4.71078    -10.02200     -0.82660         0.008574     -0.000000      0.001732
      4.71078    -18.61229     -5.78621         0.000496     -0.000000     -0.006722
      4.71078    -21.47572    -10.74581        -0.002977      0.007863     -0.007733
      4.71078    -15.74886     -0.82660        -0.004762     -0.003421     -0.000707
      4.71078     -7.15857     -5.78621        -0.006444     -0.014217     -0.003165
      4.71078    -10.02200    -10.74581         0.002555     -0.000000      0.001475
      4.71078     -4.29514     -0.82660        -0.004762      0.003421     -0.000707
      7.01272    -15.74886     -7.43941         0.000905      0.000501     -0.004595
      7.01272    -18.61229    -12.39901         0.008796     -0.000000      0.003160
      7.01272    -12.88543     -2.47980         0.005805      0.001620     -0.002361
      7.01272    -21.47571     -7.43941         0.000905     -0.000501     -0.004595
      7.01272    -24.33914    -12.39901        -0.000822     -0.003032      0.004196
      7.01272    -18.61228     -2.47980        -0.000874     -0.000000      0.005763
      7.01272    -10.02200     -7.43941         0.018584     -0.000000     -0.000209
      7.01272    -12.88543    -12.39901        -0.000822      0.003032      0.004196
      7.01272     -7.15857     -2.47980         0.005805     -0.001620     -0.002361
      9.35192    -18.61229     -9.09261         0.008578     -0.000000      0.007838
      9.35192    -21.47572    -14.05221        -0.001060      0.000437     -0.004733
      9.35192    -15.74886     -4.13300         0.000427     -0.005142     -0.000706
      9.35192     -7.15857     -9.09261        -0.005233     -0.010215      0.014517
      9.35192    -10.02200    -14.05221        -0.000078     -0.000000      0.000322
      9.35192     -4.29514     -4.13300         0.000427      0.005142     -0.000706
      9.35192    -12.88543     -9.09261        -0.005233      0.010215      0.014517
      9.35192    -15.74886    -14.05221        -0.001060     -0.000437     -0.004733
      9.35192    -10.02200     -4.13300         0.013026      0.000000     -0.016905
     11.69112    -21.47572    -10.74581         0.004730     -0.002456      0.004594
     11.69112    -15.74886     -0.82660         0.003451     -0.000576     -0.003348
     11.69112    -18.61229     -5.78621        -0.001761     -0.000000     -0.001797
     11.69112    -10.02200    -10.74581        -0.011459     -0.000000      0.003938
     11.69112     -4.29514     -0.82660         0.003451      0.000576     -0.003348
     11.69112     -7.15857     -5.78621        -0.002299     -0.008115     -0.002196
     11.69112    -15.74886    -10.74581         0.004730      0.002456      0.004594
     11.69112    -10.02200     -0.82660         0.010910     -0.000000     -0.009049
     11.69112    -12.88543     -5.78621        -0.002299      0.008115     -0.002196
     13.99306    -24.33914    -12.39901         0.005640     -0.000977      0.002384
     13.99306    -18.61228     -2.47980        -0.006854     -0.000000      0.001003
     13.99306    -21.47571     -7.43941         0.008373     -0.000422      0.001281
     13.99306    -12.88543    -12.39901         0.005640      0.000977      0.002384
     13.99306     -7.15857     -2.47980         0.004378      0.005850      0.006019
     13.99306    -10.02200     -7.43941        -0.076879     -0.000000      0.001337
     13.99306    -18.61229    -12.39901        -0.005799     -0.000000     -0.000293
     13.99306    -12.88543     -2.47980         0.004378     -0.005850      0.006019
     13.99306    -15.74886     -7.43941         0.008373      0.000422      0.001281
     16.34180    -10.02200    -14.05221         0.000341     -0.000000      0.000283
     16.34180     -4.29514     -4.13300         0.007516     -0.004042     -0.001592
     16.34180     -7.15857     -9.09261         0.004361      0.010189     -0.001683
     16.34180    -15.74886    -14.05221         0.001467     -0.002093      0.002565
     16.34180    -10.02200     -4.13300         0.283086     -0.000000     -0.138197
     16.34180    -12.88543     -9.09261         0.004361     -0.010189     -0.001683
     16.34180    -21.47572    -14.05221         0.001467      0.002093      0.002565
     16.34180    -15.74886     -4.13300         0.007516      0.004042     -0.001592
     16.34180    -18.61229     -9.09261        -0.004420     -0.000000      0.005524
     19.04000    -10.02200     -7.43941        -0.523887      0.000000     10.563334
     19.04000    -10.02200     -5.78620        -0.588686      0.000000    -10.607122
 -----------------------------------------------------------------------------------
    total drift:                               -0.007375      0.002087     -0.000487


--------------------------------------------------------------------------------------------------------



  FREE ENERGIE OF THE ION-ELECTRON SYSTEM (eV)
  ---------------------------------------------------
  free  energy   TOTEN  =      -930.21965517 eV

  energy  without entropy=     -930.16894920  energy(sigma->0) =     -930.19430218
 


--------------------------------------------------------------------------------------------------------


    POTLOK:  cpu time    0.8601: real time    0.8605


--------------------------------------------------------------------------------------------------------


     LOOP+:  cpu time  726.1806: real time  809.3278
    4ORBIT:  cpu time    0.0000: real time    0.0000

 total amount of memory used by VASP MPI-rank0   652136. kBytes
=======================================================================

   base      :      30000. kBytes
   nonlr-proj:      89915. kBytes
   fftplans  :      40601. kBytes
   grid      :      95147. kBytes
   one-center:       3950. kBytes
   wavefun   :     392523. kBytes
 
  
  
 General timing and accounting informations for this job:
 ========================================================
  
                  Total CPU time used (sec):      741.819
                            User time (sec):      144.403
                          System time (sec):      597.415
                         Elapsed time (sec):      828.670
  
                   Maximum memory used (kb):     1004848.
                   Average memory used (kb):           0.
  
                          Minor page faults:     27416007
                          Major page faults:           77
                 Voluntary context switches:        19324
