 252 252   0   0
  0.3043173E+02  0.1718057E-08  0.1718057E-08  0.3000000E-08  0.2000000E-15
  1.000000000000000E-004
  CAR 
 NiAl                                    
      4.81908056     -9.78461981  301      1.79393582      1.00000000
     -9.785  0.0000E+00  0.0000E+00
     -9.736  0.0000E+00  0.0000E+00
     -9.687  0.0000E+00  0.0000E+00
     -9.639  0.0000E+00  0.0000E+00
     -9.590  0.0000E+00  0.0000E+00
     -9.541  0.0000E+00  0.0000E+00
     -9.493  0.0000E+00  0.0000E+00
     -9.444  0.0000E+00  0.0000E+00
     -9.395  0.1083E-14  0.5274E-16
     -9.347  0.2221E-10  0.1081E-11
     -9.298  0.7106E-07  0.3460E-08
     -9.249  0.3634E-04  0.1772E-05
     -9.200  0.3078E-02  0.1516E-03
     -9.152  0.4579E-01  0.2381E-02
     -9.103  0.1287E+00  0.8647E-02
     -9.054  0.7482E-01  0.1229E-01
     -9.006  0.1139E+00  0.1784E-01
     -8.957  0.6056E+00  0.4732E-01
     -8.908  0.6729E+00  0.8007E-01
     -8.860  0.1477E+00  0.8726E-01
     -8.811  0.3156E-01  0.8880E-01
     -8.762  0.1138E+00  0.9434E-01
     -8.714  0.1065E+00  0.9953E-01
     -8.665  0.2217E+00  0.1103E+00
     -8.616  0.1130E+01  0.1653E+00
     -8.568  0.1360E+01  0.2315E+00
     -8.519  0.4115E+00  0.2516E+00
     -8.470  0.4703E+00  0.2745E+00
     -8.422  0.7654E+00  0.3117E+00
     -8.373  0.2587E+00  0.3243E+00
     -8.324  0.9768E-01  0.3291E+00
     -8.276  0.5482E+00  0.3558E+00
     -8.227  0.7165E+00  0.3906E+00
     -8.178  0.2142E+00  0.4011E+00
     -8.130  0.3858E+00  0.4198E+00
     -8.081  0.9106E+00  0.4642E+00
     -8.032  0.4982E+00  0.4884E+00
     -7.983  0.8789E+00  0.5312E+00
     -7.935  0.2296E+01  0.6430E+00
     -7.886  0.1282E+01  0.7054E+00
     -7.837  0.1429E+00  0.7124E+00
     -7.789  0.2987E-02  0.7125E+00
     -7.740  0.1400E-02  0.7126E+00
     -7.691  0.9035E-01  0.7170E+00
     -7.643  0.1145E+01  0.7727E+00
     -7.594  0.3021E+01  0.9198E+00
     -7.545  0.1707E+01  0.1003E+01
     -7.497  0.3240E+00  0.1019E+01
     -7.448  0.6471E+00  0.1050E+01
     -7.399  0.6387E+00  0.1081E+01
     -7.351  0.1570E+00  0.1089E+01
     -7.302  0.3963E+00  0.1108E+01
     -7.253  0.9090E+00  0.1152E+01
     -7.205  0.4665E+00  0.1175E+01
     -7.156  0.6173E+00  0.1205E+01
     -7.107  0.1543E+01  0.1280E+01
     -7.059  0.8464E+00  0.1322E+01
     -7.010  0.5663E+00  0.1349E+01
     -6.961  0.2474E+01  0.1470E+01
     -6.913  0.2608E+01  0.1596E+01
     -6.864  0.6093E+00  0.1626E+01
     -6.815  0.6260E+00  0.1657E+01
     -6.767  0.1541E+01  0.1732E+01
     -6.718  0.8263E+00  0.1772E+01
     -6.669  0.6141E+00  0.1802E+01
     -6.620  0.2581E+01  0.1927E+01
     -6.572  0.2524E+01  0.2050E+01
     -6.523  0.6107E+00  0.2080E+01
     -6.474  0.6442E+00  0.2111E+01
     -6.426  0.6547E+00  0.2143E+01
     -6.377  0.1341E+00  0.2150E+01
     -6.328  0.8625E-02  0.2150E+01
     -6.280  0.4950E-01  0.2153E+01
     -6.231  0.1457E+00  0.2160E+01
     -6.182  0.5322E+00  0.2186E+01
     -6.134  0.2611E+01  0.2313E+01
     -6.085  0.3298E+01  0.2473E+01
     -6.036  0.1454E+01  0.2544E+01
     -5.988  0.2111E+01  0.2647E+01
     -5.939  0.2951E+01  0.2790E+01
     -5.890  0.9266E+00  0.2835E+01
     -5.842  0.3129E+00  0.2851E+01
     -5.793  0.1001E+01  0.2899E+01
     -5.744  0.1247E+01  0.2960E+01
     -5.696  0.1036E+01  0.3011E+01
     -5.647  0.2606E+01  0.3137E+01
     -5.598  0.3177E+01  0.3292E+01
     -5.550  0.1300E+01  0.3355E+01
     -5.501  0.5496E+00  0.3382E+01
     -5.452  0.7889E+00  0.3421E+01
     -5.404  0.3460E+00  0.3437E+01
     -5.355  0.5375E+00  0.3464E+01
     -5.306  0.2092E+01  0.3565E+01
     -5.257  0.1715E+01  0.3649E+01
     -5.209  0.4762E+00  0.3672E+01
     -5.160  0.1365E+01  0.3739E+01
     -5.111  0.2531E+01  0.3862E+01
     -5.063  0.1852E+01  0.3952E+01
     -5.014  0.1611E+01  0.4030E+01
     -4.965  0.2379E+01  0.4146E+01
     -4.917  0.9934E+00  0.4195E+01
     -4.868  0.1337E+00  0.4201E+01
     -4.819  0.4458E+00  0.4223E+01
     -4.771  0.1506E+01  0.4296E+01
     -4.722  0.1509E+01  0.4369E+01
     -4.673  0.3050E+01  0.4518E+01
     -4.625  0.3409E+01  0.4684E+01
     -4.576  0.9712E+00  0.4731E+01
     -4.527  0.1166E+01  0.4788E+01
     -4.479  0.1850E+01  0.4878E+01
     -4.430  0.1158E+01  0.4934E+01
     -4.381  0.4894E+00  0.4958E+01
     -4.333  0.1143E+01  0.5014E+01
     -4.284  0.2085E+01  0.5115E+01
     -4.235  0.1462E+01  0.5186E+01
     -4.187  0.2581E+01  0.5312E+01
     -4.138  0.3995E+01  0.5507E+01
     -4.089  0.2307E+01  0.5619E+01
     -4.040  0.1922E+01  0.5712E+01
     -3.992  0.2177E+01  0.5818E+01
     -3.943  0.6477E+00  0.5850E+01
     -3.894  0.5791E+00  0.5878E+01
     -3.846  0.2009E+01  0.5976E+01
     -3.797  0.2419E+01  0.6094E+01
     -3.748  0.1362E+01  0.6160E+01
     -3.700  0.2032E+01  0.6259E+01
     -3.651  0.2675E+01  0.6389E+01
     -3.602  0.1213E+01  0.6448E+01
     -3.554  0.1131E+01  0.6503E+01
     -3.505  0.1978E+01  0.6599E+01
     -3.456  0.1324E+01  0.6664E+01
     -3.408  0.4177E+00  0.6684E+01
     -3.359  0.7724E-01  0.6688E+01
     -3.310  0.2675E+00  0.6701E+01
     -3.262  0.1276E+01  0.6763E+01
     -3.213  0.2319E+01  0.6876E+01
     -3.164  0.2387E+01  0.6992E+01
     -3.116  0.1782E+01  0.7079E+01
     -3.067  0.2805E+01  0.7215E+01
     -3.018  0.3112E+01  0.7367E+01
     -2.970  0.1766E+01  0.7453E+01
     -2.921  0.1947E+01  0.7548E+01
     -2.872  0.3242E+01  0.7706E+01
     -2.824  0.4179E+01  0.7909E+01
     -2.775  0.3844E+01  0.8096E+01
     -2.726  0.5131E+01  0.8346E+01
     -2.677  0.2607E+01  0.8473E+01
     -2.629  0.2963E+00  0.8487E+01
     -2.580  0.6711E-02  0.8488E+01
     -2.531  0.1420E-01  0.8488E+01
     -2.483  0.2467E+00  0.8500E+01
     -2.434  0.9796E+00  0.8548E+01
     -2.385  0.1699E+01  0.8631E+01
     -2.337  0.2234E+01  0.8739E+01
     -2.288  0.3605E+01  0.8915E+01
     -2.239  0.3340E+01  0.9077E+01
     -2.191  0.1523E+01  0.9152E+01
     -2.142  0.1336E+01  0.9217E+01
     -2.093  0.3086E+01  0.9367E+01
     -2.045  0.1833E+01  0.9456E+01
     -1.996  0.7451E+00  0.9492E+01
     -1.947  0.1290E+01  0.9555E+01
     -1.899  0.2333E+01  0.9669E+01
     -1.850  0.2507E+01  0.9791E+01
     -1.801  0.3246E+01  0.9949E+01
     -1.753  0.4573E+01  0.1017E+02
     -1.704  0.2327E+01  0.1028E+02
     -1.655  0.4435E+00  0.1031E+02
     -1.607  0.1036E+01  0.1036E+02
     -1.558  0.1836E+01  0.1045E+02
     -1.509  0.2077E+01  0.1055E+02
     -1.461  0.2016E+01  0.1065E+02
     -1.412  0.8844E+00  0.1069E+02
     -1.363  0.2864E+01  0.1083E+02
     -1.314  0.5904E+01  0.1112E+02
     -1.266  0.3109E+01  0.1127E+02
     -1.217  0.1724E+01  0.1135E+02
     -1.168  0.3313E+01  0.1151E+02
     -1.120  0.2492E+01  0.1163E+02
     -1.071  0.1388E+01  0.1170E+02
     -1.022  0.1902E+01  0.1179E+02
     -0.974  0.1853E+01  0.1188E+02
     -0.925  0.1761E+01  0.1197E+02
     -0.876  0.3149E+01  0.1212E+02
     -0.828  0.4130E+01  0.1232E+02
     -0.779  0.2030E+01  0.1242E+02
     -0.730  0.1811E+01  0.1251E+02
     -0.682  0.1749E+01  0.1260E+02
     -0.633  0.1148E+01  0.1265E+02
     -0.584  0.5815E+00  0.1268E+02
     -0.536  0.1435E+01  0.1275E+02
     -0.487  0.2660E+01  0.1288E+02
     -0.438  0.4782E+01  0.1311E+02
     -0.390  0.6000E+01  0.1340E+02
     -0.341  0.2592E+01  0.1353E+02
     -0.292  0.1324E+01  0.1359E+02
     -0.244  0.3822E+01  0.1378E+02
     -0.195  0.3812E+01  0.1397E+02
     -0.146  0.1293E+01  0.1403E+02
     -0.097  0.1156E+01  0.1409E+02
     -0.049  0.9083E+00  0.1413E+02
     -0.000  0.5739E+00  0.1416E+02
      0.049  0.2334E+01  0.1427E+02
      0.097  0.3472E+01  0.1444E+02
      0.146  0.1639E+01  0.1452E+02
      0.195  0.1794E+01  0.1461E+02
      0.243  0.2827E+01  0.1474E+02
      0.292  0.2061E+01  0.1485E+02
      0.341  0.1990E+01  0.1494E+02
      0.389  0.1749E+01  0.1503E+02
      0.438  0.1963E+01  0.1512E+02
      0.487  0.4330E+01  0.1533E+02
      0.535  0.3423E+01  0.1550E+02
      0.584  0.1736E+01  0.1558E+02
      0.633  0.1452E+01  0.1566E+02
      0.681  0.1749E+01  0.1574E+02
      0.730  0.9119E+00  0.1578E+02
      0.779  0.6676E+00  0.1582E+02
      0.827  0.1623E+01  0.1590E+02
      0.876  0.1570E+01  0.1597E+02
      0.925  0.2973E+01  0.1612E+02
      0.973  0.6392E+01  0.1643E+02
      1.022  0.6776E+01  0.1676E+02
      1.071  0.3506E+01  0.1693E+02
      1.119  0.2890E+01  0.1707E+02
      1.168  0.2354E+01  0.1718E+02
      1.217  0.1856E+01  0.1727E+02
      1.266  0.2073E+01  0.1738E+02
      1.314  0.1464E+01  0.1745E+02
      1.363  0.1582E+01  0.1752E+02
      1.412  0.2267E+01  0.1763E+02
      1.460  0.2060E+01  0.1773E+02
      1.509  0.2777E+01  0.1787E+02
      1.558  0.3633E+01  0.1805E+02
      1.606  0.3951E+01  0.1824E+02
      1.655  0.4868E+01  0.1848E+02
      1.704  0.4543E+01  0.1870E+02
      1.752  0.2694E+01  0.1883E+02
      1.801  0.1620E+01  0.1891E+02
      1.850  0.4978E+00  0.1893E+02
      1.898  0.9756E+00  0.1898E+02
      1.947  0.2941E+01  0.1912E+02
      1.996  0.5043E+01  0.1937E+02
      2.044  0.3891E+01  0.1956E+02
      2.093  0.1735E+01  0.1964E+02
      2.142  0.1848E+01  0.1973E+02
      2.190  0.1961E+01  0.1983E+02
      2.239  0.2160E+01  0.1993E+02
      2.288  0.1338E+01  0.2000E+02
      2.336  0.1150E+01  0.2005E+02
      2.385  0.2098E+01  0.2016E+02
      2.434  0.3340E+01  0.2032E+02
      2.482  0.2607E+01  0.2044E+02
      2.531  0.1728E+01  0.2053E+02
      2.580  0.2722E+01  0.2066E+02
      2.629  0.4053E+01  0.2086E+02
      2.677  0.3049E+01  0.2101E+02
      2.726  0.1338E+01  0.2107E+02
      2.775  0.2016E+01  0.2117E+02
      2.823  0.1886E+01  0.2126E+02
      2.872  0.2175E+01  0.2137E+02
      2.921  0.7138E+01  0.2172E+02
      2.969  0.8688E+01  0.2214E+02
      3.018  0.5416E+01  0.2240E+02
      3.067  0.3300E+01  0.2256E+02
      3.115  0.1221E+01  0.2262E+02
      3.164  0.7539E+00  0.2266E+02
      3.213  0.2081E+01  0.2276E+02
      3.261  0.2623E+01  0.2289E+02
      3.310  0.2820E+01  0.2302E+02
      3.359  0.3030E+01  0.2317E+02
      3.407  0.3770E+01  0.2336E+02
      3.456  0.4293E+01  0.2356E+02
      3.505  0.2766E+01  0.2370E+02
      3.553  0.2121E+01  0.2380E+02
      3.602  0.1436E+01  0.2387E+02
      3.651  0.2451E+01  0.2399E+02
      3.699  0.3118E+01  0.2414E+02
      3.748  0.2231E+01  0.2425E+02
      3.797  0.1802E+01  0.2434E+02
      3.846  0.1556E+01  0.2442E+02
      3.894  0.2757E+01  0.2455E+02
      3.943  0.4378E+01  0.2476E+02
      3.992  0.4645E+01  0.2499E+02
      4.040  0.3985E+01  0.2518E+02
      4.089  0.3467E+01  0.2535E+02
      4.138  0.2237E+01  0.2546E+02
      4.186  0.7113E+00  0.2550E+02
      4.235  0.8428E-01  0.2550E+02
      4.284  0.3560E-02  0.2550E+02
      4.332  0.3737E-04  0.2550E+02
      4.381  0.7143E-07  0.2550E+02
      4.430  0.2223E-10  0.2550E+02
      4.478  0.1083E-14  0.2550E+02
      4.527  0.0000E+00  0.2550E+02
      4.576  0.0000E+00  0.2550E+02
      4.624  0.0000E+00  0.2550E+02
      4.673  0.0000E+00  0.2550E+02
      4.722  0.0000E+00  0.2550E+02
      4.770  0.0000E+00  0.2550E+02
      4.819  0.0000E+00  0.2550E+02
