         260
 Energy:  -919.13203659999999     
 X   0.00000000       0.00000000       0.00000000    
 X   0.00000000      -17.1805725       0.00000000    
 X   0.00000000      -8.59028625      -14.8788128    
 X   30.0000000       0.00000000       0.00000000    
 X   0.00000000      -25.7708588      -14.8788128    
 X   30.0000000      -17.1805725       0.00000000    
 X   30.0000000      -8.59028625      -14.8788128    
 X   30.0000000      -25.7708588      -14.8788128    
 Al   2.33798003      -11.4537201      -6.61281013    
 Al   2.33798003      -14.3171396      -11.5724096    
 Al   2.33798003      -8.59029007      -1.65320003    
 Al   2.33798003      -17.1805706      -6.61281013    
 Al   2.33798003      -20.0440006      -11.5724096    
 Al   2.33798003      -14.3171396      -1.65320003    
 Al   2.33798003      -5.72686005      -6.61281013    
 Al   2.33798003      -8.59029007      -11.5724096    
 Al   2.33798003      -2.86343002      -1.65320003    
 Al   4.67596006      -14.3171396      -8.26601028    
 Al   4.67596006      -17.1805706      -13.2256098    
 Al   4.67596006      -11.4537201      -3.30640006    
 Al   4.67596006      -20.0440006      -8.26601028    
 Al   4.67596006      -22.9074306      -13.2256098    
 Al   4.67596006      -17.1805706      -3.30640006    
 Al   4.67596006      -8.59029007      -8.26601028    
 Al   4.67596006      -11.4537201      -13.2256098    
 Al   4.67596006      -5.72686005      -3.30640006    
 Al   7.01393986      -17.1805706      -9.91921043    
 Al   7.01393986      -11.4537201       0.00000000    
 Al   7.01393986      -14.3171396      -4.95959997    
 Al   7.01393986      -5.72686005      -9.91921043    
 Al   7.01393986       0.00000000       0.00000000    
 Al   7.01393986      -2.86343002      -4.95959997    
 Al   7.01393986      -11.4537201      -9.91921043    
 Al   7.01393986      -5.72686005       0.00000000    
 Al   7.01393986      -8.59029007      -4.95959997    
 Al   9.35192013      -20.0440006      -11.5724096    
 Al   9.35192013      -14.3171396      -1.65320003    
 Al   9.35192013      -17.1805706      -6.61281013    
 Al   9.35192013      -8.59029007      -11.5724096    
 Al   9.35192013      -2.86343002      -1.65320003    
 Al   9.35192013      -5.72686005      -6.61281013    
 Al   9.35192013      -14.3171396      -11.5724096    
 Al   9.35192013      -8.59029007      -1.65320003    
 Al   9.35192013      -11.4537201      -6.61281013    
 Al   11.6899004      -22.9074306      -13.2256098    
 Al   11.6899004      -17.1805706      -3.30640006    
 Al   11.6899004      -20.0440006      -8.26601028    
 Al   11.6899004      -11.4537201      -13.2256098    
 Al   11.6899004      -5.72686005      -3.30640006    
 Al   11.6899004      -8.59029007      -8.26601028    
 Al   11.6899004      -17.1805706      -13.2256098    
 Al   11.6899004      -11.4537201      -3.30640006    
 Al   11.6899004      -14.3171396      -8.26601028    
 Al   14.0278797       0.00000000       0.00000000    
 Al   14.0278797      -2.86343002      -4.95959997    
 Al   14.0278797      -5.72686005      -9.91921043    
 Al   14.0278797      -5.72686005       0.00000000    
 Al   14.0278797      -8.59029007      -4.95959997    
 Al   14.0278797      -11.4537201      -9.91921043    
 Al   14.0278797      -11.4537201       0.00000000    
 Al   14.0278797      -14.3171396      -4.95959997    
 Al   14.0278797      -17.1805706      -9.91921043    
 Al   16.3658600      -2.86343002      -1.65320003    
 Al   16.3658600      -5.72686005      -6.61281013    
 Al   16.3658600      -8.59029007      -11.5724096    
 Al   16.3658600      -8.59029007      -1.65320003    
 Al   16.3658600      -11.4537201      -6.61281013    
 Al   16.3658600      -14.3171396      -11.5724096    
 Al   16.3658600      -14.3171396      -1.65320003    
 Al   16.3658600      -17.1805706      -6.61281013    
 Al   16.3658600      -20.0440006      -11.5724096    
 Al   2.33798003      -7.15856981      -4.13299990    
 Al   2.33798003      -10.0220003      -9.09261036    
 Al   2.33798003      -12.8854303      -14.0522099    
 Al   2.33798003      -12.8854303      -4.13299990    
 Al   2.33798003      -15.7488604      -9.09261036    
 Al   2.33798003      -18.6122894      -14.0522099    
 Al   2.33798003      -18.6122894      -4.13299990    
 Al   2.33798003      -21.4757195      -9.09261036    
 Al   2.33798003      -24.3391495      -14.0522099    
 Al   4.67596006      -10.0220003      -5.78621006    
 Al   4.67596006      -12.8854303      -10.7458096    
 Al   4.67596006      -7.15856981     -0.826600015    
 Al   4.67596006      -15.7488604      -5.78621006    
 Al   4.67596006      -18.6122894      -10.7458096    
 Al   4.67596006      -12.8854303     -0.826600015    
 Al   4.67596006      -4.29513979      -5.78621006    
 Al   4.67596006      -7.15856981      -10.7458096    
 Al   4.67596006      -1.43171000     -0.826600015    
 Al   7.01393986      -12.8854303      -7.43941021    
 Al   7.01393986      -15.7488604      -12.3990097    
 Al   7.01393986      -10.0220003      -2.47979999    
 Al   7.01393986      -18.6122894      -7.43941021    
 Al   7.01393986      -21.4757195      -12.3990097    
 Al   7.01393986      -15.7488604      -2.47979999    
 Al   7.01393986      -7.15856981      -7.43941021    
 Al   7.01393986      -10.0220003      -12.3990097    
 Al   7.01393986      -4.29513979      -2.47979999    
 Al   9.35192013      -15.7488604      -9.09261036    
 Al   9.35192013      -18.6122894      -14.0522099    
 Al   9.35192013      -12.8854303      -4.13299990    
 Al   9.35192013      -21.4757195      -9.09261036    
 Al   9.35192013      -24.3391495      -14.0522099    
 Al   9.35192013      -18.6122894      -4.13299990    
 Al   9.35192013      -10.0220003      -9.09261036    
 Al   9.35192013      -12.8854303      -14.0522099    
 Al   9.35192013      -7.15856981      -4.13299990    
 Al   11.6899004      -18.6122894      -10.7458096    
 Al   11.6899004      -12.8854303     -0.826600015    
 Al   11.6899004      -15.7488604      -5.78621006    
 Al   11.6899004      -7.15856981      -10.7458096    
 Al   11.6899004      -1.43171000     -0.826600015    
 Al   11.6899004      -4.29513979      -5.78621006    
 Al   11.6899004      -12.8854303      -10.7458096    
 Al   11.6899004      -7.15856981     -0.826600015    
 Al   11.6899004      -10.0220003      -5.78621006    
 Al   14.0278797      -21.4757195      -12.3990097    
 Al   14.0278797      -15.7488604      -2.47979999    
 Al   14.0278797      -18.6122894      -7.43941021    
 Al   14.0278797      -10.0220003      -12.3990097    
 Al   14.0278797      -4.29513979      -2.47979999    
 Al   14.0278797      -7.15856981      -7.43941021    
 Al   14.0278797      -15.7488604      -12.3990097    
 Al   14.0278797      -10.0220003      -2.47979999    
 Al   14.0278797      -12.8854303      -7.43941021    
 Al   16.3658600      -24.3391495      -14.0522099    
 Al   16.3658600      -18.6122894      -4.13299990    
 Al   16.3658600      -21.4757195      -9.09261036    
 Al   16.3658600      -12.8854303      -14.0522099    
 Al   16.3658600      -7.15856981      -4.13299990    
 Al   16.3658600      -10.0220003      -9.09261036    
 Al   16.3658600      -18.6122894      -14.0522099    
 Al   16.3658600      -12.8854303      -4.13299990    
 Al   16.3658600      -15.7488604      -9.09261036    
 Al   2.33798003      -8.59029007      -6.61281013    
 Al   2.33798003      -11.4537201      -11.5724096    
 Al   2.33798003      -5.72686005      -1.65320003    
 Al   2.33798003      -14.3171396      -6.61281013    
 Al   2.33798003      -17.1805706      -11.5724096    
 Al   2.33798003      -11.4537201      -1.65320003    
 Al   2.33798003      -20.0440006      -6.61281013    
 Al   2.33798003      -22.9074306      -11.5724096    
 Al   2.33798003      -17.1805706      -1.65320003    
 Al   4.67596006      -11.4537201      -8.26601028    
 Al   4.67596006      -14.3171396      -13.2256098    
 Al   4.67596006      -8.59029007      -3.30640006    
 Al   4.67596006      -17.1805706      -8.26601028    
 Al   4.67596006      -20.0440006      -13.2256098    
 Al   4.67596006      -14.3171396      -3.30640006    
 Al   4.67596006      -5.72686005      -8.26601028    
 Al   4.67596006      -8.59029007      -13.2256098    
 Al   4.67596006      -2.86343002      -3.30640006    
 Al   7.01393986      -14.3171396      -9.91921043    
 Al   7.01393986      -8.59029007       0.00000000    
 Al   7.01393986      -11.4537201      -4.95959997    
 Al   7.01393986      -20.0440006      -9.91921043    
 Al   7.01393986      -14.3171396       0.00000000    
 Al   7.01393986      -17.1805706      -4.95959997    
 Al   7.01393986      -8.59029007      -9.91921043    
 Al   7.01393986      -2.86343002       0.00000000    
 Al   7.01393986      -5.72686005      -4.95959997    
 Al   9.35192013      -17.1805706      -11.5724096    
 Al   9.35192013      -11.4537201      -1.65320003    
 Al   9.35192013      -14.3171396      -6.61281013    
 Al   9.35192013      -22.9074306      -11.5724096    
 Al   9.35192013      -17.1805706      -1.65320003    
 Al   9.35192013      -20.0440006      -6.61281013    
 Al   9.35192013      -11.4537201      -11.5724096    
 Al   9.35192013      -5.72686005      -1.65320003    
 Al   9.35192013      -8.59029007      -6.61281013    
 Al   11.6899004      -20.0440006      -13.2256098    
 Al   11.6899004      -14.3171396      -3.30640006    
 Al   11.6899004      -17.1805706      -8.26601028    
 Al   11.6899004      -8.59029007      -13.2256098    
 Al   11.6899004      -2.86343002      -3.30640006    
 Al   11.6899004      -5.72686005      -8.26601028    
 Al   11.6899004      -14.3171396      -13.2256098    
 Al   11.6899004      -8.59029007      -3.30640006    
 Al   11.6899004      -11.4537201      -8.26601028    
 Al   14.0278797      -14.3171396       0.00000000    
 Al   14.0278797      -17.1805706      -4.95959997    
 Al   14.0278797      -20.0440006      -9.91921043    
 Al   14.0278797      -2.86343002       0.00000000    
 Al   14.0278797      -5.72686005      -4.95959997    
 Al   14.0278797      -8.59029007      -9.91921043    
 Al   14.0278797      -8.59029007       0.00000000    
 Al   14.0278797      -11.4537201      -4.95959997    
 Al   14.0278797      -14.3171396      -9.91921043    
 Al   16.3658600      -17.1805706      -1.65320003    
 Al   16.3658600      -20.0440006      -6.61281013    
 Al   16.3658600      -22.9074306      -11.5724096    
 Al   16.3658600      -5.72686005      -1.65320003    
 Al   16.3658600      -8.59029007      -6.61281013    
 Al   16.3658600      -11.4537201      -11.5724096    
 Al   16.3658600      -11.4537201      -1.65320003    
 Al   16.3658600      -14.3171396      -6.61281013    
 Al   16.3658600      -17.1805706      -11.5724096    
 Al   2.33798003      -10.0220003      -4.13299990    
 Al   2.33798003      -12.8854303      -9.09261036    
 Al   2.33798003      -15.7488604      -14.0522099    
 Al   2.33798003      -15.7488604      -4.13299990    
 Al   2.33798003      -18.6122894      -9.09261036    
 Al   2.33798003      -21.4757195      -14.0522099    
 Al   2.33798003      -4.29513979      -4.13299990    
 Al   2.33798003      -7.15856981      -9.09261036    
 Al   2.33798003      -10.0220003      -14.0522099    
 Al   4.67596006      -12.8854303      -5.78621006    
 Al   4.67596006      -15.7488604      -10.7458096    
 Al   4.67596006      -10.0220003     -0.826600015    
 Al   4.67596006      -18.6122894      -5.78621006    
 Al   4.67596006      -21.4757195      -10.7458096    
 Al   4.67596006      -15.7488604     -0.826600015    
 Al   4.67596006      -7.15856981      -5.78621006    
 Al   4.67596006      -10.0220003      -10.7458096    
 Al   4.67596006      -4.29513979     -0.826600015    
 Al   7.01393986      -15.7488604      -7.43941021    
 Al   7.01393986      -18.6122894      -12.3990097    
 Al   7.01393986      -12.8854303      -2.47979999    
 Al   7.01393986      -4.29513979      -7.43941021    
 Al   7.01393986      -7.15856981      -12.3990097    
 Al   7.01393986      -1.43171000      -2.47979999    
 Al   7.01393986      -10.0220003      -7.43941021    
 Al   7.01393986      -12.8854303      -12.3990097    
 Al   7.01393986      -7.15856981      -2.47979999    
 Al   9.35192013      -18.6122894      -9.09261036    
 Al   9.35192013      -21.4757195      -14.0522099    
 Al   9.35192013      -15.7488604      -4.13299990    
 Al   9.35192013      -7.15856981      -9.09261036    
 Al   9.35192013      -10.0220003      -14.0522099    
 Al   9.35192013      -4.29513979      -4.13299990    
 Al   9.35192013      -12.8854303      -9.09261036    
 Al   9.35192013      -15.7488604      -14.0522099    
 Al   9.35192013      -10.0220003      -4.13299990    
 Al   11.6899004      -21.4757195      -10.7458096    
 Al   11.6899004      -15.7488604     -0.826600015    
 Al   11.6899004      -18.6122894      -5.78621006    
 Al   11.6899004      -10.0220003      -10.7458096    
 Al   11.6899004      -4.29513979     -0.826600015    
 Al   11.6899004      -7.15856981      -5.78621006    
 Al   11.6899004      -15.7488604      -10.7458096    
 Al   11.6899004      -10.0220003     -0.826600015    
 Al   11.6899004      -12.8854303      -5.78621006    
 Al   14.0278797      -7.15856981      -12.3990097    
 Al   14.0278797      -1.43171000      -2.47979999    
 Al   14.0278797      -4.29513979      -7.43941021    
 Al   14.0278797      -12.8854303      -12.3990097    
 Al   14.0278797      -7.15856981      -2.47979999    
 Al   14.0278797      -10.0220003      -7.43941021    
 Al   14.0278797      -18.6122894      -12.3990097    
 Al   14.0278797      -12.8854303      -2.47979999    
 Al   14.0278797      -15.7488604      -7.43941021    
 Al   16.3658600      -10.0220003      -14.0522099    
 Al   16.3658600      -4.29513979      -4.13299990    
 Al   16.3658600      -7.15856981      -9.09261036    
 Al   16.3658600      -15.7488604      -14.0522099    
 Al   16.3658600      -10.0220003      -4.13299990    
 Al   16.3658600      -12.8854303      -9.09261036    
 Al   16.3658600      -21.4757195      -14.0522099    
 Al   16.3658600      -15.7488604      -4.13299990    
 Al   16.3658600      -18.6122894      -9.09261036    
         260
 Energy:  -919.17022050000003     
 X   0.00000000       0.00000000       0.00000000    
 X   0.00000000      -17.1805725       0.00000000    
 X   0.00000000      -8.59028625      -14.8788128    
 X   30.0000000       0.00000000       0.00000000    
 X   0.00000000      -25.7708588      -14.8788128    
 X   30.0000000      -17.1805725       0.00000000    
 X   30.0000000      -8.59028625      -14.8788128    
 X   30.0000000      -25.7708588      -14.8788128    
 Al   2.33759999      -11.4537201      -6.61281013    
 Al   2.33759999      -14.3171396      -11.5724096    
 Al   2.33759999      -8.59029007      -1.65320003    
 Al   2.33759999      -17.1805706      -6.61281013    
 Al   2.33759999      -20.0440006      -11.5724096    
 Al   2.33759999      -14.3171396      -1.65320003    
 Al   2.33759999      -5.72686005      -6.61281013    
 Al   2.33759999      -8.59029007      -11.5724096    
 Al   2.33759999      -2.86343002      -1.65320003    
 Al   4.67857981      -14.3171396      -8.26601028    
 Al   4.67857981      -17.1805706      -13.2256098    
 Al   4.67857981      -11.4537201      -3.30640006    
 Al   4.67857981      -20.0440006      -8.26601028    
 Al   4.67857981      -22.9074306      -13.2256098    
 Al   4.67857981      -17.1805706      -3.30640006    
 Al   4.67857981      -8.59029007      -8.26601028    
 Al   4.67857981      -11.4537201      -13.2256098    
 Al   4.67857981      -5.72686005      -3.30640006    
 Al   7.01189995      -17.1805706      -9.91921043    
 Al   7.01189995      -11.4537201       0.00000000    
 Al   7.01189995      -14.3171396      -4.95959997    
 Al   7.01189995      -5.72686005      -9.91921043    
 Al   7.01189995       0.00000000       0.00000000    
 Al   7.01189995      -2.86343002      -4.95959997    
 Al   7.01189995      -11.4537201      -9.91921043    
 Al   7.01189995      -5.72686005       0.00000000    
 Al   7.01189995      -8.59029007      -4.95959997    
 Al   9.35192013      -20.0440006      -11.5724096    
 Al   9.35192013      -14.3171396      -1.65320003    
 Al   9.35192013      -17.1805706      -6.61281013    
 Al   9.35192013      -8.59029007      -11.5724096    
 Al   9.35192013      -2.86343002      -1.65320003    
 Al   9.35192013      -5.72686005      -6.61281013    
 Al   9.35192013      -14.3171396      -11.5724096    
 Al   9.35192013      -8.59029007      -1.65320003    
 Al   9.35192013      -11.4537201      -6.61281013    
 Al   11.6919403      -22.9074306      -13.2256098    
 Al   11.6919403      -17.1805706      -3.30640006    
 Al   11.6919403      -20.0440006      -8.26601028    
 Al   11.6919403      -11.4537201      -13.2256098    
 Al   11.6919403      -5.72686005      -3.30640006    
 Al   11.6919403      -8.59029007      -8.26601028    
 Al   11.6919403      -17.1805706      -13.2256098    
 Al   11.6919403      -11.4537201      -3.30640006    
 Al   11.6919403      -14.3171396      -8.26601028    
 Al   14.0252600      -0.00000000       0.00000000    
 Al   14.0252600      -2.86343002      -4.95959997    
 Al   14.0252600      -5.72686005      -9.91921043    
 Al   14.0252600      -5.72686005       0.00000000    
 Al   14.0252600      -8.59029007      -4.95959997    
 Al   14.0252600      -11.4537201      -9.91921043    
 Al   14.0252600      -11.4537201       0.00000000    
 Al   14.0252600      -14.3171396      -4.95959997    
 Al   14.0252600      -17.1805706      -9.91921043    
 Al   16.3662395      -2.86343002      -1.65320003    
 Al   16.3662395      -5.72686005      -6.61281013    
 Al   16.3662395      -8.59029007      -11.5724096    
 Al   16.3662395      -8.59029007      -1.65320003    
 Al   16.3662395      -11.4537201      -6.61281013    
 Al   16.3662395      -14.3171396      -11.5724096    
 Al   16.3662395      -14.3171396      -1.65320003    
 Al   16.3662395      -17.1805706      -6.61281013    
 Al   16.3662395      -20.0440006      -11.5724096    
 Al   2.33759999      -7.15856981      -4.13299990    
 Al   2.33759999      -10.0220003      -9.09261036    
 Al   2.33759999      -12.8854303      -14.0522099    
 Al   2.33759999      -12.8854303      -4.13299990    
 Al   2.33759999      -15.7488604      -9.09261036    
 Al   2.33759999      -18.6122894      -14.0522099    
 Al   2.33759999      -18.6122894      -4.13299990    
 Al   2.33759999      -21.4757195      -9.09261036    
 Al   2.33759999      -24.3391495      -14.0522099    
 Al   4.67857981      -10.0220003      -5.78621006    
 Al   4.67857981      -12.8854303      -10.7458096    
 Al   4.67857981      -7.15856981     -0.826600015    
 Al   4.67857981      -15.7488604      -5.78621006    
 Al   4.67857981      -18.6122894      -10.7458096    
 Al   4.67857981      -12.8854303     -0.826600015    
 Al   4.67857981      -4.29513979      -5.78621006    
 Al   4.67857981      -7.15856981      -10.7458096    
 Al   4.67857981      -1.43171000     -0.826600015    
 Al   7.01189995      -12.8854303      -7.43941021    
 Al   7.01189995      -15.7488604      -12.3990097    
 Al   7.01189995      -10.0220003      -2.47979999    
 Al   7.01189995      -18.6122894      -7.43941021    
 Al   7.01189995      -21.4757195      -12.3990097    
 Al   7.01189995      -15.7488604      -2.47979999    
 Al   7.01189995      -7.15856981      -7.43941021    
 Al   7.01189995      -10.0220003      -12.3990097    
 Al   7.01189995      -4.29513979      -2.47979999    
 Al   9.35192013      -15.7488604      -9.09261036    
 Al   9.35192013      -18.6122894      -14.0522099    
 Al   9.35192013      -12.8854303      -4.13299990    
 Al   9.35192013      -21.4757195      -9.09261036    
 Al   9.35192013      -24.3391495      -14.0522099    
 Al   9.35192013      -18.6122894      -4.13299990    
 Al   9.35192013      -10.0220003      -9.09261036    
 Al   9.35192013      -12.8854303      -14.0522099    
 Al   9.35192013      -7.15856981      -4.13299990    
 Al   11.6919403      -18.6122894      -10.7458096    
 Al   11.6919403      -12.8854303     -0.826600015    
 Al   11.6919403      -15.7488604      -5.78621006    
 Al   11.6919403      -7.15856981      -10.7458096    
 Al   11.6919403      -1.43171000     -0.826600015    
 Al   11.6919403      -4.29513979      -5.78621006    
 Al   11.6919403      -12.8854303      -10.7458096    
 Al   11.6919403      -7.15856981     -0.826600015    
 Al   11.6919403      -10.0220003      -5.78621006    
 Al   14.0252600      -21.4757195      -12.3990097    
 Al   14.0252600      -15.7488604      -2.47979999    
 Al   14.0252600      -18.6122894      -7.43941021    
 Al   14.0252600      -10.0220003      -12.3990097    
 Al   14.0252600      -4.29513979      -2.47979999    
 Al   14.0252600      -7.15856981      -7.43941021    
 Al   14.0252600      -15.7488604      -12.3990097    
 Al   14.0252600      -10.0220003      -2.47979999    
 Al   14.0252600      -12.8854303      -7.43941021    
 Al   16.3662395      -24.3391495      -14.0522099    
 Al   16.3662395      -18.6122894      -4.13299990    
 Al   16.3662395      -21.4757195      -9.09261036    
 Al   16.3662395      -12.8854303      -14.0522099    
 Al   16.3662395      -7.15856981      -4.13299990    
 Al   16.3662395      -10.0220003      -9.09261036    
 Al   16.3662395      -18.6122894      -14.0522099    
 Al   16.3662395      -12.8854303      -4.13299990    
 Al   16.3662395      -15.7488604      -9.09261036    
 Al   2.33759999      -8.59029007      -6.61281013    
 Al   2.33759999      -11.4537201      -11.5724096    
 Al   2.33759999      -5.72686005      -1.65320003    
 Al   2.33759999      -14.3171396      -6.61281013    
 Al   2.33759999      -17.1805706      -11.5724096    
 Al   2.33759999      -11.4537201      -1.65320003    
 Al   2.33759999      -20.0440006      -6.61281013    
 Al   2.33759999      -22.9074306      -11.5724096    
 Al   2.33759999      -17.1805706      -1.65320003    
 Al   4.67857981      -11.4537201      -8.26601028    
 Al   4.67857981      -14.3171396      -13.2256098    
 Al   4.67857981      -8.59029007      -3.30640006    
 Al   4.67857981      -17.1805706      -8.26601028    
 Al   4.67857981      -20.0440006      -13.2256098    
 Al   4.67857981      -14.3171396      -3.30640006    
 Al   4.67857981      -5.72686005      -8.26601028    
 Al   4.67857981      -8.59029007      -13.2256098    
 Al   4.67857981      -2.86343002      -3.30640006    
 Al   7.01189995      -14.3171396      -9.91921043    
 Al   7.01189995      -8.59029007       0.00000000    
 Al   7.01189995      -11.4537201      -4.95959997    
 Al   7.01189995      -20.0440006      -9.91921043    
 Al   7.01189995      -14.3171396       0.00000000    
 Al   7.01189995      -17.1805706      -4.95959997    
 Al   7.01189995      -8.59029007      -9.91921043    
 Al   7.01189995      -2.86343002       0.00000000    
 Al   7.01189995      -5.72686005      -4.95959997    
 Al   9.35192013      -17.1805706      -11.5724096    
 Al   9.35192013      -11.4537201      -1.65320003    
 Al   9.35192013      -14.3171396      -6.61281013    
 Al   9.35192013      -22.9074306      -11.5724096    
 Al   9.35192013      -17.1805706      -1.65320003    
 Al   9.35192013      -20.0440006      -6.61281013    
 Al   9.35192013      -11.4537201      -11.5724096    
 Al   9.35192013      -5.72686005      -1.65320003    
 Al   9.35192013      -8.59029007      -6.61281013    
 Al   11.6919403      -20.0440006      -13.2256098    
 Al   11.6919403      -14.3171396      -3.30640006    
 Al   11.6919403      -17.1805706      -8.26601028    
 Al   11.6919403      -8.59029007      -13.2256098    
 Al   11.6919403      -2.86343002      -3.30640006    
 Al   11.6919403      -5.72686005      -8.26601028    
 Al   11.6919403      -14.3171396      -13.2256098    
 Al   11.6919403      -8.59029007      -3.30640006    
 Al   11.6919403      -11.4537201      -8.26601028    
 Al   14.0252600      -14.3171396       0.00000000    
 Al   14.0252600      -17.1805706      -4.95959997    
 Al   14.0252600      -20.0440006      -9.91921043    
 Al   14.0252600      -2.86343002       0.00000000    
 Al   14.0252600      -5.72686005      -4.95959997    
 Al   14.0252600      -8.59029007      -9.91921043    
 Al   14.0252600      -8.59029007       0.00000000    
 Al   14.0252600      -11.4537201      -4.95959997    
 Al   14.0252600      -14.3171396      -9.91921043    
 Al   16.3662395      -17.1805706      -1.65320003    
 Al   16.3662395      -20.0440006      -6.61281013    
 Al   16.3662395      -22.9074306      -11.5724096    
 Al   16.3662395      -5.72686005      -1.65320003    
 Al   16.3662395      -8.59029007      -6.61281013    
 Al   16.3662395      -11.4537201      -11.5724096    
 Al   16.3662395      -11.4537201      -1.65320003    
 Al   16.3662395      -14.3171396      -6.61281013    
 Al   16.3662395      -17.1805706      -11.5724096    
 Al   2.33759999      -10.0220003      -4.13299990    
 Al   2.33759999      -12.8854303      -9.09261036    
 Al   2.33759999      -15.7488604      -14.0522099    
 Al   2.33759999      -15.7488604      -4.13299990    
 Al   2.33759999      -18.6122894      -9.09261036    
 Al   2.33759999      -21.4757195      -14.0522099    
 Al   2.33759999      -4.29513979      -4.13299990    
 Al   2.33759999      -7.15856981      -9.09261036    
 Al   2.33759999      -10.0220003      -14.0522099    
 Al   4.67857981      -12.8854303      -5.78621006    
 Al   4.67857981      -15.7488604      -10.7458096    
 Al   4.67857981      -10.0220003     -0.826600015    
 Al   4.67857981      -18.6122894      -5.78621006    
 Al   4.67857981      -21.4757195      -10.7458096    
 Al   4.67857981      -15.7488604     -0.826600015    
 Al   4.67857981      -7.15856981      -5.78621006    
 Al   4.67857981      -10.0220003      -10.7458096    
 Al   4.67857981      -4.29513979     -0.826600015    
 Al   7.01189995      -15.7488604      -7.43941021    
 Al   7.01189995      -18.6122894      -12.3990097    
 Al   7.01189995      -12.8854303      -2.47979999    
 Al   7.01189995      -4.29513979      -7.43941021    
 Al   7.01189995      -7.15856981      -12.3990097    
 Al   7.01189995      -1.43171000      -2.47979999    
 Al   7.01189995      -10.0220003      -7.43941021    
 Al   7.01189995      -12.8854303      -12.3990097    
 Al   7.01189995      -7.15856981      -2.47979999    
 Al   9.35192013      -18.6122894      -9.09261036    
 Al   9.35192013      -21.4757195      -14.0522099    
 Al   9.35192013      -15.7488604      -4.13299990    
 Al   9.35192013      -7.15856981      -9.09261036    
 Al   9.35192013      -10.0220003      -14.0522099    
 Al   9.35192013      -4.29513979      -4.13299990    
 Al   9.35192013      -12.8854303      -9.09261036    
 Al   9.35192013      -15.7488604      -14.0522099    
 Al   9.35192013      -10.0220003      -4.13299990    
 Al   11.6919403      -21.4757195      -10.7458096    
 Al   11.6919403      -15.7488604     -0.826600015    
 Al   11.6919403      -18.6122894      -5.78621006    
 Al   11.6919403      -10.0220003      -10.7458096    
 Al   11.6919403      -4.29513979     -0.826600015    
 Al   11.6919403      -7.15856981      -5.78621006    
 Al   11.6919403      -15.7488604      -10.7458096    
 Al   11.6919403      -10.0220003     -0.826600015    
 Al   11.6919403      -12.8854303      -5.78621006    
 Al   14.0252600      -7.15856981      -12.3990097    
 Al   14.0252600      -1.43171000      -2.47979999    
 Al   14.0252600      -4.29513979      -7.43941021    
 Al   14.0252600      -12.8854303      -12.3990097    
 Al   14.0252600      -7.15856981      -2.47979999    
 Al   14.0252600      -10.0220003      -7.43941021    
 Al   14.0252600      -18.6122894      -12.3990097    
 Al   14.0252600      -12.8854303      -2.47979999    
 Al   14.0252600      -15.7488604      -7.43941021    
 Al   16.3662395      -10.0220003      -14.0522099    
 Al   16.3662395      -4.29513979      -4.13299990    
 Al   16.3662395      -7.15856981      -9.09261036    
 Al   16.3662395      -15.7488604      -14.0522099    
 Al   16.3662395      -10.0220003      -4.13299990    
 Al   16.3662395      -12.8854303      -9.09261036    
 Al   16.3662395      -21.4757195      -14.0522099    
 Al   16.3662395      -15.7488604      -4.13299990    
 Al   16.3662395      -18.6122894      -9.09261036    
         260
 Energy:  -919.24345189999997     
 X   0.00000000       0.00000000       0.00000000    
 X   0.00000000      -17.1805725       0.00000000    
 X   0.00000000      -8.59028625      -14.8788128    
 X   30.0000000       0.00000000       0.00000000    
 X   0.00000000      -25.7708588      -14.8788128    
 X   30.0000000      -17.1805725       0.00000000    
 X   30.0000000      -8.59028625      -14.8788128    
 X   30.0000000      -25.7708588      -14.8788128    
 Al   2.33646989      -11.4537201      -6.61281013    
 Al   2.33646989      -14.3171396      -11.5724096    
 Al   2.33646989      -8.59029007      -1.65320003    
 Al   2.33646989      -17.1805706      -6.61281013    
 Al   2.33646989      -20.0440006      -11.5724096    
 Al   2.33646989      -14.3171396      -1.65320003    
 Al   2.33646989      -5.72686005      -6.61281013    
 Al   2.33646989      -8.59029007      -11.5724096    
 Al   2.33646989      -2.86343002      -1.65320003    
 Al   4.68642998      -14.3171396      -8.26601028    
 Al   4.68642998      -17.1805706      -13.2256098    
 Al   4.68642998      -11.4537201      -3.30640006    
 Al   4.68642998      -20.0440006      -8.26601028    
 Al   4.68642998      -22.9074306      -13.2256098    
 Al   4.68642998      -17.1805706      -3.30640006    