 vasp.5.4.4.18Apr17-6-g9f103f2a35 (build May 02 2017 15:33:50) complex          
  
 executed on Intel-16.0.3.210-OMP date 2018.07.06  12:39:22
 running on    6 total cores
 distrk:  each k-point on    6 cores,    1 groups
 distr:  one band on NCORES_PER_BAND=   1 cores,    6 groups


--------------------------------------------------------------------------------------------------------


 INCAR:
 POTCAR:    PAW Al_GW 19Mar2012                   

 ----------------------------------------------------------------------------- 
|                                                                             |
|           W    W    AA    RRRRR   N    N  II  N    N   GGGG   !!!           |
|           W    W   A  A   R    R  NN   N  II  NN   N  G    G  !!!           |
|           W    W  A    A  R    R  N N  N  II  N N  N  G       !!!           |
|           W WW W  AAAAAA  RRRRR   N  N N  II  N  N N  G  GGG   !            |
|           WW  WW  A    A  R   R   N   NN  II  N   NN  G    G                |
|           W    W  A    A  R    R  N    N  II  N    N   GGGG   !!!           |
|                                                                             |
|      For optimal performance we recommend to set                            |
|        NCORE= 4 - approx SQRT( number of cores)                             |
|      NCORE specifies how many cores store one orbital (NPAR=cpu/NCORE).     |
|      This setting can  greatly improve the performance of VASP for DFT.     |
|      The default,   NCORE=1            might be grossly inefficient         |
|      on modern multi-core architectures or massively parallel machines.     |
|      Do your own testing !!!!                                               |
|      Unfortunately you need to use the default for GW and RPA calculations. |
|      (for HF NCORE is supported but not extensively tested yet)             |
|                                                                             |
 ----------------------------------------------------------------------------- 

 POTCAR:    PAW Al_GW 19Mar2012                   
   VRHFIN =Al: s2p1                                                             
   LEXCH  = PE                                                                  
   EATOM  =    53.5387 eV,    3.9350 Ry                                         
                                                                                
   TITEL  = PAW Al_GW 19Mar2012                                                 
   LULTRA =        F    use ultrasoft PP ?                                      
   IUNSCR =        1    unscreen: 0-lin 1-nonlin 2-no                           
   RPACOR =    1.500    partial core radius                                     
   POMASS =   26.982; ZVAL   =    3.000    mass and valenz                      
   RCORE  =    2.000    outmost cutoff radius                                   
   RWIGS  =    2.000; RWIGS  =    1.058    wigner-seitz radius (au A)           
   ENMAX  =  240.300; ENMIN  =  180.225 eV                                      
   ICORE  =        3    local potential                                         
   LCOR   =        T    correct aug charges                                     
   LPAW   =        T    paw PP                                                  
   EAUG   =  482.059                                                            
   DEXC   =    0.000                                                            
   RMAX   =    2.051    core radius for proj-oper                               
   RAUG   =    1.300    factor for augmentation sphere                          
   RDEP   =    2.096    radius for radial grids                                 
   RDEPT  =    1.856    core radius for aug-charge                              
                                                                                
   Atomic configuration                                                         
    7 entries                                                                   
     n  l   j            E        occ.                                          
     1  0  0.50     -1511.1048   2.0000                                         
     2  0  0.50      -108.1629   2.0000                                         
     2  1  1.50       -69.6402   6.0000                                         
     3  0  0.50        -7.7528   2.0000                                         
     3  1  1.50        -2.7121   1.0000                                         
     3  2  2.50        -2.7212   0.0000                                         
     4  3  2.50        -2.7212   0.0000                                         
   Description                                                                  
     l       E           TYP  RCUT    TYP  RCUT                                 
     0     -7.7528455     23  1.900                                             
     0     68.0291300     23  1.900                                             
     1     -2.7120682     23  1.900                                             
     1     68.0291300     23  1.900                                             
     2     -1.3605826     23  1.900                                             
     2     81.6349560     23  1.900                                             
     3     74.8320430     23  2.000                                             
  local pseudopotential read in
  partial core-charges read in
  partial kinetic energy density read in
  kinetic energy density of atom read in
  atomic valenz-charges read in
  non local Contribution for L=           0  read in
    real space projection operators read in
  non local Contribution for L=           0  read in
    real space projection operators read in
  non local Contribution for L=           1  read in
    real space projection operators read in
  non local Contribution for L=           1  read in
    real space projection operators read in
  non local Contribution for L=           2  read in
    real space projection operators read in
  non local Contribution for L=           2  read in
    real space projection operators read in
    PAW grid and wavefunctions read in
 
   number of l-projection  operators is LMAX  =           6
   number of lm-projection operators is LMMAX =          18
 
 Optimization of the real space projectors (new method)

 maximal supplied QI-value         = 18.90
 optimisation between [QCUT,QGAM] = [  8.69, 17.57] = [ 21.16, 86.49] Ry 
 Optimized for a Real-space Cutoff    1.59 Angstroem

   l    n(q)    QCUT    max X(q) W(low)/X(q) W(high)/X(q)  e(spline) 
   0      8     8.693    11.519    0.12E-03    0.31E-04    0.21E-06
   0      8     8.693     5.834    0.89E-04    0.32E-04    0.16E-06
   1      8     8.693    10.132    0.25E-03    0.39E-03    0.25E-06
   1      8     8.693     3.004    0.16E-03    0.27E-03    0.22E-06
   2      7     8.693     3.169    0.39E-03    0.93E-03    0.44E-06
   2      7     8.693     1.605    0.70E-04    0.91E-04    0.19E-06
  PAW Al_GW 19Mar2012                   :
 energy of atom  1       EATOM=  -53.5387
 kinetic energy error for atom=    0.0011 (will be added to EATOM!!)
 
 
 POSCAR: New structure                           
  positions in cartesian coordinates
  No initial velocities read in
 exchange correlation table for  LEXCH =        8
   RHO(1)=    0.500       N(1)  =     2000
   RHO(2)=  100.500       N(2)  =     4000
 


--------------------------------------------------------------------------------------------------------


 ion  position               nearest neighbor table
   1  0.444  0.444  0.078-
   2  0.444  0.778  0.078-
   3  0.444  0.111  0.078-
   4  0.778  0.444  0.078-
   5  0.778  0.778  0.078-
   6  0.778  0.111  0.078-
   7  0.111  0.444  0.078-
   8  0.111  0.778  0.078-
   9  0.111  0.111  0.078-
  10  0.556  0.556  0.156-
  11  0.556  0.889  0.156-
  12  0.556  0.222  0.156-
  13  0.889  0.556  0.156-
  14  0.889  0.889  0.156-
  15  0.889  0.222  0.156-
  16  0.222  0.556  0.156-
  17  0.222  0.889  0.156-
  18  0.222  0.222  0.156-
  19  0.667  0.667  0.234-
  20  0.667  0.000  0.234-
  21  0.667  0.333  0.234-
  22  0.000  0.667  0.234-
  23  0.000  0.000  0.234-
  24  0.000  0.333  0.234-
  25  0.333  0.667  0.234-
  26  0.333  0.000  0.234-
  27  0.333  0.333  0.234-
  28  0.778  0.778  0.312-
  29  0.778  0.111  0.312-
  30  0.778  0.444  0.312-
  31  0.111  0.778  0.312-
  32  0.111  0.111  0.312-
  33  0.111  0.444  0.312-
  34  0.444  0.778  0.312-
  35  0.444  0.111  0.312-
  36  0.444  0.444  0.312-
  37  0.889  0.889  0.390-
  38  0.889  0.222  0.390-
  39  0.889  0.556  0.390-
  40  0.222  0.889  0.390-
  41  0.222  0.222  0.390-
  42  0.222  0.556  0.390-
  43  0.556  0.889  0.390-
  44  0.556  0.222  0.390-
  45  0.556  0.556  0.390-
  46  0.000  0.000  0.468-
  47  0.000  0.333  0.468-
  48  0.000  0.667  0.468-
  49  0.333  0.000  0.468-
  50  0.333  0.333  0.468-
  51  0.333  0.667  0.468-
  52  0.667  0.000  0.468-
  53  0.667  0.333  0.468-
  54  0.667  0.667  0.468-
  55  0.111  0.111  0.546-
  56  0.111  0.444  0.546-
  57  0.111  0.778  0.546-
  58  0.444  0.111  0.546-
  59  0.444  0.444  0.546-
  60  0.444  0.778  0.546-
  61  0.778  0.111  0.546-
  62  0.778  0.444  0.546-
  63  0.778  0.778  0.546-
  64  0.278  0.278  0.078-
  65  0.278  0.611  0.078-
  66  0.278  0.944  0.078-
  67  0.611  0.278  0.078-
  68  0.611  0.611  0.078-
  69  0.611  0.944  0.078-
  70  0.944  0.278  0.078-
  71  0.944  0.611  0.078-
  72  0.944  0.944  0.078-
  73  0.389  0.389  0.156-
  74  0.389  0.722  0.156-
  75  0.389  0.056  0.156-
  76  0.722  0.389  0.156-
  77  0.722  0.722  0.156-
  78  0.722  0.056  0.156-
  79  0.056  0.389  0.156-
  80  0.056  0.722  0.156-
  81  0.056  0.056  0.156-
  82  0.500  0.500  0.234-
  83  0.500  0.833  0.234-
  84  0.500  0.167  0.234-
  85  0.833  0.500  0.234-
  86  0.833  0.833  0.234-
  87  0.833  0.167  0.234-
  88  0.167  0.500  0.234-
  89  0.167  0.833  0.234-
  90  0.167  0.167  0.234-
  91  0.611  0.611  0.312-
  92  0.611  0.944  0.312-
  93  0.611  0.278  0.312-
  94  0.944  0.611  0.312-
  95  0.944  0.944  0.312-
  96  0.944  0.278  0.312-
  97  0.278  0.611  0.312-
  98  0.278  0.944  0.312-
  99  0.278  0.278  0.312-
 100  0.722  0.722  0.390-
 101  0.722  0.056  0.390-
 102  0.722  0.389  0.390-
 103  0.056  0.722  0.390-
 104  0.056  0.056  0.390-
 105  0.056  0.389  0.390-
 106  0.389  0.722  0.390-
 107  0.389  0.056  0.390-
 108  0.389  0.389  0.390-
 109  0.833  0.833  0.468-
 110  0.833  0.167  0.468-
 111  0.833  0.500  0.468-
 112  0.167  0.833  0.468-
 113  0.167  0.167  0.468-
 114  0.167  0.500  0.468-
 115  0.500  0.833  0.468-
 116  0.500  0.167  0.468-
 117  0.500  0.500  0.468-
 118  0.944  0.944  0.546-
 119  0.944  0.278  0.546-
 120  0.944  0.611  0.546-
 121  0.278  0.944  0.546-
 122  0.278  0.278  0.546-
 123  0.278  0.611  0.546-
 124  0.611  0.944  0.546-
 125  0.611  0.278  0.546-
 126  0.611  0.611  0.546-
 127  0.278  0.444  0.078-
 128  0.278  0.778  0.078-
 129  0.278  0.111  0.078-
 130  0.611  0.444  0.078-
 131  0.611  0.778  0.078-
 132  0.611  0.111  0.078-
 133  0.944  0.444  0.078-
 134  0.944  0.778  0.078-
 135  0.944  0.111  0.078-
 136  0.389  0.556  0.156-
 137  0.389  0.889  0.156-
 138  0.389  0.222  0.156-
 139  0.722  0.556  0.156-
 140  0.722  0.889  0.156-
 141  0.722  0.222  0.156-
 142  0.056  0.556  0.156-
 143  0.056  0.889  0.156-
 144  0.056  0.222  0.156-
 145  0.500  0.667  0.234-
 146  0.500  0.000  0.234-
 147  0.500  0.333  0.234-
 148  0.833  0.667  0.234-
 149  0.833  0.000  0.234-
 150  0.833  0.333  0.234-
 151  0.167  0.667  0.234-
 152  0.167  0.000  0.234-
 153  0.167  0.333  0.234-
 154  0.611  0.778  0.312-
 155  0.611  0.111  0.312-
 156  0.611  0.444  0.312-
 157  0.944  0.778  0.312-
 158  0.944  0.111  0.312-
 159  0.944  0.444  0.312-
 160  0.278  0.778  0.312-
 161  0.278  0.111  0.312-
 162  0.278  0.444  0.312-
 163  0.722  0.889  0.390-
 164  0.722  0.222  0.390-
 165  0.722  0.556  0.390-
 166  0.056  0.889  0.390-
 167  0.056  0.222  0.390-
 168  0.056  0.556  0.390-
 169  0.389  0.889  0.390-
 170  0.389  0.222  0.390-
 171  0.389  0.556  0.390-
 172  0.833  0.000  0.468-
 173  0.833  0.333  0.468-
 174  0.833  0.667  0.468-
 175  0.167  0.000  0.468-
 176  0.167  0.333  0.468-
 177  0.167  0.667  0.468-
 178  0.500  0.000  0.468-
 179  0.500  0.333  0.468-
 180  0.500  0.667  0.468-
 181  0.944  0.111  0.546-
 182  0.944  0.444  0.546-
 183  0.944  0.778  0.546-
 184  0.278  0.111  0.546-
 185  0.278  0.444  0.546-
 186  0.278  0.778  0.546-
 187  0.611  0.111  0.546-
 188  0.611  0.444  0.546-
 189  0.611  0.778  0.546-
 190  0.444  0.278  0.078-
 191  0.444  0.611  0.078-
 192  0.444  0.944  0.078-
 193  0.778  0.278  0.078-
 194  0.778  0.611  0.078-
 195  0.778  0.944  0.078-
 196  0.111  0.278  0.078-
 197  0.111  0.611  0.078-
 198  0.111  0.944  0.078-
 199  0.556  0.389  0.156-
 200  0.556  0.722  0.156-
 201  0.556  0.056  0.156-
 202  0.889  0.389  0.156-
 203  0.889  0.722  0.156-
 204  0.889  0.056  0.156-
 205  0.222  0.389  0.156-
 206  0.222  0.722  0.156-
 207  0.222  0.056  0.156-
 208  0.667  0.500  0.234-
 209  0.667  0.833  0.234-
 210  0.667  0.167  0.234-
 211  0.000  0.500  0.234-
 212  0.000  0.833  0.234-
 213  0.000  0.167  0.234-
 214  0.333  0.500  0.234-
 215  0.333  0.833  0.234-
 216  0.333  0.167  0.234-
 217  0.778  0.611  0.312-
 218  0.778  0.944  0.312-
 219  0.778  0.278  0.312-
 220  0.111  0.611  0.312-
 221  0.111  0.944  0.312-
 222  0.111  0.278  0.312-
 223  0.444  0.611  0.312-
 224  0.444  0.944  0.312-
 225  0.444  0.278  0.312-
 226  0.889  0.722  0.390-
 227  0.889  0.056  0.390-
 228  0.889  0.389  0.390-
 229  0.222  0.722  0.390-
 230  0.222  0.056  0.390-
 231  0.222  0.389  0.390-
 232  0.556  0.722  0.390-
 233  0.556  0.056  0.390-
 234  0.556  0.389  0.390-
 235  0.000  0.833  0.468-
 236  0.000  0.167  0.468-
 237  0.000  0.500  0.468-
 238  0.333  0.833  0.468-
 239  0.333  0.167  0.468-
 240  0.333  0.500  0.468-
 241  0.667  0.833  0.468-
 242  0.667  0.167  0.468-
 243  0.667  0.500  0.468-
 244  0.111  0.944  0.546-
 245  0.111  0.278  0.546-
 246  0.111  0.611  0.546-
 247  0.444  0.944  0.546-
 248  0.444  0.278  0.546-
 249  0.444  0.611  0.546-
 250  0.778  0.944  0.546-
 251  0.778  0.278  0.546-
 252  0.778  0.611  0.546-
 
  LATTYP: Found a hexagonal cell.
 ALAT       =    17.1805734625
 C/A-ratio  =     1.7461582447
  
  Lattice vectors:
  
 A1 = (   0.0000000000,  -8.5902867312,  14.8788130701)
 A2 = (   0.0000000000,  17.1805734625,   0.0000000000)
 A3 = ( -30.0000000000,   0.0000000000,   0.0000000000)


Analysis of symmetry for initial positions (statically):
=====================================================================
 Subroutine PRICEL returns following result:
 
  LATTYP: Found a hexagonal cell.
 ALAT       =     2.8634289104
 C/A-ratio  =    10.4769494681
  
  Lattice vectors:
  
 A1 = (   0.0000000000,  -1.4317144552,   2.4798021783)
 A2 = (   0.0000000000,   2.8634289104,   0.0000000000)
 A3 = ( -30.0000000000,   0.0000000000,   0.0000000000)
 
  36 primitive cells build up your supercell.
 

 Routine SETGRP: Setting up the symmetry group for a 
 hexagonal supercell.


 Subroutine GETGRP returns: Found 12 space group operations
 (whereof  6 operations were pure point group operations)
 out of a pool of 24 trial point group operations.


The static configuration has the point symmetry C_3v.
 The point group associated with its full space group is D_3d.


Analysis of symmetry for dynamics (positions and initial velocities):
=====================================================================
 Subroutine PRICEL returns following result:
 
  LATTYP: Found a hexagonal cell.
 ALAT       =     2.8634289104
 C/A-ratio  =    10.4769494681
  
  Lattice vectors:
  
 A1 = (   0.0000000000,  -1.4317144552,   2.4798021783)
 A2 = (   0.0000000000,   2.8634289104,   0.0000000000)
 A3 = ( -30.0000000000,   0.0000000000,   0.0000000000)
 
  36 primitive cells build up your supercell.
 

 Routine SETGRP: Setting up the symmetry group for a 
 hexagonal supercell.


 Subroutine GETGRP returns: Found 12 space group operations
 (whereof  6 operations were pure point group operations)
 out of a pool of 24 trial point group operations.


The dynamic configuration has the point symmetry C_3v.
 The point group associated with its full space group is D_3d.


 Subroutine INISYM returns: Found 12 space group operations
 (whereof  6 operations are pure point group operations),
 and found    36 'primitive' translations

 
 
 KPOINTS: Automatic generation                    

Automatic generation of k-mesh.
Space group operators:
 irot       det(A)        alpha          n_x          n_y          n_z        tau_x        tau_y        tau_z
    1     1.000000     0.000000     1.000000     0.000000     0.000000     0.000000     0.000000     0.000000
    2     1.000000   120.000000     1.000000     0.000000     0.000000     0.000000     0.000000     0.000000
    3     1.000000   120.000000    -1.000000     0.000000     0.000000     0.000000     0.000000     0.000000
    4    -1.000000   180.000000     0.000000    -0.500000     0.866025     0.000000     0.000000     0.000000
    5    -1.000000   180.000000     0.000000     1.000000     0.000000     0.000000     0.000000     0.000000
    6    -1.000000   180.000000     0.000000     0.500000     0.866025     0.000000     0.000000     0.000000
    7    -1.000000     0.000000     1.000000     0.000000     0.000000     0.055556    -0.111111    -0.376539
    8    -1.000000   120.000000     1.000000     0.000000     0.000000     0.055556    -0.111111    -0.376539
    9    -1.000000   120.000000    -1.000000     0.000000     0.000000     0.055556    -0.111111    -0.376539
   10     1.000000   180.000000     0.000000    -0.500000     0.866025     0.055556    -0.111111    -0.376539
   11     1.000000   180.000000     0.000000     1.000000     0.000000     0.055556    -0.111111    -0.376539
   12     1.000000   180.000000     0.000000     0.500000     0.866025     0.055556    -0.111111    -0.376539
 
 Subroutine IBZKPT returns following result:
 ===========================================
 
 Found      2 irreducible k-points:
 
 Following reciprocal coordinates:
            Coordinates               Weight
  0.000000  0.000000  0.000000      1.000000
  0.500000  0.000000  0.000000      3.000000
 
 Following cartesian coordinates:
            Coordinates               Weight
  0.000000  0.000000  0.000000      1.000000
  0.000000 -0.029103  0.016802      3.000000
 


--------------------------------------------------------------------------------------------------------




 Dimension of arrays:
   k-points           NKPTS =      2   k-points in BZ     NKDIM =      2   number of bands    NBANDS=    510
   number of dos      NEDOS =    301   number of ions     NIONS =    252
   non local maximal  LDIM  =      6   non local SUM 2l+1 LMDIM =     18
   total plane-waves  NPLWV = 819200
   max r-space proj   IRMAX =   1862   max aug-charges    IRDMAX=   4357
   dimension x,y,z NGX =    80 NGY =   80 NGZ =  128
   dimension x,y,z NGXF=   160 NGYF=  160 NGZF=  256
   support grid    NGXF=   160 NGYF=  160 NGZF=  256
   ions per type =             252
   NGX,Y,Z   is equivalent  to a cutoff of   7.74,  7.74,  7.09 a.u.
   NGXF,Y,Z  is equivalent  to a cutoff of  15.48, 15.48, 14.19 a.u.

 SYSTEM =  NiAl                                    
 POSCAR =  New structure                           

 Startparameter for this run:
   NWRITE =      2    write-flag & timer
   PREC   = normal    normal or accurate (medium, high low for compatibility)
   ISTART =      0    job   : 0-new  1-cont  2-samecut
   ICHARG =      2    charge: 1-file 2-atom 10-const
   ISPIN  =      1    spin polarized calculation?
   LNONCOLLINEAR =      F non collinear calculations
   LSORBIT =      F    spin-orbit coupling
   INIWAV =      1    electr: 0-lowe 1-rand  2-diag
   LASPH  =      F    aspherical Exc in radial PAW
   METAGGA=      F    non-selfconsistent MetaGGA calc.

 Electronic Relaxation 1
   ENCUT  =  300.0 eV  22.05 Ry    4.70 a.u.  24.26 24.26 42.37*2*pi/ulx,y,z
   ENINI  =  300.0     initial cutoff
   ENAUG  =  482.1 eV  augmentation charge cutoff
   NELM   =     60;   NELMIN=  6; NELMDL= -5     # of ELM steps 
   EDIFF  = 0.5E-05   stopping-criterion for ELM
   LREAL  =      T    real-space projection
   NLSPLINE    = F    spline interpolate recip. space projectors
   LCOMPAT=      F    compatible to vasp.4.4
   GGA_COMPAT  = T    GGA compatible to vasp.4.4-vasp.4.6
   LMAXPAW     = -100 max onsite density
   LMAXMIX     =    2 max onsite mixed and CHGCAR
   VOSKOWN=      0    Vosko Wilk Nusair interpolation
   ROPT   =   -0.00050
 Ionic relaxation
   EDIFFG = 0.5E-04   stopping-criterion for IOM
   NSW    =     40    number of steps for IOM
   NBLOCK =      1;   KBLOCK =     40    inner block; outer block 
   IBRION =      2    ionic relax: 0-MD 1-quasi-New 2-CG
   NFREE  =      1    steps in history (QN), initial steepest desc. (CG)
   ISIF   =      1    stress and relaxation
   IWAVPR =     11    prediction:  0-non 1-charg 2-wave 3-comb
   ISYM   =      2    0-nonsym 1-usesym 2-fastsym
   LCORR  =      T    Harris-Foulkes like correction to forces

   POTIM  = 0.2000    time-step for ionic-motion
   TEIN   =    0.0    initial temperature
   TEBEG  =    0.0;   TEEND  =   0.0 temperature during run
   SMASS  =  -3.00    Nose mass-parameter (am)
   estimated Nose-frequenzy (Omega)   =  0.10E-29 period in steps =****** mass=  -0.675E-26a.u.
   SCALEE = 1.0000    scale energy and forces
   NPACO  =    256;   APACO  = 16.0  distance and # of slots for P.C.
   PSTRESS=    0.0 pullay stress

  Mass of Ions in am
   POMASS =  26.98
  Ionic Valenz
   ZVAL   =   3.00
  Atomic Wigner-Seitz radii
   RWIGS  =  -1.00
  virtual crystal weights 
   VCA    =   1.00
   NELECT =     756.0000    total number of electrons
   NUPDOWN=      -1.0000    fix difference up-down

 DOS related values:
   EMIN   =  10.00;   EMAX   =-10.00  energy-range for DOS
   EFERMI =   0.00
   ISMEAR =     0;   SIGMA  =   0.05  broadening in eV -4-tet -1-fermi 0-gaus

 Electronic relaxation 2 (details)
   IALGO  =     38    algorithm
   LDIAG  =      T    sub-space diagonalisation (order eigenvalues)
   LSUBROT=      F    optimize rotation matrix (better conditioning)
   TURBO    =      0    0=normal 1=particle mesh
   IRESTART =      0    0=no restart 2=restart with 2 vectors
   NREBOOT  =      0    no. of reboots
   NMIN     =      0    reboot dimension
   EREF     =   0.00    reference energy to select bands
   IMIX   =      4    mixing-type and parameters
     AMIX     =   0.40;   BMIX     =  1.00
     AMIX_MAG =   1.60;   BMIX_MAG =  1.00
     AMIN     =   0.10
     WC   =   100.;   INIMIX=   1;  MIXPRE=   1;  MAXMIX= -45

 Intra band minimization:
   WEIMIN = 0.0010     energy-eigenvalue tresh-hold
   EBREAK =  0.25E-08  absolut break condition
   DEPER  =   0.30     relativ break condition  

   TIME   =   0.40     timestep for ELM

  volume/ion in A,a.u.               =      30.43       205.36
  Fermi-wavevector in a.u.,A,eV,Ry     =   0.756263  1.429130  7.781637  0.571934
  Thomas-Fermi vector in A             =   1.854344
 
 Write flags
   LWAVE        =      F    write WAVECAR
   LDOWNSAMPLE  =      F    k-point downsampling of WAVECAR
   LCHARG       =      F    write CHGCAR
   LVTOT        =      F    write LOCPOT, total local potential
   LVHAR        =      F    write LOCPOT, Hartree potential only
   LELF         =      F    write electronic localiz. function (ELF)
   LORBIT       =      0    0 simple, 1 ext, 2 COOP (PROOUT), +10 PAW based schemes


 Dipole corrections
   LMONO  =      F    monopole corrections only (constant potential shift)
   LDIPOL =      F    correct potential (dipole corrections)
   IDIPOL =      0    1-x, 2-y, 3-z, 4-all directions 
   EPSILON=  1.0000000 bulk dielectric constant

 Exchange correlation treatment:
   GGA     =    --    GGA type
   LEXCH   =     8    internal setting for exchange type
   VOSKOWN=      0    Vosko Wilk Nusair interpolation
   LHFCALC =     F    Hartree Fock is set to
   LHFONE  =     F    Hartree Fock one center treatment
   AEXX    =    0.0000 exact exchange contribution

 Linear response parameters
   LEPSILON=     F    determine dielectric tensor
   LRPA    =     F    only Hartree local field effects (RPA)
   LNABLA  =     F    use nabla operator in PAW spheres
   LVEL    =     F    velocity operator in full k-point grid
   LINTERFAST=   F  fast interpolation
   KINTER  =     0    interpolate to denser k-point grid
   CSHIFT  =0.1000    complex shift for real part using Kramers Kronig
   OMEGAMAX=  -1.0    maximum frequency
   DEG_THRESHOLD= 0.2000000E-02 threshold for treating states as degnerate
   RTIME   =   -0.100 relaxation time in fs
  (WPLASMAI=    0.000 imaginary part of plasma frequency in eV, 0.658/RTIME)
   DFIELD  = 0.0000000 0.0000000 0.0000000 field for delta impulse in time
 
 Orbital magnetization related:
   ORBITALMAG=     F  switch on orbital magnetization
   LCHIMAG   =     F  perturbation theory with respect to B field
   DQ        =  0.001000  dq finite difference perturbation B field
   LLRAUG    =     F  two centre corrections for induced B field



--------------------------------------------------------------------------------------------------------


 conjugate gradient relaxation of ions
 charge density and potential will be updated during run
 non-spin polarized calculation
 Variant of blocked Davidson
 Davidson routine will perform the subspace rotation
 perform sub-space diagonalisation
    after iterative eigenvector-optimisation
 modified Broyden-mixing scheme, WC =      100.0
 initial mixing is a Kerker type mixing with AMIX =  0.4000 and BMIX =      1.0000
 Hartree-type preconditioning will be used
 using additional bands          132
 real space projection scheme for non local part
 use partial core corrections
 calculate Harris-corrections to forces 
   (improved forces if not selfconsistent)
 use gradient corrections 
 use of overlap-Matrix (Vanderbilt PP)
 Gauss-broadening in eV      SIGMA  =   0.05


--------------------------------------------------------------------------------------------------------


  energy-cutoff  :      300.00
  volume of cell :     7668.80
      direct lattice vectors                 reciprocal lattice vectors
     0.000000000-17.180573462  0.000000000     0.000000000 -0.058205275  0.033604831
     0.000000000 -8.590286731-14.878813070     0.000000000  0.000000000 -0.067209662
    30.000000000  0.000000000  0.000000000     0.033333333  0.000000000  0.000000000

  length of vectors
    17.180573462 17.180573462 30.000000000     0.067209662  0.067209662  0.033333333


 
 k-points in units of 2pi/SCALE and weight: Automatic generation                    
   0.00000000  0.00000000  0.00000000       0.250
   0.00000000 -0.02910264  0.01680242       0.750
 
 k-points in reciprocal lattice and weights: Automatic generation                    
   0.00000000  0.00000000  0.00000000       0.250
   0.50000000  0.00000000  0.00000000       0.750
 
 position of ions in fractional coordinates (direct lattice) 
   0.44444444  0.44444444  0.07793266
   0.44444444  0.77777778  0.07793266
   0.44444444  0.11111111  0.07793266
   0.77777778  0.44444444  0.07793266
   0.77777778  0.77777778  0.07793266
   0.77777778  0.11111111  0.07793266
   0.11111111  0.44444444  0.07793266
   0.11111111  0.77777778  0.07793266
   0.11111111  0.11111111  0.07793266
   0.55555556  0.55555556  0.15586533
   0.55555556  0.88888889  0.15586533
   0.55555556  0.22222222  0.15586533
   0.88888889  0.55555556  0.15586533
   0.88888889  0.88888889  0.15586533
   0.88888889  0.22222222  0.15586533
   0.22222222  0.55555556  0.15586533
   0.22222222  0.88888889  0.15586533
   0.22222222  0.22222222  0.15586533
   0.66666667  0.66666667  0.23379799
   0.66666667  0.00000000  0.23379799
   0.66666667  0.33333333  0.23379799
   0.00000000  0.66666667  0.23379799
   0.00000000  0.00000000  0.23379799
   0.00000000  0.33333333  0.23379799
   0.33333333  0.66666667  0.23379799
   0.33333333  0.00000000  0.23379799
   0.33333333  0.33333333  0.23379799
   0.77777778  0.77777778  0.31173066
   0.77777778  0.11111111  0.31173066
   0.77777778  0.44444444  0.31173066
   0.11111111  0.77777778  0.31173066
   0.11111111  0.11111111  0.31173066
   0.11111111  0.44444444  0.31173066
   0.44444444  0.77777778  0.31173066
   0.44444444  0.11111111  0.31173066
   0.44444444  0.44444444  0.31173066
   0.88888889  0.88888889  0.38966332
   0.88888889  0.22222222  0.38966332
   0.88888889  0.55555556  0.38966332
   0.22222222  0.88888889  0.38966332
   0.22222222  0.22222222  0.38966332
   0.22222222  0.55555556  0.38966332
   0.55555556  0.88888889  0.38966332
   0.55555556  0.22222222  0.38966332
   0.55555556  0.55555556  0.38966332
   0.00000000  0.00000000  0.46759598
   0.00000000  0.33333333  0.46759598
   0.00000000  0.66666667  0.46759598
   0.33333333  0.00000000  0.46759598
   0.33333333  0.33333333  0.46759598
   0.33333333  0.66666667  0.46759598
   0.66666667  0.00000000  0.46759598
   0.66666667  0.33333333  0.46759598
   0.66666667  0.66666667  0.46759598
   0.11111111  0.11111111  0.54552865
   0.11111111  0.44444444  0.54552865
   0.11111111  0.77777778  0.54552865
   0.44444444  0.11111111  0.54552865
   0.44444444  0.44444444  0.54552865
   0.44444444  0.77777778  0.54552865
   0.77777778  0.11111111  0.54552865
   0.77777778  0.44444444  0.54552865
   0.77777778  0.77777778  0.54552865
   0.27777778  0.27777778  0.07793266
   0.27777778  0.61111111  0.07793266
   0.27777778  0.94444444  0.07793266
   0.61111111  0.27777778  0.07793266
   0.61111111  0.61111111  0.07793266
   0.61111111  0.94444444  0.07793266
   0.94444444  0.27777778  0.07793266
   0.94444444  0.61111111  0.07793266
   0.94444444  0.94444444  0.07793266
   0.38888889  0.38888889  0.15586533
   0.38888889  0.72222222  0.15586533
   0.38888889  0.05555556  0.15586533
   0.72222222  0.38888889  0.15586533
   0.72222222  0.72222222  0.15586533
   0.72222222  0.05555556  0.15586533
   0.05555556  0.38888889  0.15586533
   0.05555556  0.72222222  0.15586533
   0.05555556  0.05555556  0.15586533
   0.50000000  0.50000000  0.23379799
   0.50000000  0.83333333  0.23379799
   0.50000000  0.16666667  0.23379799
   0.83333333  0.50000000  0.23379799
   0.83333333  0.83333333  0.23379799
   0.83333333  0.16666667  0.23379799
   0.16666667  0.50000000  0.23379799
   0.16666667  0.83333333  0.23379799
   0.16666667  0.16666667  0.23379799
   0.61111111  0.61111111  0.31173066
   0.61111111  0.94444444  0.31173066
   0.61111111  0.27777778  0.31173066
   0.94444444  0.61111111  0.31173066
   0.94444444  0.94444444  0.31173066
   0.94444444  0.27777778  0.31173066
   0.27777778  0.61111111  0.31173066
   0.27777778  0.94444444  0.31173066
   0.27777778  0.27777778  0.31173066
   0.72222222  0.72222222  0.38966332
   0.72222222  0.05555556  0.38966332
   0.72222222  0.38888889  0.38966332
   0.05555556  0.72222222  0.38966332
   0.05555556  0.05555556  0.38966332
   0.05555556  0.38888889  0.38966332
   0.38888889  0.72222222  0.38966332
   0.38888889  0.05555556  0.38966332
   0.38888889  0.38888889  0.38966332
   0.83333333  0.83333333  0.46759598
   0.83333333  0.16666667  0.46759598
   0.83333333  0.50000000  0.46759598
   0.16666667  0.83333333  0.46759598
   0.16666667  0.16666667  0.46759598
   0.16666667  0.50000000  0.46759598
   0.50000000  0.83333333  0.46759598
   0.50000000  0.16666667  0.46759598
   0.50000000  0.50000000  0.46759598
   0.94444444  0.94444444  0.54552865
   0.94444444  0.27777778  0.54552865
   0.94444444  0.61111111  0.54552865
   0.27777778  0.94444444  0.54552865
   0.27777778  0.27777778  0.54552865
   0.27777778  0.61111111  0.54552865
   0.61111111  0.94444444  0.54552865
   0.61111111  0.27777778  0.54552865
   0.61111111  0.61111111  0.54552865
   0.27777778  0.44444444  0.07793266
   0.27777778  0.77777778  0.07793266
   0.27777778  0.11111111  0.07793266
   0.61111111  0.44444444  0.07793266
   0.61111111  0.77777778  0.07793266
   0.61111111  0.11111111  0.07793266
   0.94444444  0.44444444  0.07793266
   0.94444444  0.77777778  0.07793266
   0.94444444  0.11111111  0.07793266
   0.38888889  0.55555556  0.15586533
   0.38888889  0.88888889  0.15586533
   0.38888889  0.22222222  0.15586533
   0.72222222  0.55555556  0.15586533
   0.72222222  0.88888889  0.15586533
   0.72222222  0.22222222  0.15586533
   0.05555556  0.55555556  0.15586533
   0.05555556  0.88888889  0.15586533
   0.05555556  0.22222222  0.15586533
   0.50000000  0.66666667  0.23379799
   0.50000000  0.00000000  0.23379799
   0.50000000  0.33333333  0.23379799
   0.83333333  0.66666667  0.23379799
   0.83333333  0.00000000  0.23379799
   0.83333333  0.33333333  0.23379799
   0.16666667  0.66666667  0.23379799
   0.16666667  0.00000000  0.23379799
   0.16666667  0.33333333  0.23379799
   0.61111111  0.77777778  0.31173066
   0.61111111  0.11111111  0.31173066
   0.61111111  0.44444444  0.31173066
   0.94444444  0.77777778  0.31173066
   0.94444444  0.11111111  0.31173066
   0.94444444  0.44444444  0.31173066
   0.27777778  0.77777778  0.31173066
   0.27777778  0.11111111  0.31173066
   0.27777778  0.44444444  0.31173066
   0.72222222  0.88888889  0.38966332
   0.72222222  0.22222222  0.38966332
   0.72222222  0.55555556  0.38966332
   0.05555556  0.88888889  0.38966332
   0.05555556  0.22222222  0.38966332
   0.05555556  0.55555556  0.38966332
   0.38888889  0.88888889  0.38966332
   0.38888889  0.22222222  0.38966332
   0.38888889  0.55555556  0.38966332
   0.83333333  0.00000000  0.46759598
   0.83333333  0.33333333  0.46759598
   0.83333333  0.66666667  0.46759598
   0.16666667  0.00000000  0.46759598
   0.16666667  0.33333333  0.46759598
   0.16666667  0.66666667  0.46759598
   0.50000000  0.00000000  0.46759598
   0.50000000  0.33333333  0.46759598
   0.50000000  0.66666667  0.46759598
   0.94444444  0.11111111  0.54552865
   0.94444444  0.44444444  0.54552865
   0.94444444  0.77777778  0.54552865
   0.27777778  0.11111111  0.54552865
   0.27777778  0.44444444  0.54552865
   0.27777778  0.77777778  0.54552865
   0.61111111  0.11111111  0.54552865
   0.61111111  0.44444444  0.54552865
   0.61111111  0.77777778  0.54552865
   0.44444444  0.27777778  0.07793266
   0.44444444  0.61111111  0.07793266
   0.44444444  0.94444444  0.07793266
   0.77777778  0.27777778  0.07793266
   0.77777778  0.61111111  0.07793266
   0.77777778  0.94444444  0.07793266
   0.11111111  0.27777778  0.07793266
   0.11111111  0.61111111  0.07793266
   0.11111111  0.94444444  0.07793266
   0.55555556  0.38888889  0.15586533
   0.55555556  0.72222222  0.15586533
   0.55555556  0.05555556  0.15586533
   0.88888889  0.38888889  0.15586533
   0.88888889  0.72222222  0.15586533
   0.88888889  0.05555556  0.15586533
   0.22222222  0.38888889  0.15586533
   0.22222222  0.72222222  0.15586533
   0.22222222  0.05555556  0.15586533
   0.66666667  0.50000000  0.23379799
   0.66666667  0.83333333  0.23379799
   0.66666667  0.16666667  0.23379799
   0.00000000  0.50000000  0.23379799
   0.00000000  0.83333333  0.23379799
   0.00000000  0.16666667  0.23379799
   0.33333333  0.50000000  0.23379799
   0.33333333  0.83333333  0.23379799
   0.33333333  0.16666667  0.23379799
   0.77777778  0.61111111  0.31173066
   0.77777778  0.94444444  0.31173066
   0.77777778  0.27777778  0.31173066
   0.11111111  0.61111111  0.31173066
   0.11111111  0.94444444  0.31173066
   0.11111111  0.27777778  0.31173066
   0.44444444  0.61111111  0.31173066
   0.44444444  0.94444444  0.31173066
   0.44444444  0.27777778  0.31173066
   0.88888889  0.72222222  0.38966332
   0.88888889  0.05555556  0.38966332
   0.88888889  0.38888889  0.38966332
   0.22222222  0.72222222  0.38966332
   0.22222222  0.05555556  0.38966332
   0.22222222  0.38888889  0.38966332
   0.55555556  0.72222222  0.38966332
   0.55555556  0.05555556  0.38966332
   0.55555556  0.38888889  0.38966332
   0.00000000  0.83333333  0.46759598
   0.00000000  0.16666667  0.46759598
   0.00000000  0.50000000  0.46759598
   0.33333333  0.83333333  0.46759598
   0.33333333  0.16666667  0.46759598
   0.33333333  0.50000000  0.46759598
   0.66666667  0.83333333  0.46759598
   0.66666667  0.16666667  0.46759598
   0.66666667  0.50000000  0.46759598
   0.11111111  0.94444444  0.54552865
   0.11111111  0.27777778  0.54552865
   0.11111111  0.61111111  0.54552865
   0.44444444  0.94444444  0.54552865
   0.44444444  0.27777778  0.54552865
   0.44444444  0.61111111  0.54552865
   0.77777778  0.94444444  0.54552865
   0.77777778  0.27777778  0.54552865
   0.77777778  0.61111111  0.54552865
 
 position of ions in cartesian coordinates  (Angst):
   2.33797992-11.45371564 -6.61280581
   2.33797992-14.31714455-11.57241017
   2.33797992 -8.59028673 -1.65320145
   2.33797992-17.18057346 -6.61280581
   2.33797992-20.04400237-11.57241017
   2.33797992-14.31714455 -1.65320145
   2.33797992 -5.72685782 -6.61280581
   2.33797992 -8.59028673-11.57241017
   2.33797992 -2.86342891 -1.65320145
   4.67595983-14.31714455 -8.26600726
   4.67595983-17.18057346-13.22561162
   4.67595983-11.45371564 -3.30640290
   4.67595983-20.04400237 -8.26600726
   4.67595983-22.90743128-13.22561162
   4.67595983-17.18057346 -3.30640290
   4.67595983 -8.59028673 -8.26600726
   4.67595983-11.45371564-13.22561162
   4.67595983 -5.72685782 -3.30640290
   7.01393975-17.18057346 -9.91920871
   7.01393975-11.45371564  0.00000000
   7.01393975-14.31714455 -4.95960436
   7.01393975 -5.72685782 -9.91920871
   7.01393975  0.00000000  0.00000000
   7.01393975 -2.86342891 -4.95960436
   7.01393975-11.45371564 -9.91920871
   7.01393975 -5.72685782  0.00000000
   7.01393975 -8.59028673 -4.95960436
   9.35191966-20.04400237-11.57241017
   9.35191966-14.31714455 -1.65320145
   9.35191966-17.18057346 -6.61280581
   9.35191966 -8.59028673-11.57241017
   9.35191966 -2.86342891 -1.65320145
   9.35191966 -5.72685782 -6.61280581
   9.35191966-14.31714455-11.57241017
   9.35191966 -8.59028673 -1.65320145
   9.35191966-11.45371564 -6.61280581
  11.68989958-22.90743128-13.22561162
  11.68989958-17.18057346 -3.30640290
  11.68989958-20.04400237 -8.26600726
  11.68989958-11.45371564-13.22561162
  11.68989958 -5.72685782 -3.30640290
  11.68989958 -8.59028673 -8.26600726
  11.68989958-17.18057346-13.22561162
  11.68989958-11.45371564 -3.30640290
  11.68989958-14.31714455 -8.26600726
  14.02787949  0.00000000  0.00000000
  14.02787949 -2.86342891 -4.95960436
  14.02787949 -5.72685782 -9.91920871
  14.02787949 -5.72685782  0.00000000
  14.02787949 -8.59028673 -4.95960436
  14.02787949-11.45371564 -9.91920871
  14.02787949-11.45371564  0.00000000
  14.02787949-14.31714455 -4.95960436
  14.02787949-17.18057346 -9.91920871
  16.36585941 -2.86342891 -1.65320145
  16.36585941 -5.72685782 -6.61280581
  16.36585941 -8.59028673-11.57241017
  16.36585941 -8.59028673 -1.65320145
  16.36585941-11.45371564 -6.61280581
  16.36585941-14.31714455-11.57241017
  16.36585941-14.31714455 -1.65320145
  16.36585941-17.18057346 -6.61280581
  16.36585941-20.04400237-11.57241017
   2.33797992 -7.15857228 -4.13300363
   2.33797992-10.02200119 -9.09260799
   2.33797992-12.88543010-14.05221234
   2.33797992-12.88543010 -4.13300363
   2.33797992-15.74885901 -9.09260799
   2.33797992-18.61228792-14.05221234
   2.33797992-18.61228792 -4.13300363
   2.33797992-21.47571683 -9.09260799
   2.33797992-24.33914574-14.05221234
   4.67595983-10.02200119 -5.78620508
   4.67595983-12.88543010-10.74580944
   4.67595983 -7.15857228 -0.82660073
   4.67595983-15.74885901 -5.78620508
   4.67595983-18.61228792-10.74580944
   4.67595983-12.88543010 -0.82660073
   4.67595983 -4.29514337 -5.78620508
   4.67595983 -7.15857228-10.74580944
   4.67595983 -1.43171446 -0.82660073
   7.01393975-12.88543010 -7.43940654
   7.01393975-15.74885901-12.39901089
   7.01393975-10.02200119 -2.47980218
   7.01393975-18.61228792 -7.43940654
   7.01393975-21.47571683-12.39901089
   7.01393975-15.74885901 -2.47980218
   7.01393975 -7.15857228 -7.43940654
   7.01393975-10.02200119-12.39901089
   7.01393975 -4.29514337 -2.47980218
   9.35191966-15.74885901 -9.09260799
   9.35191966-18.61228792-14.05221234
   9.35191966-12.88543010 -4.13300363
   9.35191966-21.47571683 -9.09260799
   9.35191966-24.33914574-14.05221234
   9.35191966-18.61228792 -4.13300363
   9.35191966-10.02200119 -9.09260799
   9.35191966-12.88543010-14.05221234
   9.35191966 -7.15857228 -4.13300363
  11.68989958-18.61228792-10.74580944
  11.68989958-12.88543010 -0.82660073
  11.68989958-15.74885901 -5.78620508
  11.68989958 -7.15857228-10.74580944
  11.68989958 -1.43171446 -0.82660073
  11.68989958 -4.29514337 -5.78620508
  11.68989958-12.88543010-10.74580944
  11.68989958 -7.15857228 -0.82660073
  11.68989958-10.02200119 -5.78620508
  14.02787949-21.47571683-12.39901089
  14.02787949-15.74885901 -2.47980218
  14.02787949-18.61228792 -7.43940654
  14.02787949-10.02200119-12.39901089
  14.02787949 -4.29514337 -2.47980218
  14.02787949 -7.15857228 -7.43940654
  14.02787949-15.74885901-12.39901089
  14.02787949-10.02200119 -2.47980218
  14.02787949-12.88543010 -7.43940654
  16.36585941-24.33914574-14.05221234
  16.36585941-18.61228792 -4.13300363
  16.36585941-21.47571683 -9.09260799
  16.36585941-12.88543010-14.05221234
  16.36585941 -7.15857228 -4.13300363
  16.36585941-10.02200119 -9.09260799
  16.36585941-18.61228792-14.05221234
  16.36585941-12.88543010 -4.13300363
  16.36585941-15.74885901 -9.09260799
   2.33797992 -8.59028673 -6.61280581
   2.33797992-11.45371564-11.57241017
   2.33797992 -5.72685782 -1.65320145
   2.33797992-14.31714455 -6.61280581
   2.33797992-17.18057346-11.57241017
   2.33797992-11.45371564 -1.65320145
   2.33797992-20.04400237 -6.61280581
   2.33797992-22.90743128-11.57241017
   2.33797992-17.18057346 -1.65320145
   4.67595983-11.45371564 -8.26600726
   4.67595983-14.31714455-13.22561162
   4.67595983 -8.59028673 -3.30640290
   4.67595983-17.18057346 -8.26600726
   4.67595983-20.04400237-13.22561162
   4.67595983-14.31714455 -3.30640290
   4.67595983 -5.72685782 -8.26600726
   4.67595983 -8.59028673-13.22561162
   4.67595983 -2.86342891 -3.30640290
   7.01393975-14.31714455 -9.91920871
   7.01393975 -8.59028673  0.00000000
   7.01393975-11.45371564 -4.95960436
   7.01393975-20.04400237 -9.91920871
   7.01393975-14.31714455  0.00000000
   7.01393975-17.18057346 -4.95960436
   7.01393975 -8.59028673 -9.91920871
   7.01393975 -2.86342891  0.00000000
   7.01393975 -5.72685782 -4.95960436
   9.35191966-17.18057346-11.57241017
   9.35191966-11.45371564 -1.65320145
   9.35191966-14.31714455 -6.61280581
   9.35191966-22.90743128-11.57241017
   9.35191966-17.18057346 -1.65320145
   9.35191966-20.04400237 -6.61280581
   9.35191966-11.45371564-11.57241017
   9.35191966 -5.72685782 -1.65320145
   9.35191966 -8.59028673 -6.61280581
  11.68989958-20.04400237-13.22561162
  11.68989958-14.31714455 -3.30640290
  11.68989958-17.18057346 -8.26600726
  11.68989958 -8.59028673-13.22561162
  11.68989958 -2.86342891 -3.30640290
  11.68989958 -5.72685782 -8.26600726
  11.68989958-14.31714455-13.22561162
  11.68989958 -8.59028673 -3.30640290
  11.68989958-11.45371564 -8.26600726
  14.02787949-14.31714455  0.00000000
  14.02787949-17.18057346 -4.95960436
  14.02787949-20.04400237 -9.91920871
  14.02787949 -2.86342891  0.00000000
  14.02787949 -5.72685782 -4.95960436
  14.02787949 -8.59028673 -9.91920871
  14.02787949 -8.59028673  0.00000000
  14.02787949-11.45371564 -4.95960436
  14.02787949-14.31714455 -9.91920871
  16.36585941-17.18057346 -1.65320145
  16.36585941-20.04400237 -6.61280581
  16.36585941-22.90743128-11.57241017
  16.36585941 -5.72685782 -1.65320145
  16.36585941 -8.59028673 -6.61280581
  16.36585941-11.45371564-11.57241017
  16.36585941-11.45371564 -1.65320145
  16.36585941-14.31714455 -6.61280581
  16.36585941-17.18057346-11.57241017
   2.33797992-10.02200119 -4.13300363
   2.33797992-12.88543010 -9.09260799
   2.33797992-15.74885901-14.05221234
   2.33797992-15.74885901 -4.13300363
   2.33797992-18.61228792 -9.09260799
   2.33797992-21.47571683-14.05221234
   2.33797992 -4.29514337 -4.13300363
   2.33797992 -7.15857228 -9.09260799
   2.33797992-10.02200119-14.05221234
   4.67595983-12.88543010 -5.78620508
   4.67595983-15.74885901-10.74580944
   4.67595983-10.02200119 -0.82660073
   4.67595983-18.61228792 -5.78620508
   4.67595983-21.47571683-10.74580944
   4.67595983-15.74885901 -0.82660073
   4.67595983 -7.15857228 -5.78620508
   4.67595983-10.02200119-10.74580944
   4.67595983 -4.29514337 -0.82660073
   7.01393975-15.74885901 -7.43940654
   7.01393975-18.61228792-12.39901089
   7.01393975-12.88543010 -2.47980218
   7.01393975 -4.29514337 -7.43940654
   7.01393975 -7.15857228-12.39901089
   7.01393975 -1.43171446 -2.47980218
   7.01393975-10.02200119 -7.43940654
   7.01393975-12.88543010-12.39901089
   7.01393975 -7.15857228 -2.47980218
   9.35191966-18.61228792 -9.09260799
   9.35191966-21.47571683-14.05221234
   9.35191966-15.74885901 -4.13300363
   9.35191966 -7.15857228 -9.09260799
   9.35191966-10.02200119-14.05221234
   9.35191966 -4.29514337 -4.13300363
   9.35191966-12.88543010 -9.09260799
   9.35191966-15.74885901-14.05221234
   9.35191966-10.02200119 -4.13300363
  11.68989958-21.47571683-10.74580944
  11.68989958-15.74885901 -0.82660073
  11.68989958-18.61228792 -5.78620508
  11.68989958-10.02200119-10.74580944
  11.68989958 -4.29514337 -0.82660073
  11.68989958 -7.15857228 -5.78620508
  11.68989958-15.74885901-10.74580944
  11.68989958-10.02200119 -0.82660073
  11.68989958-12.88543010 -5.78620508
  14.02787949 -7.15857228-12.39901089
  14.02787949 -1.43171446 -2.47980218
  14.02787949 -4.29514337 -7.43940654
  14.02787949-12.88543010-12.39901089
  14.02787949 -7.15857228 -2.47980218
  14.02787949-10.02200119 -7.43940654
  14.02787949-18.61228792-12.39901089
  14.02787949-12.88543010 -2.47980218
  14.02787949-15.74885901 -7.43940654
  16.36585941-10.02200119-14.05221234
  16.36585941 -4.29514337 -4.13300363
  16.36585941 -7.15857228 -9.09260799
  16.36585941-15.74885901-14.05221234
  16.36585941-10.02200119 -4.13300363
  16.36585941-12.88543010 -9.09260799
  16.36585941-21.47571683-14.05221234
  16.36585941-15.74885901 -4.13300363
  16.36585941-18.61228792 -9.09260799
 


--------------------------------------------------------------------------------------------------------


 k-point  1 :   0.0000 0.0000 0.0000  plane waves:   90499
 k-point  2 :   0.5000 0.0000 0.0000  plane waves:   90530

 maximum and minimum number of plane-waves per node :     90530    90499

 maximum number of plane-waves:     90530
 maximum index in each direction: 
   IXMAX=   24   IYMAX=   24   IZMAX=   42
   IXMIN=  -24   IYMIN=  -24   IZMIN=  -42


 serial   3D FFT for wavefunctions
 parallel 3D FFT for charge:
    minimum data exchange during FFTs selected (reduces bandwidth)


 total amount of memory used by VASP MPI-rank0   497468. kBytes
=======================================================================

   base      :      30000. kBytes
   nonlr-proj:      78127. kBytes
   fftplans  :      40601. kBytes
   grid      :      86231. kBytes
   one-center:       3919. kBytes
   wavefun   :     258590. kBytes
 
     INWAV:  cpu time    0.0001: real time    0.0002
 Broyden mixing: mesh for mixing (old mesh)
   NGX = 49   NGY = 49   NGZ = 85
  (NGX  =160   NGY  =160   NGZ  =256)
  gives a total of 204085 points

 initial charge density was supplied:
 charge density of overlapping atoms calculated
 number of electron     756.0000000 magnetization 
 keeping initial charge density in first step


--------------------------------------------------------------------------------------------------------


 Maximum index for non-local projection operator         1777
 Maximum index for augmentation-charges          758 (set IRDMAX)


--------------------------------------------------------------------------------------------------------


 First call to EWALD:  gamma=   0.090
 Maximum number of real-space cells 3x 3x 2
 Maximum number of reciprocal cells 2x 2x 4

    FEWALD:  cpu time    0.0329: real time    0.0329


----------------------------------------- Iteration    1(   1)  ---------------------------------------


    POTLOK:  cpu time    0.8038: real time    0.8112
    SETDIJ:  cpu time    0.1030: real time    0.1058
     EDDAV:  cpu time   12.2727: real time   14.5384
       DOS:  cpu time    0.0172: real time    0.0229
    --------------------------------------------
      LOOP:  cpu time   13.1988: real time   15.4870

 eigenvalue-minimisations  :  2052
 total energy-change (2. order) : 0.2068718E+04  (-0.1806916E+05)
 number of electron     756.0000000 magnetization 
 augmentation part      756.0000000 magnetization 

 Free energy of the ion-electron system (eV)
  ---------------------------------------------------
  alpha Z        PSCENC =       494.38529243
  Ewald energy   TEWEN  =     88537.98879104
  -Hartree energ DENC   =   -102102.12922602
  -exchange      EXHF   =         0.00000000
  -V(xc)+E(xc)   XCENC  =     -6645.33139168
  PAW double counting   =     16682.43960858    -8629.89643091
  entropy T*S    EENTRO =        -0.06666910
  eigenvalues    EBANDS =       239.84720993
  atomic energy  EATOM  =     13491.48124856
  Solvation  Ediel_sol  =         0.00000000
  ---------------------------------------------------
  free energy    TOTEN  =      2068.71843282 eV

  energy without entropy =     2068.78510192  energy(sigma->0) =     2068.75176737


--------------------------------------------------------------------------------------------------------




----------------------------------------- Iteration    1(   2)  ---------------------------------------


     EDDAV:  cpu time   15.5456: real time   18.2000
       DOS:  cpu time    0.0033: real time    0.0033
    --------------------------------------------
      LOOP:  cpu time   15.5503: real time   18.2122

 eigenvalue-minimisations  :  2808
 total energy-change (2. order) :-0.2820679E+04  (-0.2669669E+04)
 number of electron     756.0000000 magnetization 
 augmentation part      756.0000000 magnetization 

 Free energy of the ion-electron system (eV)
  ---------------------------------------------------
  alpha Z        PSCENC =       494.38529243
  Ewald energy   TEWEN  =     88537.98879104
  -Hartree energ DENC   =   -102102.12922602
  -exchange      EXHF   =         0.00000000
  -V(xc)+E(xc)   XCENC  =     -6645.33139168
  PAW double counting   =     16682.43960858    -8629.89643091
  entropy T*S    EENTRO =        -0.11297401
  eigenvalues    EBANDS =     -2580.78552117
  atomic energy  EATOM  =     13491.48124856
  Solvation  Ediel_sol  =         0.00000000
  ---------------------------------------------------
  free energy    TOTEN  =      -751.96060319 eV

  energy without entropy =     -751.84762917  energy(sigma->0) =     -751.90411618


--------------------------------------------------------------------------------------------------------




----------------------------------------- Iteration    1(   3)  ---------------------------------------


     EDDAV:  cpu time   15.5835: real time   18.2137
       DOS:  cpu time    0.0029: real time    0.0029
    --------------------------------------------
      LOOP:  cpu time   15.5879: real time   18.2202

 eigenvalue-minimisations  :  2784
 total energy-change (2. order) :-0.1853326E+03  (-0.1771927E+03)
 number of electron     756.0000000 magnetization 
 augmentation part      756.0000000 magnetization 

 Free energy of the ion-electron system (eV)
  ---------------------------------------------------
  alpha Z        PSCENC =       494.38529243
  Ewald energy   TEWEN  =     88537.98879104
  -Hartree energ DENC   =   -102102.12922602
  -exchange      EXHF   =         0.00000000
  -V(xc)+E(xc)   XCENC  =     -6645.33139168
  PAW double counting   =     16682.43960858    -8629.89643091
  entropy T*S    EENTRO =        -0.19736445
  eigenvalues    EBANDS =     -2766.03373405
  atomic energy  EATOM  =     13491.48124856
  Solvation  Ediel_sol  =         0.00000000
  ---------------------------------------------------
  free energy    TOTEN  =      -937.29320650 eV

  energy without entropy =     -937.09584205  energy(sigma->0) =     -937.19452428


--------------------------------------------------------------------------------------------------------




----------------------------------------- Iteration    1(   4)  ---------------------------------------


     EDDAV:  cpu time   16.5314: real time   19.3048
       DOS:  cpu time    0.0042: real time    0.0042
    --------------------------------------------
      LOOP:  cpu time   16.5369: real time   19.3115

 eigenvalue-minimisations  :  3024
 total energy-change (2. order) :-0.8502467E+01  (-0.8338216E+01)
 number of electron     756.0000000 magnetization 
 augmentation part      756.0000000 magnetization 

 Free energy of the ion-electron system (eV)
  ---------------------------------------------------
  alpha Z        PSCENC =       494.38529243
  Ewald energy   TEWEN  =     88537.98879104
  -Hartree energ DENC   =   -102102.12922602
  -exchange      EXHF   =         0.00000000
  -V(xc)+E(xc)   XCENC  =     -6645.33139168
  PAW double counting   =     16682.43960858    -8629.89643091
  entropy T*S    EENTRO =        -0.21629340
  eigenvalues    EBANDS =     -2774.51727250
  atomic energy  EATOM  =     13491.48124856
  Solvation  Ediel_sol  =         0.00000000
  ---------------------------------------------------
  free energy    TOTEN  =      -945.79567391 eV

  energy without entropy =     -945.57938050  energy(sigma->0) =     -945.68752721


--------------------------------------------------------------------------------------------------------




----------------------------------------- Iteration    1(   5)  ---------------------------------------


     EDDAV:  cpu time   17.1282: real time   20.0052
       DOS:  cpu time    0.0010: real time    0.0010
    CHARGE:  cpu time    1.5334: real time    1.5844
    MIXING:  cpu time    0.0258: real time    0.0258
    --------------------------------------------
      LOOP:  cpu time   18.6900: real time   21.6192

 eigenvalue-minimisations  :  3156
 total energy-change (2. order) :-0.3475505E+00  (-0.3461442E+00)
 number of electron     756.0000017 magnetization 
 augmentation part      -10.3039246 magnetization 

 Broyden mixing:
  rms(total) = 0.17531E+01    rms(broyden)= 0.17531E+01
  rms(prec ) = 0.25096E+01
  weight for this iteration     100.00

 Free energy of the ion-electron system (eV)
  ---------------------------------------------------
  alpha Z        PSCENC =       494.38529243
  Ewald energy   TEWEN  =     88537.98879104
  -Hartree energ DENC   =   -102102.12922602
  -exchange      EXHF   =         0.00000000
  -V(xc)+E(xc)   XCENC  =     -6645.33139168
  PAW double counting   =     16682.43960858    -8629.89643091
  entropy T*S    EENTRO =        -0.21785410
  eigenvalues    EBANDS =     -2774.86326232
  atomic energy  EATOM  =     13491.48124856
  Solvation  Ediel_sol  =         0.00000000
  ---------------------------------------------------
  free energy    TOTEN  =      -946.14322442 eV

  energy without entropy =     -945.92537032  energy(sigma->0) =     -946.03429737


--------------------------------------------------------------------------------------------------------




----------------------------------------- Iteration    1(   6)  ---------------------------------------


    POTLOK:  cpu time    0.7657: real time    0.7682
    SETDIJ:  cpu time    0.1027: real time    0.1033
     EDDAV:  cpu time   16.8076: real time   19.5718
       DOS:  cpu time    0.0033: real time    0.0033
    CHARGE:  cpu time    1.5188: real time    1.5463
    MIXING:  cpu time    0.0274: real time    0.0428
    --------------------------------------------
      LOOP:  cpu time   19.2270: real time   22.0384

 eigenvalue-minimisations  :  3078
 total energy-change (2. order) :-0.1477474E+02  (-0.1806091E+02)
 number of electron     756.0000024 magnetization 
 augmentation part      -10.2607558 magnetization 

 Broyden mixing:
  rms(total) = 0.18058E+01    rms(broyden)= 0.18058E+01
  rms(prec ) = 0.41234E+01
  weight for this iteration     100.00

 eigenvalues of (default mixing * dielectric matrix)
  average eigenvalue GAMMA=   0.7242
  0.7242

 Free energy of the ion-electron system (eV)
  ---------------------------------------------------
  alpha Z        PSCENC =       494.38529243
  Ewald energy   TEWEN  =     88537.98879104
  -Hartree energ DENC   =   -103008.57671959
  -exchange      EXHF   =         0.00000000
  -V(xc)+E(xc)   XCENC  =     -6635.72387483
  PAW double counting   =     18481.53746675   -10430.18405477
  entropy T*S    EENTRO =        -0.20363608
  eigenvalues    EBANDS =     -1891.62248103
  atomic energy  EATOM  =     13491.48124856
  Solvation  Ediel_sol  =         0.00000000
  ---------------------------------------------------
  free energy    TOTEN  =      -960.91796752 eV

  energy without entropy =     -960.71433144  energy(sigma->0) =     -960.81614948


--------------------------------------------------------------------------------------------------------




----------------------------------------- Iteration    1(   7)  ---------------------------------------


    POTLOK:  cpu time    0.7691: real time    0.7702
    SETDIJ:  cpu time    0.1035: real time    0.1037
     EDDAV:  cpu time   15.0366: real time   17.5834
       DOS:  cpu time    0.0027: real time    0.0027
    CHARGE:  cpu time    1.5308: real time    1.5594
    MIXING:  cpu time    0.0284: real time    0.0284
    --------------------------------------------
      LOOP:  cpu time   17.4732: real time   20.0601

 eigenvalue-minimisations  :  2652
 total energy-change (2. order) : 0.3916745E+02  (-0.1375290E+02)
 number of electron     756.0000020 magnetization 
 augmentation part      -10.3095223 magnetization 

 Broyden mixing:
  rms(total) = 0.90415E+00    rms(broyden)= 0.90415E+00
  rms(prec ) = 0.11583E+01
  weight for this iteration     100.00

 eigenvalues of (default mixing * dielectric matrix)
  average eigenvalue GAMMA=   1.1692
  2.0308  0.3076

 Free energy of the ion-electron system (eV)
  ---------------------------------------------------
  alpha Z        PSCENC =       494.38529243
  Ewald energy   TEWEN  =     88537.98879104
  -Hartree energ DENC   =   -102497.48943274
  -exchange      EXHF   =         0.00000000
  -V(xc)+E(xc)   XCENC  =     -6633.70117892
  PAW double counting   =     18821.76750966   -10770.51534650
  entropy T*S    EENTRO =        -0.05518456
  eigenvalues    EBANDS =     -2365.61221733
  atomic energy  EATOM  =     13491.48124856
  Solvation  Ediel_sol  =         0.00000000
  ---------------------------------------------------
  free energy    TOTEN  =      -921.75051836 eV

  energy without entropy =     -921.69533380  energy(sigma->0) =     -921.72292608


--------------------------------------------------------------------------------------------------------




----------------------------------------- Iteration    1(   8)  ---------------------------------------


    POTLOK:  cpu time    0.7808: real time    0.7823
    SETDIJ:  cpu time    0.1033: real time    0.1033
     EDDAV:  cpu time   14.3760: real time   16.8689
       DOS:  cpu time    0.0034: real time    0.0034
    CHARGE:  cpu time    1.5235: real time    1.5505
    MIXING:  cpu time    0.0292: real time    0.0292
    --------------------------------------------
      LOOP:  cpu time   16.8178: real time   19.3405

 eigenvalue-minimisations  :  2520
 total energy-change (2. order) : 0.5478599E+00  (-0.4077176E+01)
 number of electron     756.0000021 magnetization 
 augmentation part      -10.4633272 magnetization 

 Broyden mixing:
  rms(total) = 0.42850E+00    rms(broyden)= 0.42850E+00
  rms(prec ) = 0.56113E+00
  weight for this iteration     100.00

 eigenvalues of (default mixing * dielectric matrix)
  average eigenvalue GAMMA=   1.1579
  2.4808  0.7020  0.2910

 Free energy of the ion-electron system (eV)
  ---------------------------------------------------
  alpha Z        PSCENC =       494.38529243
  Ewald energy   TEWEN  =     88537.98879104
  -Hartree energ DENC   =   -102667.19864564
  -exchange      EXHF   =         0.00000000
  -V(xc)+E(xc)   XCENC  =     -6624.40649996
  PAW double counting   =     20237.43596286   -12186.97389055
  entropy T*S    EENTRO =        -0.05553191
  eigenvalues    EBANDS =     -2203.85938528
  atomic energy  EATOM  =     13491.48124856
  Solvation  Ediel_sol  =         0.00000000
  ---------------------------------------------------
  free energy    TOTEN  =      -921.20265845 eV

  energy without entropy =     -921.14712655  energy(sigma->0) =     -921.17489250


--------------------------------------------------------------------------------------------------------




----------------------------------------- Iteration    1(   9)  ---------------------------------------


    POTLOK:  cpu time    0.7805: real time    0.7820
    SETDIJ:  cpu time    0.1032: real time    0.1034
     EDDAV:  cpu time   13.9162: real time   16.2489
       DOS:  cpu time    0.0027: real time    0.0027
    CHARGE:  cpu time    1.5213: real time    1.5487
    MIXING:  cpu time    0.0306: real time    0.0306
    --------------------------------------------
      LOOP:  cpu time   16.3563: real time   18.7194

 eigenvalue-minimisations  :  2376
 total energy-change (2. order) : 0.1929124E+01  (-0.4703592E+00)
 number of electron     756.0000022 magnetization 
 augmentation part      -10.5180333 magnetization 

 Broyden mixing:
  rms(total) = 0.10987E+00    rms(broyden)= 0.10987E+00
  rms(prec ) = 0.16310E+00
  weight for this iteration     100.00

 eigenvalues of (default mixing * dielectric matrix)
  average eigenvalue GAMMA=   1.2138
  2.4625  1.4314  0.2931  0.6683

 Free energy of the ion-electron system (eV)
  ---------------------------------------------------
  alpha Z        PSCENC =       494.38529243
  Ewald energy   TEWEN  =     88537.98879104
  -Hartree energ DENC   =   -102837.28468448
  -exchange      EXHF   =         0.00000000
  -V(xc)+E(xc)   XCENC  =     -6616.85706950
  PAW double counting   =     21339.04360040   -13289.50080292
  entropy T*S    EENTRO =        -0.05848750
  eigenvalues    EBANDS =     -2038.47142285
  atomic energy  EATOM  =     13491.48124856
  Solvation  Ediel_sol  =         0.00000000
  ---------------------------------------------------
  free energy    TOTEN  =      -919.27353483 eV

  energy without entropy =     -919.21504732  energy(sigma->0) =     -919.24429107


--------------------------------------------------------------------------------------------------------




----------------------------------------- Iteration    1(  10)  ---------------------------------------


    POTLOK:  cpu time    0.7802: real time    0.7816
    SETDIJ:  cpu time    0.1031: real time    0.1031
     EDDAV:  cpu time   15.4111: real time   17.9612
       DOS:  cpu time    0.0016: real time    0.0016
    CHARGE:  cpu time    1.5498: real time    1.5775
    MIXING:  cpu time    0.0326: real time    0.0388
    --------------------------------------------
      LOOP:  cpu time   17.8802: real time   20.4691

 eigenvalue-minimisations  :  2724
 total energy-change (2. order) : 0.9955664E-01  (-0.1277071E+00)
 number of electron     756.0000022 magnetization 
 augmentation part      -10.5409901 magnetization 

 Broyden mixing:
  rms(total) = 0.66929E-01    rms(broyden)= 0.66929E-01
  rms(prec ) = 0.91694E-01
  weight for this iteration     100.00

 eigenvalues of (default mixing * dielectric matrix)
  average eigenvalue GAMMA=   1.2878
  2.2814  2.2814  0.2927  0.7919  0.7919

 Free energy of the ion-electron system (eV)
  ---------------------------------------------------
  alpha Z        PSCENC =       494.38529243
  Ewald energy   TEWEN  =     88537.98879104
  -Hartree energ DENC   =   -102900.67689382
  -exchange      EXHF   =         0.00000000
  -V(xc)+E(xc)   XCENC  =     -6615.63841823
  PAW double counting   =     21409.89684056   -13360.76332240
  entropy T*S    EENTRO =        -0.06050477
  eigenvalues    EBANDS =     -1975.78701157
  atomic energy  EATOM  =     13491.48124856
  Solvation  Ediel_sol  =         0.00000000
  ---------------------------------------------------
  free energy    TOTEN  =      -919.17397819 eV

  energy without entropy =     -919.11347342  energy(sigma->0) =     -919.14372580


--------------------------------------------------------------------------------------------------------




----------------------------------------- Iteration    1(  11)  ---------------------------------------


    POTLOK:  cpu time    0.7858: real time    0.7870
    SETDIJ:  cpu time    0.1030: real time    0.1032
     EDDAV:  cpu time   14.2347: real time   16.6265
       DOS:  cpu time    0.0021: real time    0.0021
    CHARGE:  cpu time    1.5145: real time    1.5427
    MIXING:  cpu time    0.0332: real time    0.0332
    --------------------------------------------
      LOOP:  cpu time   16.6750: real time   19.0989

 eigenvalue-minimisations  :  2448
 total energy-change (2. order) : 0.5052768E-01  (-0.1357501E-01)
 number of electron     756.0000022 magnetization 
 augmentation part      -10.5386865 magnetization 

 Broyden mixing:
  rms(total) = 0.35070E-01    rms(broyden)= 0.35070E-01
  rms(prec ) = 0.53890E-01
  weight for this iteration     100.00

 eigenvalues of (default mixing * dielectric matrix)
  average eigenvalue GAMMA=   1.3978
  2.6531  2.6531  0.2927  0.7012  1.0432  1.0432

 Free energy of the ion-electron system (eV)
  ---------------------------------------------------
  alpha Z        PSCENC =       494.38529243
  Ewald energy   TEWEN  =     88537.98879104
  -Hartree energ DENC   =   -102946.08028249
  -exchange      EXHF   =         0.00000000
  -V(xc)+E(xc)   XCENC  =     -6614.96079103
  PAW double counting   =     21419.87104694   -13371.02432085
  entropy T*S    EENTRO =        -0.06176358
  eigenvalues    EBANDS =     -1930.72267153
  atomic energy  EATOM  =     13491.48124856
  Solvation  Ediel_sol  =         0.00000000
  ---------------------------------------------------
  free energy    TOTEN  =      -919.12345051 eV

  energy without entropy =     -919.06168693  energy(sigma->0) =     -919.09256872


--------------------------------------------------------------------------------------------------------




----------------------------------------- Iteration    1(  12)  ---------------------------------------


    POTLOK:  cpu time    0.7892: real time    0.7911
    SETDIJ:  cpu time    0.1031: real time    0.1031
     EDDAV:  cpu time   14.5204: real time   16.8964
       DOS:  cpu time    0.0010: real time    0.0010
    CHARGE:  cpu time    1.5190: real time    1.5465
    MIXING:  cpu time    0.0350: real time    0.0351
    --------------------------------------------
      LOOP:  cpu time   16.9692: real time   19.3760

 eigenvalue-minimisations  :  2484
 total energy-change (2. order) : 0.2769848E-01  (-0.5408165E-02)
 number of electron     756.0000022 magnetization 
 augmentation part      -10.5345283 magnetization 

 Broyden mixing:
  rms(total) = 0.16996E-01    rms(broyden)= 0.16996E-01
  rms(prec ) = 0.26548E-01
  weight for this iteration     100.00

 eigenvalues of (default mixing * dielectric matrix)
  average eigenvalue GAMMA=   1.5894
  3.5652  2.6311  0.2927  1.8251  0.7105  1.0507  1.0507

 Free energy of the ion-electron system (eV)
  ---------------------------------------------------
  alpha Z        PSCENC =       494.38529243
  Ewald energy   TEWEN  =     88537.98879104
  -Hartree energ DENC   =   -103001.94701392
  -exchange      EXHF   =         0.00000000
  -V(xc)+E(xc)   XCENC  =     -6614.26350751
  PAW double counting   =     21422.96436007   -13374.28064730
  entropy T*S    EENTRO =        -0.06417191
  eigenvalues    EBANDS =     -1875.36010349
  atomic energy  EATOM  =     13491.48124856
  Solvation  Ediel_sol  =         0.00000000
  ---------------------------------------------------
  free energy    TOTEN  =      -919.09575203 eV

  energy without entropy =     -919.03158012  energy(sigma->0) =     -919.06366608


--------------------------------------------------------------------------------------------------------




----------------------------------------- Iteration    1(  13)  ---------------------------------------


    POTLOK:  cpu time    0.7965: real time    0.7981
    SETDIJ:  cpu time    0.1033: real time    0.1034
     EDDAV:  cpu time   14.3820: real time   16.7803
       DOS:  cpu time    0.0027: real time    0.0027
    CHARGE:  cpu time    1.5222: real time    1.5496
    MIXING:  cpu time    0.0361: real time    0.0361
    --------------------------------------------
      LOOP:  cpu time   16.8445: real time   19.2732

 eigenvalue-minimisations  :  2484
 total energy-change (2. order) :-0.1483080E-01  (-0.2237481E-02)
 number of electron     756.0000022 magnetization 
 augmentation part      -10.5328429 magnetization 

 Broyden mixing:
  rms(total) = 0.11511E-01    rms(broyden)= 0.11511E-01
  rms(prec ) = 0.17103E-01
  weight for this iteration     100.00

 eigenvalues of (default mixing * dielectric matrix)
  average eigenvalue GAMMA=   1.8125
  4.7511  3.0274  2.3327  0.2927  0.7109  1.4146  0.9852  0.9852

 Free energy of the ion-electron system (eV)
  ---------------------------------------------------
  alpha Z        PSCENC =       494.38529243
  Ewald energy   TEWEN  =     88537.98879104
  -Hartree energ DENC   =   -103036.06633224
  -exchange      EXHF   =         0.00000000
  -V(xc)+E(xc)   XCENC  =     -6614.08350467
  PAW double counting   =     21403.75453338   -13354.95941426
  entropy T*S    EENTRO =        -0.06610551
  eigenvalues    EBANDS =     -1841.54509154
  atomic energy  EATOM  =     13491.48124856
  Solvation  Ediel_sol  =         0.00000000
  ---------------------------------------------------
  free energy    TOTEN  =      -919.11058283 eV

  energy without entropy =     -919.04447731  energy(sigma->0) =     -919.07753007


--------------------------------------------------------------------------------------------------------




----------------------------------------- Iteration    1(  14)  ---------------------------------------


    POTLOK:  cpu time    0.8100: real time    0.8115
    SETDIJ:  cpu time    0.1034: real time    0.1036
     EDDAV:  cpu time   13.7109: real time   16.0125
       DOS:  cpu time    0.0150: real time    0.0153
    CHARGE:  cpu time    1.5241: real time    1.5511
    MIXING:  cpu time    0.0385: real time    0.0387
    --------------------------------------------
      LOOP:  cpu time   16.2035: real time   18.5356

 eigenvalue-minimisations  :  2316
 total energy-change (2. order) :-0.9697398E-02  (-0.6134996E-03)
 number of electron     756.0000022 magnetization 
 augmentation part      -10.5323139 magnetization 

 Broyden mixing:
  rms(total) = 0.45352E-02    rms(broyden)= 0.45352E-02
  rms(prec ) = 0.71743E-02
  weight for this iteration     100.00

 eigenvalues of (default mixing * dielectric matrix)
  average eigenvalue GAMMA=   1.9160
  5.0444  3.4704  2.6711  0.2927  1.9096  0.7112  0.9873  0.9873  1.1701

 Free energy of the ion-electron system (eV)
  ---------------------------------------------------
  alpha Z        PSCENC =       494.38529243
  Ewald energy   TEWEN  =     88537.98879104
  -Hartree energ DENC   =   -103049.98923113
  -exchange      EXHF   =         0.00000000
  -V(xc)+E(xc)   XCENC  =     -6614.09411008
  PAW double counting   =     21393.04970969   -13344.16020285
  entropy T*S    EENTRO =        -0.06669815
  eigenvalues    EBANDS =     -1827.71507972
  atomic energy  EATOM  =     13491.48124856
  Solvation  Ediel_sol  =         0.00000000
  ---------------------------------------------------
  free energy    TOTEN  =      -919.12028023 eV

  energy without entropy =     -919.05358208  energy(sigma->0) =     -919.08693115


--------------------------------------------------------------------------------------------------------




----------------------------------------- Iteration    1(  15)  ---------------------------------------


    POTLOK:  cpu time    0.8100: real time    0.8128
    SETDIJ:  cpu time    0.1029: real time    0.1032
     EDDAV:  cpu time   14.1828: real time   16.6163
       DOS:  cpu time    0.0030: real time    0.0030
    CHARGE:  cpu time    1.5211: real time    1.5493
    MIXING:  cpu time    0.0404: real time    0.0404
    --------------------------------------------
      LOOP:  cpu time   16.6619: real time   19.1279

 eigenvalue-minimisations  :  2424
 total energy-change (2. order) :-0.4417512E-02  (-0.1459974E-03)
 number of electron     756.0000022 magnetization 
 augmentation part      -10.5328272 magnetization 

 Broyden mixing:
  rms(total) = 0.32936E-02    rms(broyden)= 0.32936E-02
  rms(prec ) = 0.50697E-02
  weight for this iteration     100.00

 eigenvalues of (default mixing * dielectric matrix)
  average eigenvalue GAMMA=   2.0112
  4.8363  4.8363  2.5928  2.3294  0.2927  1.5209  0.7110  0.9790  0.9790  1.0346

 Free energy of the ion-electron system (eV)
  ---------------------------------------------------
  alpha Z        PSCENC =       494.38529243
  Ewald energy   TEWEN  =     88537.98879104
  -Hartree energ DENC   =   -103056.28020594
  -exchange      EXHF   =         0.00000000
  -V(xc)+E(xc)   XCENC  =     -6614.03012746
  PAW double counting   =     21404.04412347   -13355.17002367
  entropy T*S    EENTRO =        -0.06673344
  eigenvalues    EBANDS =     -1821.47706273
  atomic energy  EATOM  =     13491.48124856
  Solvation  Ediel_sol  =         0.00000000
  ---------------------------------------------------
  free energy    TOTEN  =      -919.12469774 eV

  energy without entropy =     -919.05796430  energy(sigma->0) =     -919.09133102


--------------------------------------------------------------------------------------------------------




----------------------------------------- Iteration    1(  16)  ---------------------------------------


    POTLOK:  cpu time    0.8004: real time    0.8019
    SETDIJ:  cpu time    0.1034: real time    0.1039
     EDDAV:  cpu time   13.6369: real time   15.9533
       DOS:  cpu time    0.0010: real time    0.0010
    CHARGE:  cpu time    1.5220: real time    1.5490
    MIXING:  cpu time    0.0414: real time    0.0414
    --------------------------------------------
      LOOP:  cpu time   16.1068: real time   18.4533

 eigenvalue-minimisations  :  2304
 total energy-change (2. order) :-0.1192158E-02  (-0.1718208E-03)
 number of electron     756.0000022 magnetization 
 augmentation part      -10.5327966 magnetization 

 Broyden mixing:
  rms(total) = 0.18321E-02    rms(broyden)= 0.18321E-02
  rms(prec ) = 0.32827E-02
  weight for this iteration     100.00

 eigenvalues of (default mixing * dielectric matrix)
  average eigenvalue GAMMA=   1.9961
  4.9955  4.9955  2.5942  2.5942  0.2927  1.5703  0.7110  1.2606  0.9742  0.9742
  0.9949

 Free energy of the ion-electron system (eV)
  ---------------------------------------------------
  alpha Z        PSCENC =       494.38529243
  Ewald energy   TEWEN  =     88537.98879104
  -Hartree energ DENC   =   -103059.29107060
  -exchange      EXHF   =         0.00000000
  -V(xc)+E(xc)   XCENC  =     -6614.03572276
  PAW double counting   =     21402.50730609   -13353.65910362
  entropy T*S    EENTRO =        -0.06655662
  eigenvalues    EBANDS =     -1818.43607442
  atomic energy  EATOM  =     13491.48124856
  Solvation  Ediel_sol  =         0.00000000
  ---------------------------------------------------
  free energy    TOTEN  =      -919.12588990 eV

  energy without entropy =     -919.05933327  energy(sigma->0) =     -919.09261158


--------------------------------------------------------------------------------------------------------




----------------------------------------- Iteration    1(  17)  ---------------------------------------


    POTLOK:  cpu time    0.7957: real time    0.7977
    SETDIJ:  cpu time    0.1032: real time    0.1033
     EDDAV:  cpu time   13.6198: real time   15.9618
       DOS:  cpu time    0.0233: real time    0.0234
    CHARGE:  cpu time    1.5269: real time    1.5545
    MIXING:  cpu time    0.0438: real time    0.0439
    --------------------------------------------
      LOOP:  cpu time   16.1145: real time   18.4877

 eigenvalue-minimisations  :  2304
 total energy-change (2. order) :-0.1662485E-02  (-0.3116128E-04)
 number of electron     756.0000022 magnetization 
 augmentation part      -10.5325267 magnetization 

 Broyden mixing:
  rms(total) = 0.10479E-02    rms(broyden)= 0.10479E-02
  rms(prec ) = 0.16899E-02
  weight for this iteration     100.00

 eigenvalues of (default mixing * dielectric matrix)
  average eigenvalue GAMMA=   2.0094
  5.6619  4.9265  2.6510  2.6510  0.2927  1.6413  1.6413  0.7109  1.0167  1.0167
  0.9511  0.9511

 Free energy of the ion-electron system (eV)
  ---------------------------------------------------
  alpha Z        PSCENC =       494.38529243
  Ewald energy   TEWEN  =     88537.98879104
  -Hartree energ DENC   =   -103062.12964806
  -exchange      EXHF   =         0.00000000
  -V(xc)+E(xc)   XCENC  =     -6614.01885682
  PAW double counting   =     21402.18269509   -13353.34087174
  entropy T*S    EENTRO =        -0.06675188
  eigenvalues    EBANDS =     -1815.60945101
  atomic energy  EATOM  =     13491.48124856
  Solvation  Ediel_sol  =         0.00000000
  ---------------------------------------------------
  free energy    TOTEN  =      -919.12755238 eV

  energy without entropy =     -919.06080050  energy(sigma->0) =     -919.09417644


--------------------------------------------------------------------------------------------------------




----------------------------------------- Iteration    1(  18)  ---------------------------------------


    POTLOK:  cpu time    0.7940: real time    0.7949
    SETDIJ:  cpu time    0.1032: real time    0.1035
     EDDAV:  cpu time   12.8052: real time   15.0148
       DOS:  cpu time    0.0029: real time    0.0029
    CHARGE:  cpu time    1.5175: real time    1.5447
    MIXING:  cpu time    0.0464: real time    0.0465
    --------------------------------------------
      LOOP:  cpu time   15.2709: real time   17.5106

 eigenvalue-minimisations  :  2112
 total energy-change (2. order) :-0.2245000E-02  (-0.2644231E-04)
 number of electron     756.0000022 magnetization 
 augmentation part      -10.5324559 magnetization 

 Broyden mixing:
  rms(total) = 0.94452E-03    rms(broyden)= 0.94452E-03
  rms(prec ) = 0.14678E-02
  weight for this iteration     100.00

 eigenvalues of (default mixing * dielectric matrix)
  average eigenvalue GAMMA=   2.2924
  7.4863  5.5834  3.6182  2.7417  2.4440  0.2927  1.6145  0.7110  1.1723  1.1723
  0.9734  0.9734  1.0177

 Free energy of the ion-electron system (eV)
  ---------------------------------------------------
  alpha Z        PSCENC =       494.38529243
  Ewald energy   TEWEN  =     88537.98879104
  -Hartree energ DENC   =   -103063.87934952
  -exchange      EXHF   =         0.00000000
  -V(xc)+E(xc)   XCENC  =     -6614.02370406
  PAW double counting   =     21401.18389411   -13352.33325622
  entropy T*S    EENTRO =        -0.06688755
  eigenvalues    EBANDS =     -1813.86582617
  atomic energy  EATOM  =     13491.48124856
  Solvation  Ediel_sol  =         0.00000000
  ---------------------------------------------------
  free energy    TOTEN  =      -919.12979738 eV

[...]
     11.69112    -14.31714     -8.26601         0.000223     -0.000000     -0.000000
     13.99306     -0.00000      0.00000         0.000043     -0.000000     -0.000000
     13.99306     -2.86343     -4.95960         0.000043     -0.000000      0.000000
     13.99306     -5.72686     -9.91921         0.000043     -0.000000     -0.000000
     13.99306     -5.72686      0.00000         0.000043      0.000000     -0.000000
     13.99306     -8.59029     -4.95960         0.000043     -0.000000      0.000000
     13.99306    -11.45372     -9.91921         0.000043     -0.000000      0.000000
     13.99306    -11.45372      0.00000         0.000043      0.000000      0.000000
     13.99306    -14.31714     -4.95960         0.000043     -0.000000      0.000000
     13.99306    -17.18057     -9.91921         0.000043     -0.000000     -0.000000
     16.34180     -2.86343     -1.65320        -0.000251      0.000000      0.000000
     16.34180     -5.72686     -6.61281        -0.000251     -0.000000      0.000000
     16.34180     -8.59029    -11.57241        -0.000251     -0.000000      0.000000
     16.34180     -8.59029     -1.65320        -0.000251      0.000000      0.000000
     16.34180    -11.45372     -6.61281        -0.000251     -0.000000     -0.000000
     16.34180    -14.31714    -11.57241        -0.000251     -0.000000      0.000000
     16.34180    -14.31714     -1.65320        -0.000251     -0.000000     -0.000000
     16.34180    -17.18057     -6.61281        -0.000251      0.000000      0.000000
     16.34180    -20.04400    -11.57241        -0.000251     -0.000000      0.000000
      2.36204     -7.15857     -4.13300         0.000251      0.000000     -0.000000
      2.36204    -10.02200     -9.09261         0.000251      0.000000     -0.000000
      2.36204    -12.88543    -14.05221         0.000251      0.000000     -0.000000
      2.36204    -12.88543     -4.13300         0.000251     -0.000000     -0.000000
      2.36204    -15.74886     -9.09261         0.000251      0.000000     -0.000000
      2.36204    -18.61229    -14.05221         0.000251      0.000000      0.000000
      2.36204    -18.61229     -4.13300         0.000251     -0.000000     -0.000000
      2.36204    -21.47572     -9.09261         0.000251      0.000000      0.000000
      2.36204    -24.33915    -14.05221         0.000251      0.000000     -0.000000
      4.71078    -10.02200     -5.78621        -0.000043      0.000000     -0.000000
      4.71078    -12.88543    -10.74581        -0.000043      0.000000      0.000000
      4.71078     -7.15857     -0.82660        -0.000043      0.000000      0.000000
      4.71078    -15.74886     -5.78621        -0.000043      0.000000      0.000000
      4.71078    -18.61229    -10.74581        -0.000043      0.000000     -0.000000
      4.71078    -12.88543     -0.82660        -0.000043      0.000000      0.000000
      4.71078     -4.29514     -5.78621        -0.000043      0.000000     -0.000000
      4.71078     -7.15857    -10.74581        -0.000043     -0.000000     -0.000000
      4.71078     -1.43171     -0.82660        -0.000043      0.000000      0.000000
      7.01272    -12.88543     -7.43941        -0.000223      0.000000      0.000000
      7.01272    -15.74886    -12.39901        -0.000223      0.000000     -0.000000
      7.01272    -10.02200     -2.47980        -0.000223     -0.000000     -0.000000
      7.01272    -18.61229     -7.43941        -0.000223      0.000000      0.000000
      7.01272    -21.47572    -12.39901        -0.000223     -0.000000      0.000000
      7.01272    -15.74886     -2.47980        -0.000223     -0.000000     -0.000000
      7.01272     -7.15857     -7.43941        -0.000223     -0.000000      0.000000
      7.01272    -10.02200    -12.39901        -0.000223      0.000000      0.000000
      7.01272     -4.29514     -2.47980        -0.000223      0.000000     -0.000000
      9.35192    -15.74886     -9.09261        -0.000000     -0.000000     -0.000000
      9.35192    -18.61229    -14.05221        -0.000000      0.000000      0.000000
      9.35192    -12.88543     -4.13300         0.000000     -0.000000      0.000000
      9.35192    -21.47572     -9.09261        -0.000000     -0.000000     -0.000000
      9.35192    -24.33915    -14.05221         0.000000      0.000000     -0.000000
      9.35192    -18.61229     -4.13300        -0.000000     -0.000000     -0.000000
      9.35192    -10.02200     -9.09261         0.000000      0.000000     -0.000000
      9.35192    -12.88543    -14.05221        -0.000000     -0.000000      0.000000
      9.35192     -7.15857     -4.13300        -0.000000     -0.000000     -0.000000
     11.69112    -18.61229    -10.74581         0.000223     -0.000000     -0.000000
     11.69112    -12.88543     -0.82660         0.000223     -0.000000      0.000000
     11.69112    -15.74886     -5.78621         0.000223     -0.000000      0.000000
     11.69112     -7.15857    -10.74581         0.000223      0.000000      0.000000
     11.69112     -1.43171     -0.82660         0.000223      0.000000      0.000000
     11.69112     -4.29514     -5.78621         0.000223      0.000000      0.000000
     11.69112    -12.88543    -10.74581         0.000223      0.000000      0.000000
     11.69112     -7.15857     -0.82660         0.000223     -0.000000      0.000000
     11.69112    -10.02200     -5.78621         0.000223      0.000000     -0.000000
     13.99306    -21.47572    -12.39901         0.000043      0.000000     -0.000000
     13.99306    -15.74886     -2.47980         0.000043     -0.000000     -0.000000
     13.99306    -18.61229     -7.43941         0.000043     -0.000000     -0.000000
     13.99306    -10.02200    -12.39901         0.000043     -0.000000     -0.000000
     13.99306     -4.29514     -2.47980         0.000043     -0.000000      0.000000
     13.99306     -7.15857     -7.43941         0.000043     -0.000000     -0.000000
     13.99306    -15.74886    -12.39901         0.000043     -0.000000     -0.000000
     13.99306    -10.02200     -2.47980         0.000043     -0.000000     -0.000000
     13.99306    -12.88543     -7.43941         0.000043     -0.000000     -0.000000
     16.34180    -24.33915    -14.05221        -0.000251     -0.000000      0.000000
     16.34180    -18.61229     -4.13300        -0.000251      0.000000      0.000000
     16.34180    -21.47572     -9.09261        -0.000251     -0.000000      0.000000
     16.34180    -12.88543    -14.05221        -0.000251     -0.000000     -0.000000
     16.34180     -7.15857     -4.13300        -0.000251      0.000000     -0.000000
     16.34180    -10.02200     -9.09261        -0.000251      0.000000      0.000000
     16.34180    -18.61229    -14.05221        -0.000251     -0.000000      0.000000
     16.34180    -12.88543     -4.13300        -0.000251     -0.000000     -0.000000
     16.34180    -15.74886     -9.09261        -0.000251     -0.000000     -0.000000
      2.36204     -8.59029     -6.61281         0.000251      0.000000     -0.000000
      2.36204    -11.45372    -11.57241         0.000251      0.000000      0.000000
      2.36204     -5.72686     -1.65320         0.000251     -0.000000     -0.000000
      2.36204    -14.31714     -6.61281         0.000251      0.000000     -0.000000
      2.36204    -17.18057    -11.57241         0.000251     -0.000000     -0.000000
      2.36204    -11.45372     -1.65320         0.000251      0.000000     -0.000000
      2.36204    -20.04400     -6.61281         0.000251      0.000000     -0.000000
      2.36204    -22.90743    -11.57241         0.000251      0.000000     -0.000000
      2.36204    -17.18057     -1.65320         0.000251     -0.000000      0.000000
      4.71078    -11.45372     -8.26601        -0.000043     -0.000000      0.000000
      4.71078    -14.31714    -13.22561        -0.000043      0.000000      0.000000
      4.71078     -8.59029     -3.30640        -0.000043      0.000000      0.000000
      4.71078    -17.18057     -8.26601        -0.000043     -0.000000      0.000000
      4.71078    -20.04400    -13.22561        -0.000043      0.000000      0.000000
      4.71078    -14.31714     -3.30640        -0.000043     -0.000000      0.000000
      4.71078     -5.72686     -8.26601        -0.000043     -0.000000      0.000000
      4.71078     -8.59029    -13.22561        -0.000043      0.000000      0.000000
      4.71078     -2.86343     -3.30640        -0.000043     -0.000000      0.000000
      7.01272    -14.31714     -9.91921        -0.000223     -0.000000      0.000000
      7.01272     -8.59029      0.00000        -0.000223     -0.000000      0.000000
      7.01272    -11.45372     -4.95960        -0.000223      0.000000     -0.000000
      7.01272    -20.04400     -9.91921        -0.000223      0.000000      0.000000
      7.01272    -14.31714     -0.00000        -0.000223      0.000000     -0.000000
      7.01272    -17.18057     -4.95960        -0.000223     -0.000000     -0.000000
      7.01272     -8.59029     -9.91921        -0.000223     -0.000000     -0.000000
      7.01272     -2.86343      0.00000        -0.000223     -0.000000      0.000000
      7.01272     -5.72686     -4.95960        -0.000223     -0.000000      0.000000
      9.35192    -17.18057    -11.57241        -0.000000      0.000000     -0.000000
      9.35192    -11.45372     -1.65320         0.000000      0.000000      0.000000
      9.35192    -14.31714     -6.61281        -0.000000     -0.000000     -0.000000
      9.35192    -22.90743    -11.57241        -0.000000      0.000000      0.000000
      9.35192    -17.18057     -1.65320        -0.000000     -0.000000     -0.000000
      9.35192    -20.04400     -6.61281        -0.000000     -0.000000      0.000000
      9.35192    -11.45372    -11.57241        -0.000000     -0.000000     -0.000000
      9.35192     -5.72686     -1.65320        -0.000000      0.000000      0.000000
      9.35192     -8.59029     -6.61281        -0.000000     -0.000000      0.000000
     11.69112    -20.04400    -13.22561         0.000223      0.000000      0.000000
     11.69112    -14.31714     -3.30640         0.000223     -0.000000      0.000000
     11.69112    -17.18057     -8.26601         0.000223      0.000000      0.000000
     11.69112     -8.59029    -13.22561         0.000223      0.000000      0.000000
     11.69112     -2.86343     -3.30640         0.000223      0.000000     -0.000000
     11.69112     -5.72686     -8.26601         0.000223     -0.000000     -0.000000
     11.69112    -14.31714    -13.22561         0.000223      0.000000      0.000000
     11.69112     -8.59029     -3.30640         0.000223     -0.000000     -0.000000
     11.69112    -11.45372     -8.26601         0.000223      0.000000      0.000000
     13.99306    -14.31714      0.00000         0.000043      0.000000     -0.000000
     13.99306    -17.18057     -4.95960         0.000043     -0.000000     -0.000000
     13.99306    -20.04400     -9.91921         0.000043     -0.000000      0.000000
     13.99306     -2.86343      0.00000         0.000043     -0.000000      0.000000
     13.99306     -5.72686     -4.95960         0.000043     -0.000000     -0.000000
     13.99306     -8.59029     -9.91921         0.000043     -0.000000     -0.000000
     13.99306     -8.59029      0.00000         0.000043     -0.000000      0.000000
     13.99306    -11.45372     -4.95960         0.000043      0.000000     -0.000000
     13.99306    -14.31714     -9.91921         0.000043      0.000000     -0.000000
     16.34180    -17.18057     -1.65320        -0.000251      0.000000      0.000000
     16.34180    -20.04400     -6.61281        -0.000251     -0.000000      0.000000
     16.34180    -22.90743    -11.57241        -0.000251     -0.000000      0.000000
     16.34180     -5.72686     -1.65320        -0.000251      0.000000      0.000000
     16.34180     -8.59029     -6.61281        -0.000251      0.000000      0.000000
     16.34180    -11.45372    -11.57241        -0.000251     -0.000000     -0.000000
     16.34180    -11.45372     -1.65320        -0.000251      0.000000      0.000000
     16.34180    -14.31714     -6.61281        -0.000251     -0.000000      0.000000
     16.34180    -17.18057    -11.57241        -0.000251     -0.000000      0.000000
      2.36204    -10.02200     -4.13300         0.000251     -0.000000     -0.000000
      2.36204    -12.88543     -9.09261         0.000251      0.000000     -0.000000
      2.36204    -15.74886    -14.05221         0.000251      0.000000     -0.000000
      2.36204    -15.74886     -4.13300         0.000251      0.000000      0.000000
      2.36204    -18.61229     -9.09261         0.000251      0.000000     -0.000000
      2.36204    -21.47572    -14.05221         0.000251      0.000000      0.000000
      2.36204     -4.29514     -4.13300         0.000251     -0.000000     -0.000000
      2.36204     -7.15857     -9.09261         0.000251      0.000000     -0.000000
      2.36204    -10.02200    -14.05221         0.000251      0.000000     -0.000000
      4.71078    -12.88543     -5.78621        -0.000043     -0.000000     -0.000000
      4.71078    -15.74886    -10.74581        -0.000043     -0.000000     -0.000000
      4.71078    -10.02200     -0.82660        -0.000043      0.000000      0.000000
      4.71078    -18.61229     -5.78621        -0.000043      0.000000      0.000000
      4.71078    -21.47572    -10.74581        -0.000043      0.000000      0.000000
      4.71078    -15.74886     -0.82660        -0.000043      0.000000      0.000000
      4.71078     -7.15857     -5.78621        -0.000043      0.000000      0.000000
      4.71078    -10.02200    -10.74581        -0.000043     -0.000000     -0.000000
      4.71078     -4.29514     -0.82660        -0.000043      0.000000      0.000000
      7.01272    -15.74886     -7.43941        -0.000223     -0.000000     -0.000000
      7.01272    -18.61229    -12.39901        -0.000223      0.000000      0.000000
      7.01272    -12.88543     -2.47980        -0.000223      0.000000      0.000000
      7.01272     -4.29514     -7.43941        -0.000223      0.000000      0.000000
      7.01272     -7.15857    -12.39901        -0.000223      0.000000     -0.000000
      7.01272     -1.43171     -2.47980        -0.000223     -0.000000     -0.000000
      7.01272    -10.02200     -7.43941        -0.000223      0.000000     -0.000000
      7.01272    -12.88543    -12.39901        -0.000223     -0.000000      0.000000
      7.01272     -7.15857     -2.47980        -0.000223     -0.000000     -0.000000
      9.35192    -18.61229     -9.09261        -0.000000      0.000000      0.000000
      9.35192    -21.47572    -14.05221         0.000000      0.000000     -0.000000
      9.35192    -15.74886     -4.13300        -0.000000     -0.000000     -0.000000
      9.35192     -7.15857     -9.09261        -0.000000     -0.000000     -0.000000
      9.35192    -10.02200    -14.05221         0.000000      0.000000      0.000000
      9.35192     -4.29514     -4.13300        -0.000000      0.000000     -0.000000
      9.35192    -12.88543     -9.09261        -0.000000      0.000000      0.000000
      9.35192    -15.74886    -14.05221        -0.000000      0.000000     -0.000000
      9.35192    -10.02200     -4.13300         0.000000     -0.000000     -0.000000
     11.69112    -21.47572    -10.74581         0.000223      0.000000      0.000000
     11.69112    -15.74886     -0.82660         0.000223     -0.000000      0.000000
     11.69112    -18.61229     -5.78621         0.000223      0.000000     -0.000000
     11.69112    -10.02200    -10.74581         0.000223      0.000000     -0.000000
     11.69112     -4.29514     -0.82660         0.000223     -0.000000      0.000000
     11.69112     -7.15857     -5.78621         0.000223     -0.000000     -0.000000
     11.69112    -15.74886    -10.74581         0.000223      0.000000      0.000000
     11.69112    -10.02200     -0.82660         0.000223      0.000000     -0.000000
     11.69112    -12.88543     -5.78621         0.000223     -0.000000     -0.000000
     13.99306     -7.15857    -12.39901         0.000043      0.000000     -0.000000
     13.99306     -1.43171     -2.47980         0.000043     -0.000000     -0.000000
     13.99306     -4.29514     -7.43941         0.000043     -0.000000     -0.000000
     13.99306    -12.88543    -12.39901         0.000043      0.000000     -0.000000
     13.99306     -7.15857     -2.47980         0.000043      0.000000     -0.000000
     13.99306    -10.02200     -7.43941         0.000043     -0.000000     -0.000000
     13.99306    -18.61229    -12.39901         0.000043     -0.000000     -0.000000
     13.99306    -12.88543     -2.47980         0.000043     -0.000000     -0.000000
     13.99306    -15.74886     -7.43941         0.000043     -0.000000     -0.000000
     16.34180    -10.02200    -14.05221        -0.000251     -0.000000      0.000000
     16.34180     -4.29514     -4.13300        -0.000251     -0.000000     -0.000000
     16.34180     -7.15857     -9.09261        -0.000251     -0.000000     -0.000000
     16.34180    -15.74886    -14.05221        -0.000251     -0.000000      0.000000
     16.34180    -10.02200     -4.13300        -0.000251      0.000000      0.000000
     16.34180    -12.88543     -9.09261        -0.000251     -0.000000     -0.000000
     16.34180    -21.47572    -14.05221        -0.000251     -0.000000      0.000000
     16.34180    -15.74886     -4.13300        -0.000251     -0.000000     -0.000000
     16.34180    -18.61229     -9.09261        -0.000251     -0.000000      0.000000
 -----------------------------------------------------------------------------------
    total drift:                                0.031668     -0.000003     -0.000002


--------------------------------------------------------------------------------------------------------



  FREE ENERGIE OF THE ION-ELECTRON SYSTEM (eV)
  ---------------------------------------------------
  free  energy   TOTEN  =      -919.29421027 eV

  energy  without entropy=     -919.23853729  energy(sigma->0) =     -919.26637378
 
 d Force = 0.1421544E-03[-0.304E-06, 0.285E-03]  d Energy = 0.1449687E-03-0.281E-05
 d Force = 0.5767736E+01[ 0.577E+01, 0.577E+01]  d Ewald  = 0.5767736E+01-0.352E-08


--------------------------------------------------------------------------------------------------------


    POTLOK:  cpu time    0.9086: real time    0.9116


--------------------------------------------------------------------------------------------------------




--------------------------------------------------------------------------------------------------------


  
 reached required accuracy - stopping structural energy minimisation
     LOOP+:  cpu time   94.1229: real time  107.2954
    4ORBIT:  cpu time    0.0000: real time    0.0000

 total amount of memory used by VASP MPI-rank0   497468. kBytes
=======================================================================

   base      :      30000. kBytes
   nonlr-proj:      78127. kBytes
   fftplans  :      40601. kBytes
   grid      :      86231. kBytes
   one-center:       3919. kBytes
   wavefun   :     258590. kBytes
 
  
  
 General timing and accounting informations for this job:
 ========================================================
  
                  Total CPU time used (sec):     2247.530
                            User time (sec):      528.442
                          System time (sec):     1719.089
                         Elapsed time (sec):     2589.390
  
                   Maximum memory used (kb):      828340.
                   Average memory used (kb):           0.
  
                          Minor page faults:     76806302
                          Major page faults:           37
                 Voluntary context switches:        55470
