NiAl                                    
           1
     0.000000  -17.180573    0.000000
     0.000000   -8.590287  -14.878813
    30.000000    0.000000    0.000000
   Al
 252
Direct configuration=     1
   0.44444444  0.44444444  0.07793266
   0.44444444  0.77777778  0.07793266
   0.44444444  0.11111111  0.07793266
   0.77777778  0.44444444  0.07793266
   0.77777778  0.77777778  0.07793266
   0.77777778  0.11111111  0.07793266
   0.11111111  0.44444444  0.07793266
   0.11111111  0.77777778  0.07793266
   0.11111111  0.11111111  0.07793266
   0.55555556  0.55555556  0.15586533
   0.55555556  0.88888889  0.15586533
   0.55555556  0.22222222  0.15586533
   0.88888889  0.55555556  0.15586533
   0.88888889  0.88888889  0.15586533
   0.88888889  0.22222222  0.15586533
   0.22222222  0.55555556  0.15586533
   0.22222222  0.88888889  0.15586533
   0.22222222  0.22222222  0.15586533
   0.66666667  0.66666667  0.23379799
   0.66666667  0.00000000  0.23379799
   0.66666667  0.33333333  0.23379799
   0.00000000  0.66666667  0.23379799
   0.00000000  0.00000000  0.23379799
   0.00000000  0.33333333  0.23379799
   0.33333333  0.66666667  0.23379799
   0.33333333  0.00000000  0.23379799
   0.33333333  0.33333333  0.23379799
   0.77777778  0.77777778  0.31173066
   0.77777778  0.11111111  0.31173066
   0.77777778  0.44444444  0.31173066
   0.11111111  0.77777778  0.31173066
   0.11111111  0.11111111  0.31173066
   0.11111111  0.44444444  0.31173066
   0.44444444  0.77777778  0.31173066
   0.44444444  0.11111111  0.31173066
   0.44444444  0.44444444  0.31173066
   0.88888889  0.88888889  0.38966332
   0.88888889  0.22222222  0.38966332
   0.88888889  0.55555556  0.38966332
   0.22222222  0.88888889  0.38966332
   0.22222222  0.22222222  0.38966332
   0.22222222  0.55555556  0.38966332
   0.55555556  0.88888889  0.38966332
   0.55555556  0.22222222  0.38966332
   0.55555556  0.55555556  0.38966332
   0.00000000  0.00000000  0.46759598
   0.00000000  0.33333333  0.46759598
   0.00000000  0.66666667  0.46759598
   0.33333333  0.00000000  0.46759598
   0.33333333  0.33333333  0.46759598
   0.33333333  0.66666667  0.46759598
   0.66666667  0.00000000  0.46759598
   0.66666667  0.33333333  0.46759598
   0.66666667  0.66666667  0.46759598
   0.11111111  0.11111111  0.54552865
   0.11111111  0.44444444  0.54552865
   0.11111111  0.77777778  0.54552865
   0.44444444  0.11111111  0.54552865
   0.44444444  0.44444444  0.54552865
   0.44444444  0.77777778  0.54552865
   0.77777778  0.11111111  0.54552865
   0.77777778  0.44444444  0.54552865
   0.77777778  0.77777778  0.54552865
   0.27777778  0.27777778  0.07793266
   0.27777778  0.61111111  0.07793266
   0.27777778  0.94444444  0.07793266
   0.61111111  0.27777778  0.07793266
   0.61111111  0.61111111  0.07793266
   0.61111111  0.94444444  0.07793266
   0.94444444  0.27777778  0.07793266
   0.94444444  0.61111111  0.07793266
   0.94444444  0.94444444  0.07793266
   0.38888889  0.38888889  0.15586533
   0.38888889  0.72222222  0.15586533
   0.38888889  0.05555556  0.15586533
   0.72222222  0.38888889  0.15586533
   0.72222222  0.72222222  0.15586533
   0.72222222  0.05555556  0.15586533
   0.05555556  0.38888889  0.15586533
   0.05555556  0.72222222  0.15586533
   0.05555556  0.05555556  0.15586533
   0.50000000  0.50000000  0.23379799
   0.50000000  0.83333333  0.23379799
   0.50000000  0.16666667  0.23379799
   0.83333333  0.50000000  0.23379799
   0.83333333  0.83333333  0.23379799
   0.83333333  0.16666667  0.23379799
   0.16666667  0.50000000  0.23379799
   0.16666667  0.83333333  0.23379799
   0.16666667  0.16666667  0.23379799
   0.61111111  0.61111111  0.31173066
   0.61111111  0.94444444  0.31173066
   0.61111111  0.27777778  0.31173066
   0.94444444  0.61111111  0.31173066
   0.94444444  0.94444444  0.31173066
   0.94444444  0.27777778  0.31173066
   0.27777778  0.61111111  0.31173066
   0.27777778  0.94444444  0.31173066
   0.27777778  0.27777778  0.31173066
   0.72222222  0.72222222  0.38966332
   0.72222222  0.05555556  0.38966332
   0.72222222  0.38888889  0.38966332
   0.05555556  0.72222222  0.38966332
   0.05555556  0.05555556  0.38966332
   0.05555556  0.38888889  0.38966332
   0.38888889  0.72222222  0.38966332
   0.38888889  0.05555556  0.38966332
   0.38888889  0.38888889  0.38966332
   0.83333333  0.83333333  0.46759598
   0.83333333  0.16666667  0.46759598
   0.83333333  0.50000000  0.46759598
   0.16666667  0.83333333  0.46759598
   0.16666667  0.16666667  0.46759598
   0.16666667  0.50000000  0.46759598
   0.50000000  0.83333333  0.46759598
   0.50000000  0.16666667  0.46759598
   0.50000000  0.50000000  0.46759598
   0.94444444  0.94444444  0.54552865
   0.94444444  0.27777778  0.54552865
   0.94444444  0.61111111  0.54552865
   0.27777778  0.94444444  0.54552865
   0.27777778  0.27777778  0.54552865
   0.27777778  0.61111111  0.54552865
   0.61111111  0.94444444  0.54552865
   0.61111111  0.27777778  0.54552865
   0.61111111  0.61111111  0.54552865
   0.27777778  0.44444444  0.07793266
   0.27777778  0.77777778  0.07793266
   0.27777778  0.11111111  0.07793266
   0.61111111  0.44444444  0.07793266
   0.61111111  0.77777778  0.07793266
   0.61111111  0.11111111  0.07793266
   0.94444444  0.44444444  0.07793266
   0.94444444  0.77777778  0.07793266
   0.94444444  0.11111111  0.07793266
   0.38888889  0.55555556  0.15586533
   0.38888889  0.88888889  0.15586533
   0.38888889  0.22222222  0.15586533
   0.72222222  0.55555556  0.15586533
   0.72222222  0.88888889  0.15586533
   0.72222222  0.22222222  0.15586533
   0.05555556  0.55555556  0.15586533
   0.05555556  0.88888889  0.15586533
   0.05555556  0.22222222  0.15586533
   0.50000000  0.66666667  0.23379799
   0.50000000  0.00000000  0.23379799
   0.50000000  0.33333333  0.23379799
   0.83333333  0.66666667  0.23379799
   0.83333333  0.00000000  0.23379799
   0.83333333  0.33333333  0.23379799
   0.16666667  0.66666667  0.23379799
   0.16666667  0.00000000  0.23379799
   0.16666667  0.33333333  0.23379799
   0.61111111  0.77777778  0.31173066
   0.61111111  0.11111111  0.31173066
   0.61111111  0.44444444  0.31173066
   0.94444444  0.77777778  0.31173066
   0.94444444  0.11111111  0.31173066
   0.94444444  0.44444444  0.31173066
   0.27777778  0.77777778  0.31173066
   0.27777778  0.11111111  0.31173066
   0.27777778  0.44444444  0.31173066
   0.72222222  0.88888889  0.38966332
   0.72222222  0.22222222  0.38966332
   0.72222222  0.55555556  0.38966332
   0.05555556  0.88888889  0.38966332
   0.05555556  0.22222222  0.38966332
   0.05555556  0.55555556  0.38966332
   0.38888889  0.88888889  0.38966332
   0.38888889  0.22222222  0.38966332
   0.38888889  0.55555556  0.38966332
   0.83333333  0.00000000  0.46759598
   0.83333333  0.33333333  0.46759598
   0.83333333  0.66666667  0.46759598
   0.16666667  0.00000000  0.46759598
   0.16666667  0.33333333  0.46759598
   0.16666667  0.66666667  0.46759598
   0.50000000  0.00000000  0.46759598
   0.50000000  0.33333333  0.46759598
   0.50000000  0.66666667  0.46759598
   0.94444444  0.11111111  0.54552865
   0.94444444  0.44444444  0.54552865
   0.94444444  0.77777778  0.54552865
   0.27777778  0.11111111  0.54552865
   0.27777778  0.44444444  0.54552865
   0.27777778  0.77777778  0.54552865
   0.61111111  0.11111111  0.54552865
   0.61111111  0.44444444  0.54552865
   0.61111111  0.77777778  0.54552865
   0.44444444  0.27777778  0.07793266
   0.44444444  0.61111111  0.07793266
   0.44444444  0.94444444  0.07793266
   0.77777778  0.27777778  0.07793266
   0.77777778  0.61111111  0.07793266
   0.77777778  0.94444444  0.07793266
   0.11111111  0.27777778  0.07793266
   0.11111111  0.61111111  0.07793266
   0.11111111  0.94444444  0.07793266
   0.55555556  0.38888889  0.15586533
   0.55555556  0.72222222  0.15586533
   0.55555556  0.05555556  0.15586533
   0.88888889  0.38888889  0.15586533
   0.88888889  0.72222222  0.15586533
   0.88888889  0.05555556  0.15586533
   0.22222222  0.38888889  0.15586533
   0.22222222  0.72222222  0.15586533
   0.22222222  0.05555556  0.15586533
   0.66666667  0.50000000  0.23379799
   0.66666667  0.83333333  0.23379799
   0.66666667  0.16666667  0.23379799
   0.00000000  0.50000000  0.23379799
   0.00000000  0.83333333  0.23379799
   0.00000000  0.16666667  0.23379799
   0.33333333  0.50000000  0.23379799
   0.33333333  0.83333333  0.23379799
   0.33333333  0.16666667  0.23379799
   0.77777778  0.61111111  0.31173066
   0.77777778  0.94444444  0.31173066
   0.77777778  0.27777778  0.31173066
   0.11111111  0.61111111  0.31173066
   0.11111111  0.94444444  0.31173066
   0.11111111  0.27777778  0.31173066
   0.44444444  0.61111111  0.31173066
   0.44444444  0.94444444  0.31173066
   0.44444444  0.27777778  0.31173066
   0.88888889  0.72222222  0.38966332
   0.88888889  0.05555556  0.38966332
   0.88888889  0.38888889  0.38966332
   0.22222222  0.72222222  0.38966332
   0.22222222  0.05555556  0.38966332
   0.22222222  0.38888889  0.38966332
   0.55555556  0.72222222  0.38966332
   0.55555556  0.05555556  0.38966332
   0.55555556  0.38888889  0.38966332
   0.00000000  0.83333333  0.46759598
   0.00000000  0.16666667  0.46759598
   0.00000000  0.50000000  0.46759598
   0.33333333  0.83333333  0.46759598
   0.33333333  0.16666667  0.46759598
   0.33333333  0.50000000  0.46759598
   0.66666667  0.83333333  0.46759598
   0.66666667  0.16666667  0.46759598
   0.66666667  0.50000000  0.46759598
   0.11111111  0.94444444  0.54552865
   0.11111111  0.27777778  0.54552865
   0.11111111  0.61111111  0.54552865
   0.44444444  0.94444444  0.54552865
   0.44444444  0.27777778  0.54552865
   0.44444444  0.61111111  0.54552865
   0.77777778  0.94444444  0.54552865
   0.77777778  0.27777778  0.54552865
   0.77777778  0.61111111  0.54552865
Direct configuration=     2
   0.44444444  0.44444444  0.07792009
   0.44444444  0.77777778  0.07792009
   0.44444444  0.11111111  0.07792009
   0.77777778  0.44444444  0.07792009
   0.77777778  0.77777778  0.07792009
   0.77777778  0.11111111  0.07792009
   0.11111111  0.44444444  0.07792009
   0.11111111  0.77777778  0.07792009
   0.11111111  0.11111111  0.07792009
   0.55555556  0.55555556  0.15595256
   0.55555556  0.88888889  0.15595256
   0.55555556  0.22222222  0.15595256
   0.88888889  0.55555556  0.15595256
   0.88888889  0.88888889  0.15595256
   0.88888889  0.22222222  0.15595256
   0.22222222  0.55555556  0.15595256
   0.22222222  0.88888889  0.15595256
   0.22222222  0.22222222  0.15595256
   0.66666667  0.66666667  0.23373005
   0.66666667 -0.00000000  0.23373005
   0.66666667  0.33333333  0.23373005
  -0.00000000  0.66666667  0.23373005
  -0.00000000 -0.00000000  0.23373005
  -0.00000000  0.33333333  0.23373005
   0.33333333  0.66666667  0.23373005
   0.33333333 -0.00000000  0.23373005
   0.33333333  0.33333333  0.23373005
   0.77777778  0.77777778  0.31173066
   0.77777778  0.11111111  0.31173066
   0.77777778  0.44444444  0.31173066
   0.11111111  0.77777778  0.31173066
   0.11111111  0.11111111  0.31173066
   0.11111111  0.44444444  0.31173066
   0.44444444  0.77777778  0.31173066
   0.44444444  0.11111111  0.31173066
   0.44444444  0.44444444  0.31173066
   0.88888889  0.88888889  0.38973126
   0.88888889  0.22222222  0.38973126
   0.88888889  0.55555556  0.38973126
   0.22222222  0.88888889  0.38973126
   0.22222222  0.22222222  0.38973126
   0.22222222  0.55555556  0.38973126
   0.55555556  0.88888889  0.38973126
   0.55555556  0.22222222  0.38973126
   0.55555556  0.55555556  0.38973126
   0.00000000 -0.00000000  0.46750875
  -0.00000000  0.33333333  0.46750875
   0.00000000  0.66666667  0.46750875
   0.33333333 -0.00000000  0.46750875
   0.33333333  0.33333333  0.46750875
   0.33333333  0.66666667  0.46750875
   0.66666667 -0.00000000  0.46750875
   0.66666667  0.33333333  0.46750875
   0.66666667  0.66666667  0.46750875
   0.11111111  0.11111111  0.54554122
   0.11111111  0.44444444  0.54554122
   0.11111111  0.77777778  0.54554122
   0.44444444  0.11111111  0.54554122
   0.44444444  0.44444444  0.54554122
   0.44444444  0.77777778  0.54554122
   0.77777778  0.11111111  0.54554122
   0.77777778  0.44444444  0.54554122
   0.77777778  0.77777778  0.54554122
   0.27777778  0.27777778  0.07792009
   0.27777778  0.61111111  0.07792009
   0.27777778  0.94444444  0.07792009
   0.61111111  0.27777778  0.07792009
   0.61111111  0.61111111  0.07792009
   0.61111111  0.94444444  0.07792009
   0.94444444  0.27777778  0.07792009
   0.94444444  0.61111111  0.07792009
   0.94444444  0.94444444  0.07792009
   0.38888889  0.38888889  0.15595256
   0.38888889  0.72222222  0.15595256
   0.38888889  0.05555556  0.15595256
   0.72222222  0.38888889  0.15595256
   0.72222222  0.72222222  0.15595256
   0.72222222  0.05555556  0.15595256
   0.05555556  0.38888889  0.15595256
   0.05555556  0.72222222  0.15595256
   0.05555556  0.05555556  0.15595256
   0.50000000  0.50000000  0.23373005
   0.50000000  0.83333333  0.23373005
   0.50000000  0.16666667  0.23373005
   0.83333333  0.50000000  0.23373005
   0.83333333  0.83333333  0.23373005
   0.83333333  0.16666667  0.23373005
   0.16666667  0.50000000  0.23373005
   0.16666667  0.83333333  0.23373005
   0.16666667  0.16666667  0.23373005
   0.61111111  0.61111111  0.31173066
   0.61111111  0.94444444  0.31173066
   0.61111111  0.27777778  0.31173066
   0.94444444  0.61111111  0.31173066
   0.94444444  0.94444444  0.31173066
   0.94444444  0.27777778  0.31173066
   0.27777778  0.61111111  0.31173066
   0.27777778  0.94444444  0.31173066
   0.27777778  0.27777778  0.31173066
   0.72222222  0.72222222  0.38973126
   0.72222222  0.05555556  0.38973126
   0.72222222  0.38888889  0.38973126
   0.05555556  0.72222222  0.38973126
   0.05555556  0.05555556  0.38973126
   0.05555556  0.38888889  0.38973126
   0.38888889  0.72222222  0.38973126
   0.38888889  0.05555556  0.38973126
   0.38888889  0.38888889  0.38973126
   0.83333333  0.83333333  0.46750875
   0.83333333  0.16666667  0.46750875
   0.83333333  0.50000000  0.46750875
   0.16666667  0.83333333  0.46750875
   0.16666667  0.16666667  0.46750875
   0.16666667  0.50000000  0.46750875
   0.50000000  0.83333333  0.46750875
   0.50000000  0.16666667  0.46750875
   0.50000000  0.50000000  0.46750875
   0.94444444  0.94444444  0.54554122
   0.94444444  0.27777778  0.54554122
   0.94444444  0.61111111  0.54554122
   0.27777778  0.94444444  0.54554122
   0.27777778  0.27777778  0.54554122
   0.27777778  0.61111111  0.54554122
   0.61111111  0.94444444  0.54554122
   0.61111111  0.27777778  0.54554122
   0.61111111  0.61111111  0.54554122
   0.27777778  0.44444444  0.07792009
   0.27777778  0.77777778  0.07792009
   0.27777778  0.11111111  0.07792009
   0.61111111  0.44444444  0.07792009
   0.61111111  0.77777778  0.07792009
   0.61111111  0.11111111  0.07792009
   0.94444444  0.44444444  0.07792009
   0.94444444  0.77777778  0.07792009
   0.94444444  0.11111111  0.07792009
   0.38888889  0.55555556  0.15595256
   0.38888889  0.88888889  0.15595256
   0.38888889  0.22222222  0.15595256
   0.72222222  0.55555556  0.15595256
   0.72222222  0.88888889  0.15595256
   0.72222222  0.22222222  0.15595256
   0.05555556  0.55555556  0.15595256
   0.05555556  0.88888889  0.15595256
   0.05555556  0.22222222  0.15595256
   0.50000000  0.66666667  0.23373005
   0.50000000 -0.00000000  0.23373005
   0.50000000  0.33333333  0.23373005
   0.83333333  0.66666667  0.23373005
   0.83333333 -0.00000000  0.23373005
   0.83333333  0.33333333  0.23373005
   0.16666667  0.66666667  0.23373005
   0.16666667 -0.00000000  0.23373005
   0.16666667  0.33333333  0.23373005
   0.61111111  0.77777778  0.31173066
   0.61111111  0.11111111  0.31173066
   0.61111111  0.44444444  0.31173066
   0.94444444  0.77777778  0.31173066
   0.94444444  0.11111111  0.31173066
   0.94444444  0.44444444  0.31173066
   0.27777778  0.77777778  0.31173066
   0.27777778  0.11111111  0.31173066
   0.27777778  0.44444444  0.31173066
   0.72222222  0.88888889  0.38973126
   0.72222222  0.22222222  0.38973126
   0.72222222  0.55555556  0.38973126
   0.05555556  0.88888889  0.38973126
   0.05555556  0.22222222  0.38973126
   0.05555556  0.55555556  0.38973126
   0.38888889  0.88888889  0.38973126
   0.38888889  0.22222222  0.38973126
   0.38888889  0.55555556  0.38973126
   0.83333333 -0.00000000  0.46750875
   0.83333333  0.33333333  0.46750875
   0.83333333  0.66666667  0.46750875
   0.16666667 -0.00000000  0.46750875
   0.16666667  0.33333333  0.46750875
   0.16666667  0.66666667  0.46750875
   0.50000000 -0.00000000  0.46750875
   0.50000000  0.33333333  0.46750875
   0.50000000  0.66666667  0.46750875
   0.94444444  0.11111111  0.54554122
   0.94444444  0.44444444  0.54554122
   0.94444444  0.77777778  0.54554122
   0.27777778  0.11111111  0.54554122
   0.27777778  0.44444444  0.54554122
   0.27777778  0.77777778  0.54554122
   0.61111111  0.11111111  0.54554122
   0.61111111  0.44444444  0.54554122
   0.61111111  0.77777778  0.54554122
   0.44444444  0.27777778  0.07792009
   0.44444444  0.61111111  0.07792009
   0.44444444  0.94444444  0.07792009
   0.77777778  0.27777778  0.07792009
   0.77777778  0.61111111  0.07792009
   0.77777778  0.94444444  0.07792009
   0.11111111  0.27777778  0.07792009
   0.11111111  0.61111111  0.07792009
   0.11111111  0.94444444  0.07792009
   0.55555556  0.38888889  0.15595256
   0.55555556  0.72222222  0.15595256
   0.55555556  0.05555556  0.15595256
   0.88888889  0.38888889  0.15595256
   0.88888889  0.72222222  0.15595256
   0.88888889  0.05555556  0.15595256
   0.22222222  0.38888889  0.15595256
   0.22222222  0.72222222  0.15595256
   0.22222222  0.05555556  0.15595256
   0.66666667  0.50000000  0.23373005
   0.66666667  0.83333333  0.23373005
   0.66666667  0.16666667  0.23373005
   0.00000000  0.50000000  0.23373005
  -0.00000000  0.83333333  0.23373005
   0.00000000  0.16666667  0.23373005
   0.33333333  0.50000000  0.23373005
   0.33333333  0.83333333  0.23373005
   0.33333333  0.16666667  0.23373005
   0.77777778  0.61111111  0.31173066
   0.77777778  0.94444444  0.31173066
   0.77777778  0.27777778  0.31173066
   0.11111111  0.61111111  0.31173066
   0.11111111  0.94444444  0.31173066
   0.11111111  0.27777778  0.31173066
   0.44444444  0.61111111  0.31173066
   0.44444444  0.94444444  0.31173066
   0.44444444  0.27777778  0.31173066
   0.88888889  0.72222222  0.38973126
   0.88888889  0.05555556  0.38973126
   0.88888889  0.38888889  0.38973126
   0.22222222  0.72222222  0.38973126
   0.22222222  0.05555556  0.38973126
   0.22222222  0.38888889  0.38973126
   0.55555556  0.72222222  0.38973126
   0.55555556  0.05555556  0.38973126
   0.55555556  0.38888889  0.38973126
   0.00000000  0.83333333  0.46750875
   0.00000000  0.16666667  0.46750875
  -0.00000000  0.50000000  0.46750875
   0.33333333  0.83333333  0.46750875
   0.33333333  0.16666667  0.46750875
   0.33333333  0.50000000  0.46750875
   0.66666667  0.83333333  0.46750875
   0.66666667  0.16666667  0.46750875
   0.66666667  0.50000000  0.46750875
   0.11111111  0.94444444  0.54554122
   0.11111111  0.27777778  0.54554122
   0.11111111  0.61111111  0.54554122
   0.44444444  0.94444444  0.54554122
   0.44444444  0.27777778  0.54554122
   0.44444444  0.61111111  0.54554122
   0.77777778  0.94444444  0.54554122
   0.77777778  0.27777778  0.54554122
   0.77777778  0.61111111  0.54554122
Direct configuration=     3
   0.44444444  0.44444444  0.07788236
   0.44444444  0.77777778  0.07788236
   0.44444444  0.11111111  0.07788236
   0.77777778  0.44444444  0.07788236
   0.77777778  0.77777778  0.07788236
   0.77777778  0.11111111  0.07788236
   0.11111111  0.44444444  0.07788236
   0.11111111  0.77777778  0.07788236
   0.11111111  0.11111111  0.07788236
   0.55555556  0.55555556  0.15621426
   0.55555556  0.88888889  0.15621426
   0.55555556  0.22222222  0.15621426
   0.88888889  0.55555556  0.15621426
   0.88888889  0.88888889  0.15621426
   0.88888889  0.22222222  0.15621426
   0.22222222  0.55555556  0.15621426
   0.22222222  0.88888889  0.15621426
   0.22222222  0.22222222  0.15621426
   0.66666667  0.66666667  0.23352623
   0.66666667 -0.00000000  0.23352623
   0.66666667  0.33333333  0.23352623
  -0.00000000  0.66666667  0.23352623
  -0.00000000 -0.00000000  0.23352623
  -0.00000000  0.33333333  0.23352623
   0.33333333  0.66666667  0.23352623
   0.33333333 -0.00000000  0.23352623
   0.33333333  0.33333333  0.23352623
   0.77777778  0.77777778  0.31173066
   0.77777778  0.11111111  0.31173066
   0.77777778  0.44444444  0.31173066
   0.11111111  0.77777778  0.31173066
   0.11111111  0.11111111  0.31173066
   0.11111111  0.44444444  0.31173066
   0.44444444  0.77777778  0.31173066
   0.44444444  0.11111111  0.31173066
   0.44444444  0.44444444  0.31173066
   0.88888889  0.88888889  0.38993508
   0.88888889  0.22222222  0.38993508
   0.88888889  0.55555556  0.38993508
   0.22222222  0.88888889  0.38993508
   0.22222222  0.22222222  0.38993508
   0.22222222  0.55555556  0.38993508
   0.55555556  0.88888889  0.38993508
   0.55555556  0.22222222  0.38993508
   0.55555556  0.55555556  0.38993508
   0.00000000 -0.00000000  0.46724705
  -0.00000000  0.33333333  0.46724705
   0.00000000  0.66666667  0.46724705
   0.33333333 -0.00000000  0.46724705
   0.33333333  0.33333333  0.46724705
   0.33333333  0.66666667  0.46724705
   0.66666667 -0.00000000  0.46724705
   0.66666667  0.33333333  0.46724705
   0.66666667  0.66666667  0.46724705
   0.11111111  0.11111111  0.54557895
   0.11111111  0.44444444  0.54557895
   0.11111111  0.77777778  0.54557895
   0.44444444  0.11111111  0.54557895
   0.44444444  0.44444444  0.54557895
   0.44444444  0.77777778  0.54557895
   0.77777778  0.11111111  0.54557895
   0.77777778  0.44444444  0.54557895
   0.77777778  0.77777778  0.54557895
   0.27777778  0.27777778  0.07788236
   0.27777778  0.61111111  0.07788236
   0.27777778  0.94444444  0.07788236
   0.61111111  0.27777778  0.07788236
   0.61111111  0.61111111  0.07788236
   0.61111111  0.94444444  0.07788236
   0.94444444  0.27777778  0.07788236
   0.94444444  0.61111111  0.07788236
   0.94444444  0.94444444  0.07788236
   0.38888889  0.38888889  0.15621426
   0.38888889  0.72222222  0.15621426
   0.38888889  0.05555556  0.15621426
   0.72222222  0.38888889  0.15621426
   0.72222222  0.72222222  0.15621426
   0.72222222  0.05555556  0.15621426
   0.05555556  0.38888889  0.15621426
   0.05555556  0.72222222  0.15621426
   0.05555556  0.05555556  0.15621426
   0.50000000  0.50000000  0.23352623
   0.50000000  0.83333333  0.23352623
   0.50000000  0.16666667  0.23352623
   0.83333333  0.50000000  0.23352623
   0.83333333  0.83333333  0.23352623
   0.83333333  0.16666667  0.23352623
   0.16666667  0.50000000  0.23352623
   0.16666667  0.83333333  0.23352623
   0.16666667  0.16666667  0.23352623
   0.61111111  0.61111111  0.31173066
   0.61111111  0.94444444  0.31173066
   0.61111111  0.27777778  0.31173066
   0.94444444  0.61111111  0.31173066
   0.94444444  0.94444444  0.31173066
   0.94444444  0.27777778  0.31173066
   0.27777778  0.61111111  0.31173066
   0.27777778  0.94444444  0.31173066
   0.27777778  0.27777778  0.31173066
   0.72222222  0.72222222  0.38993508
   0.72222222  0.05555556  0.38993508
   0.72222222  0.38888889  0.38993508
   0.05555556  0.72222222  0.38993508
   0.05555556  0.05555556  0.38993508
   0.05555556  0.38888889  0.38993508
   0.38888889  0.72222222  0.38993508
   0.38888889  0.05555556  0.38993508
   0.38888889  0.38888889  0.38993508
   0.83333333  0.83333333  0.46724705
   0.83333333  0.16666667  0.46724705
   0.83333333  0.50000000  0.46724705
   0.16666667  0.83333333  0.46724705
   0.16666667  0.16666667  0.46724705
   0.16666667  0.50000000  0.46724705
   0.50000000  0.83333333  0.46724705
   0.50000000  0.16666667  0.46724705
   0.50000000  0.50000000  0.46724705
   0.94444444  0.94444444  0.54557895
   0.94444444  0.27777778  0.54557895
   0.94444444  0.61111111  0.54557895
   0.27777778  0.94444444  0.54557895
   0.27777778  0.27777778  0.54557895
   0.27777778  0.61111111  0.54557895
   0.61111111  0.94444444  0.54557895
   0.61111111  0.27777778  0.54557895
   0.61111111  0.61111111  0.54557895
   0.27777778  0.44444444  0.07788236
   0.27777778  0.77777778  0.07788236
   0.27777778  0.11111111  0.07788236
   0.61111111  0.44444444  0.07788236
   0.61111111  0.77777778  0.07788236
   0.61111111  0.11111111  0.07788236
   0.94444444  0.44444444  0.07788236
   0.94444444  0.77777778  0.07788236
   0.94444444  0.11111111  0.07788236
   0.38888889  0.55555556  0.15621426
   0.38888889  0.88888889  0.15621426
   0.38888889  0.22222222  0.15621426
   0.72222222  0.55555556  0.15621426
   0.72222222  0.88888889  0.15621426
   0.72222222  0.22222222  0.15621426
   0.05555556  0.55555556  0.15621426
   0.05555556  0.88888889  0.15621426
   0.05555556  0.22222222  0.15621426
   0.50000000  0.66666667  0.23352623
   0.50000000 -0.00000000  0.23352623
   0.50000000  0.33333333  0.23352623
   0.83333333  0.66666667  0.23352623
   0.83333333 -0.00000000  0.23352623
   0.83333333  0.33333333  0.23352623
   0.16666667  0.66666667  0.23352623
   0.16666667 -0.00000000  0.23352623
   0.16666667  0.33333333  0.23352623
   0.61111111  0.77777778  0.31173066
   0.61111111  0.11111111  0.31173066
   0.61111111  0.44444444  0.31173066
   0.94444444  0.77777778  0.31173066
   0.94444444  0.11111111  0.31173066
   0.94444444  0.44444444  0.31173066
   0.27777778  0.77777778  0.31173066
   0.27777778  0.11111111  0.31173066
   0.27777778  0.44444444  0.31173066
   0.72222222  0.88888889  0.38993508
   0.72222222  0.22222222  0.38993508
   0.72222222  0.55555556  0.38993508
   0.05555556  0.88888889  0.38993508
   0.05555556  0.22222222  0.38993508
   0.05555556  0.55555556  0.38993508
   0.38888889  0.88888889  0.38993508
   0.38888889  0.22222222  0.38993508
   0.38888889  0.55555556  0.38993508
   0.83333333 -0.00000000  0.46724705
   0.83333333  0.33333333  0.46724705
   0.83333333  0.66666667  0.46724705
   0.16666667 -0.00000000  0.46724705
   0.16666667  0.33333333  0.46724705
   0.16666667  0.66666667  0.46724705
   0.50000000 -0.00000000  0.46724705
   0.50000000  0.33333333  0.46724705
   0.50000000  0.66666667  0.46724705
   0.94444444  0.11111111  0.54557895
   0.94444444  0.44444444  0.54557895
   0.94444444  0.77777778  0.54557895
   0.27777778  0.11111111  0.54557895
   0.27777778  0.44444444  0.54557895
   0.27777778  0.77777778  0.54557895
   0.61111111  0.11111111  0.54557895
   0.61111111  0.44444444  0.54557895
   0.61111111  0.77777778  0.54557895
   0.44444444  0.27777778  0.07788236
   0.44444444  0.61111111  0.07788236
   0.44444444  0.94444444  0.07788236
   0.77777778  0.27777778  0.07788236
   0.77777778  0.61111111  0.07788236
   0.77777778  0.94444444  0.07788236
   0.11111111  0.27777778  0.07788236
   0.11111111  0.61111111  0.07788236
   0.11111111  0.94444444  0.07788236
   0.55555556  0.38888889  0.15621426
   0.55555556  0.72222222  0.15621426
   0.55555556  0.05555556  0.15621426
   0.88888889  0.38888889  0.15621426
   0.88888889  0.72222222  0.15621426
   0.88888889  0.05555556  0.15621426
   0.22222222  0.38888889  0.15621426
   0.22222222  0.72222222  0.15621426
   0.22222222  0.05555556  0.15621426
   0.66666667  0.50000000  0.23352623
   0.66666667  0.83333333  0.23352623
   0.66666667  0.16666667  0.23352623
   0.00000000  0.50000000  0.23352623
  -0.00000000  0.83333333  0.23352623
   0.00000000  0.16666667  0.23352623
   0.33333333  0.50000000  0.23352623
   0.33333333  0.83333333  0.23352623
   0.33333333  0.16666667  0.23352623
   0.77777778  0.61111111  0.31173066
   0.77777778  0.94444444  0.31173066
   0.77777778  0.27777778  0.31173066
   0.11111111  0.61111111  0.31173066
   0.11111111  0.94444444  0.31173066
   0.11111111  0.27777778  0.31173066
   0.44444444  0.61111111  0.31173066
   0.44444444  0.94444444  0.31173066
   0.44444444  0.27777778  0.31173066
   0.88888889  0.72222222  0.38993508
   0.88888889  0.05555556  0.38993508
   0.88888889  0.38888889  0.38993508
   0.22222222  0.72222222  0.38993508
   0.22222222  0.05555556  0.38993508
   0.22222222  0.38888889  0.38993508
   0.55555556  0.72222222  0.38993508
   0.55555556  0.05555556  0.38993508
   0.55555556  0.38888889  0.38993508
   0.00000000  0.83333333  0.46724705
   0.00000000  0.16666667  0.46724705
  -0.00000000  0.50000000  0.46724705
   0.33333333  0.83333333  0.46724705
   0.33333333  0.16666667  0.46724705
   0.33333333  0.50000000  0.46724705
   0.66666667  0.83333333  0.46724705
   0.66666667  0.16666667  0.46724705
   0.66666667  0.50000000  0.46724705
   0.11111111  0.94444444  0.54557895
   0.11111111  0.27777778  0.54557895
   0.11111111  0.61111111  0.54557895
   0.44444444  0.94444444  0.54557895
   0.44444444  0.27777778  0.54557895
   0.44444444  0.61111111  0.54557895
   0.77777778  0.94444444  0.54557895
   0.77777778  0.27777778  0.54557895
   0.77777778  0.61111111  0.54557895
Direct configuration=     4
   0.44444444  0.44444444  0.07780690
   0.44444444  0.77777778  0.07780690
   0.44444444  0.11111111  0.07780690
   0.77777778  0.44444444  0.07780690
   0.77777778  0.77777778  0.07780690
   0.77777778  0.11111111  0.07780690
   0.11111111  0.44444444  0.07780690
   0.11111111  0.77777778  0.07780690
   0.11111111  0.11111111  0.07780690
   0.55555556  0.55555556  0.15673765
   0.55555556  0.88888889  0.15673765
   0.55555556  0.22222222  0.15673765
   0.88888889  0.55555556  0.15673765
   0.88888889  0.88888889  0.15673765
   0.88888889  0.22222222  0.15673765
   0.22222222  0.55555556  0.15673765
   0.22222222  0.88888889  0.15673765
   0.22222222  0.22222222  0.15673765
   0.66666667  0.66666667  0.23311859
   0.66666667 -0.00000000  0.23311859
   0.66666667  0.33333333  0.23311859
  -0.00000000  0.66666667  0.23311859
  -0.00000000 -0.00000000  0.23311859
  -0.00000000  0.33333333  0.23311859
   0.33333333  0.66666667  0.23311859