 254 254   0   0
  0.2268316E+02  0.1514622E-08  0.1514622E-08  0.2900000E-08  0.5000000E-15
  1.000000000000000E-004
  CAR 
 NiAl                                    
      6.33353212    -28.70812408  301     -0.56697243      1.00000000
    -28.708  0.0000E+00  0.0000E+00
    -28.591  0.0000E+00  0.0000E+00
    -28.475  0.0000E+00  0.0000E+00
    -28.358  0.0000E+00  0.0000E+00
    -28.241  0.0000E+00  0.0000E+00
    -28.124  0.0000E+00  0.0000E+00
    -28.007  0.0000E+00  0.0000E+00
    -27.890  0.0000E+00  0.0000E+00
    -27.774  0.0000E+00  0.0000E+00
    -27.657  0.0000E+00  0.0000E+00
    -27.540  0.0000E+00  0.0000E+00
    -27.423  0.0000E+00  0.0000E+00
    -27.306  0.5363E-06  0.6264E-07
    -27.190  0.3004E+00  0.3508E-01
    -27.073  0.1484E+02  0.1768E+01
    -26.956  0.1982E+01  0.2000E+01
    -26.839  0.5816E-04  0.2000E+01
    -26.722  0.5133E-13  0.2000E+01
    -26.606  0.0000E+00  0.2000E+01
    -26.489  0.0000E+00  0.2000E+01
    -26.372  0.0000E+00  0.2000E+01
    -26.255  0.0000E+00  0.2000E+01
    -26.138  0.0000E+00  0.2000E+01
    -26.022  0.0000E+00  0.2000E+01
    -25.905  0.0000E+00  0.2000E+01
    -25.788  0.0000E+00  0.2000E+01
    -25.671  0.0000E+00  0.2000E+01
    -25.554  0.0000E+00  0.2000E+01
    -25.438  0.0000E+00  0.2000E+01
    -25.321  0.0000E+00  0.2000E+01
    -25.204  0.0000E+00  0.2000E+01
    -25.087  0.0000E+00  0.2000E+01
    -24.970  0.0000E+00  0.2000E+01
    -24.854  0.0000E+00  0.2000E+01
    -24.737  0.0000E+00  0.2000E+01
    -24.620  0.0000E+00  0.2000E+01
    -24.503  0.0000E+00  0.2000E+01
    -24.386  0.0000E+00  0.2000E+01
    -24.270  0.0000E+00  0.2000E+01
    -24.153  0.0000E+00  0.2000E+01
    -24.036  0.0000E+00  0.2000E+01
    -23.919  0.0000E+00  0.2000E+01
    -23.802  0.0000E+00  0.2000E+01
    -23.685  0.0000E+00  0.2000E+01
    -23.569  0.0000E+00  0.2000E+01
    -23.452  0.0000E+00  0.2000E+01
    -23.335  0.0000E+00  0.2000E+01
    -23.218  0.0000E+00  0.2000E+01
    -23.101  0.0000E+00  0.2000E+01
    -22.985  0.0000E+00  0.2000E+01
    -22.868  0.0000E+00  0.2000E+01
    -22.751  0.0000E+00  0.2000E+01
    -22.634  0.0000E+00  0.2000E+01
    -22.517  0.0000E+00  0.2000E+01
    -22.401  0.0000E+00  0.2000E+01
    -22.284  0.0000E+00  0.2000E+01
    -22.167  0.0000E+00  0.2000E+01
    -22.050  0.0000E+00  0.2000E+01
    -21.933  0.0000E+00  0.2000E+01
    -21.817  0.0000E+00  0.2000E+01
    -21.700  0.0000E+00  0.2000E+01
    -21.583  0.0000E+00  0.2000E+01
    -21.466  0.0000E+00  0.2000E+01
    -21.349  0.0000E+00  0.2000E+01
    -21.233  0.0000E+00  0.2000E+01
    -21.116  0.0000E+00  0.2000E+01
    -20.999  0.0000E+00  0.2000E+01
    -20.882  0.0000E+00  0.2000E+01
    -20.765  0.0000E+00  0.2000E+01
    -20.649  0.0000E+00  0.2000E+01
    -20.532  0.0000E+00  0.2000E+01
    -20.415  0.0000E+00  0.2000E+01
    -20.298  0.0000E+00  0.2000E+01
    -20.181  0.0000E+00  0.2000E+01
    -20.065  0.0000E+00  0.2000E+01
    -19.948  0.0000E+00  0.2000E+01
    -19.831  0.0000E+00  0.2000E+01
    -19.714  0.0000E+00  0.2000E+01
    -19.597  0.0000E+00  0.2000E+01
    -19.480  0.0000E+00  0.2000E+01
    -19.364  0.0000E+00  0.2000E+01
    -19.247  0.0000E+00  0.2000E+01
    -19.130  0.0000E+00  0.2000E+01
    -19.013  0.0000E+00  0.2000E+01
    -18.896  0.0000E+00  0.2000E+01
    -18.780  0.0000E+00  0.2000E+01
    -18.663  0.0000E+00  0.2000E+01
    -18.546  0.0000E+00  0.2000E+01
    -18.429  0.0000E+00  0.2000E+01
    -18.312  0.0000E+00  0.2000E+01
    -18.196  0.0000E+00  0.2000E+01
    -18.079  0.0000E+00  0.2000E+01
    -17.962  0.0000E+00  0.2000E+01
    -17.845  0.0000E+00  0.2000E+01
    -17.728  0.0000E+00  0.2000E+01
    -17.612  0.0000E+00  0.2000E+01
    -17.495  0.0000E+00  0.2000E+01
    -17.378  0.0000E+00  0.2000E+01
    -17.261  0.0000E+00  0.2000E+01
    -17.144  0.0000E+00  0.2000E+01
    -17.028  0.0000E+00  0.2000E+01
    -16.911  0.0000E+00  0.2000E+01
    -16.794  0.0000E+00  0.2000E+01
    -16.677  0.0000E+00  0.2000E+01
    -16.560  0.0000E+00  0.2000E+01
    -16.444  0.0000E+00  0.2000E+01
    -16.327  0.0000E+00  0.2000E+01
    -16.210  0.0000E+00  0.2000E+01
    -16.093  0.0000E+00  0.2000E+01
    -15.976  0.0000E+00  0.2000E+01
    -15.860  0.0000E+00  0.2000E+01
    -15.743  0.0000E+00  0.2000E+01
    -15.626  0.0000E+00  0.2000E+01
    -15.509  0.0000E+00  0.2000E+01
    -15.392  0.0000E+00  0.2000E+01
    -15.275  0.0000E+00  0.2000E+01
    -15.159  0.0000E+00  0.2000E+01
    -15.042  0.0000E+00  0.2000E+01
    -14.925  0.0000E+00  0.2000E+01
    -14.808  0.0000E+00  0.2000E+01
    -14.691  0.0000E+00  0.2000E+01
    -14.575  0.0000E+00  0.2000E+01
    -14.458  0.0000E+00  0.2000E+01
    -14.341  0.0000E+00  0.2000E+01
    -14.224  0.0000E+00  0.2000E+01
    -14.107  0.0000E+00  0.2000E+01
    -13.991  0.0000E+00  0.2000E+01
    -13.874  0.0000E+00  0.2000E+01
    -13.757  0.0000E+00  0.2000E+01
    -13.640  0.0000E+00  0.2000E+01
    -13.523  0.0000E+00  0.2000E+01
    -13.407  0.0000E+00  0.2000E+01
    -13.290  0.1700E-09  0.2000E+01
    -13.173  0.5699E-02  0.2001E+01
    -13.056  0.7876E+01  0.2921E+01
    -12.939  0.9229E+01  0.3999E+01
    -12.823  0.1160E-01  0.4000E+01
    -12.706  0.6523E-09  0.4000E+01
    -12.589  0.0000E+00  0.4000E+01
    -12.472  0.0000E+00  0.4000E+01
    -12.355  0.0000E+00  0.4000E+01
    -12.239  0.0000E+00  0.4000E+01
    -12.122  0.0000E+00  0.4000E+01
    -12.005  0.0000E+00  0.4000E+01
    -11.888  0.0000E+00  0.4000E+01
    -11.771  0.0000E+00  0.4000E+01
    -11.655  0.0000E+00  0.4000E+01
    -11.538  0.0000E+00  0.4000E+01
    -11.421  0.0000E+00  0.4000E+01
    -11.304  0.4098E-06  0.4000E+01
    -11.187  0.2700E+00  0.4032E+01
    -11.070  0.2196E+02  0.6597E+01
    -10.954  0.1199E+02  0.7998E+01
    -10.837  0.1593E-01  0.8000E+01
    -10.720  0.1194E-08  0.8000E+01
    -10.603  0.0000E+00  0.8000E+01
    -10.486  0.0000E+00  0.8000E+01
    -10.370  0.0000E+00  0.8000E+01
    -10.253  0.0000E+00  0.8000E+01
    -10.136  0.0000E+00  0.8000E+01
    -10.019  0.0000E+00  0.8000E+01
     -9.902  0.0000E+00  0.8000E+01
     -9.786  0.0000E+00  0.8000E+01
     -9.669  0.0000E+00  0.8000E+01
     -9.552  0.0000E+00  0.8000E+01
     -9.435  0.0000E+00  0.8000E+01
     -9.318  0.5636E-12  0.8000E+01
     -9.202  0.1310E-03  0.8000E+01
     -9.085  0.1030E+01  0.8120E+01
     -8.968  0.4590E+01  0.8656E+01
     -8.851  0.1791E+02  0.1075E+02
     -8.734  0.2265E+02  0.1339E+02
     -8.618  0.9059E+00  0.1350E+02
     -8.501  0.1886E+01  0.1372E+02
     -8.384  0.9892E+01  0.1488E+02
     -8.267  0.3316E+02  0.1875E+02
     -8.150  0.2140E+02  0.2125E+02
     -8.034  0.1496E+02  0.2300E+02
     -7.917  0.5874E+00  0.2306E+02
     -7.800  0.2200E+02  0.2564E+02
     -7.683  0.7524E+01  0.2651E+02
     -7.566  0.2506E+02  0.2944E+02
     -7.450  0.6181E+02  0.3666E+02
     -7.333  0.1570E+02  0.3849E+02
     -7.216  0.5945E-01  0.3850E+02
     -7.099  0.1588E+02  0.4036E+02
     -6.982  0.7436E+02  0.4904E+02
     -6.865  0.2019E+02  0.5140E+02
     -6.749  0.1741E+02  0.5344E+02
     -6.632  0.1855E+02  0.5560E+02
     -6.515  0.2422E+02  0.5843E+02
     -6.398  0.3949E+02  0.6305E+02
     -6.281  0.7065E+02  0.7130E+02
     -6.165  0.3204E+02  0.7504E+02
     -6.048  0.3593E+02  0.7924E+02
     -5.931  0.7322E+02  0.8779E+02
     -5.814  0.6671E+02  0.9558E+02
     -5.697  0.3689E+01  0.9601E+02
     -5.581  0.1060E+02  0.9725E+02
     -5.464  0.4318E+02  0.1023E+03
     -5.347  0.1394E+03  0.1186E+03
     -5.230  0.6690E+02  0.1264E+03
     -5.113  0.7837E+02  0.1355E+03
     -4.997  0.1237E+03  0.1500E+03
     -4.880  0.7853E+02  0.1592E+03
     -4.763  0.8136E+02  0.1687E+03
     -4.646  0.2765E+03  0.2010E+03
     -4.529  0.1751E+03  0.2214E+03
     -4.413  0.2375E+03  0.2492E+03
     -4.296  0.3215E+03  0.2867E+03
     -4.179  0.2420E+03  0.3150E+03
     -4.062  0.2583E+03  0.3452E+03
     -3.945  0.4129E+03  0.3934E+03
     -3.829  0.5135E+03  0.4534E+03
     -3.712  0.4506E+03  0.5060E+03
     -3.595  0.4594E+03  0.5597E+03
     -3.478  0.4117E+03  0.6078E+03
     -3.361  0.3611E+03  0.6499E+03
     -3.245  0.3746E+03  0.6937E+03
     -3.128  0.5358E+03  0.7563E+03
     -3.011  0.3958E+03  0.8025E+03
     -2.894  0.5158E+03  0.8628E+03
     -2.777  0.5366E+03  0.9254E+03
     -2.660  0.5301E+03  0.9873E+03
     -2.544  0.5651E+03  0.1053E+04
     -2.427  0.6976E+03  0.1135E+04
     -2.310  0.7955E+03  0.1228E+04
     -2.193  0.9014E+03  0.1333E+04
     -2.076  0.8072E+03  0.1427E+04
     -1.960  0.8608E+03  0.1528E+04
     -1.843  0.5928E+03  0.1597E+04
     -1.726  0.6027E+03  0.1668E+04
     -1.609  0.5357E+03  0.1730E+04
     -1.492  0.5890E+03  0.1799E+04
     -1.376  0.7955E+03  0.1892E+04
     -1.259  0.6184E+03  0.1964E+04
     -1.142  0.5707E+03  0.2031E+04
     -1.025  0.7673E+03  0.2120E+04
     -0.908  0.8593E+03  0.2221E+04
     -0.792  0.6289E+03  0.2294E+04
     -0.675  0.9044E+03  0.2400E+04
     -0.558  0.1196E+04  0.2540E+04
     -0.441  0.7281E+03  0.2625E+04
     -0.324  0.3029E+03  0.2660E+04
     -0.208  0.1172E+03  0.2674E+04
     -0.091  0.1635E+03  0.2693E+04
      0.026  0.1472E+03  0.2710E+04
      0.143  0.4590E+02  0.2715E+04
      0.260  0.6541E+02  0.2723E+04
      0.376  0.3307E+02  0.2727E+04
      0.493  0.1207E+03  0.2741E+04
      0.610  0.8470E+02  0.2751E+04
      0.727  0.7950E+02  0.2760E+04
      0.844  0.9641E+02  0.2771E+04
      0.960  0.1264E+03  0.2786E+04
      1.077  0.8743E+02  0.2796E+04
      1.194  0.3262E+02  0.2800E+04
      1.311  0.9386E+02  0.2811E+04
      1.428  0.6473E+02  0.2819E+04
      1.545  0.5212E+02  0.2825E+04
      1.661  0.9578E+02  0.2836E+04
      1.778  0.8316E+02  0.2846E+04
      1.895  0.7719E+02  0.2855E+04
      2.012  0.9603E+02  0.2866E+04
      2.129  0.4331E+02  0.2871E+04
      2.245  0.9595E+02  0.2882E+04
      2.362  0.1138E+03  0.2895E+04
      2.479  0.4898E+02  0.2901E+04
      2.596  0.4473E+02  0.2906E+04
      2.713  0.4979E+02  0.2912E+04
      2.829  0.3930E+02  0.2917E+04
      2.946  0.5177E+02  0.2923E+04
      3.063  0.1247E+03  0.2937E+04
      3.180  0.1583E+03  0.2956E+04
      3.297  0.4042E+02  0.2961E+04
      3.413  0.3770E+02  0.2965E+04
      3.530  0.9152E+02  0.2976E+04
      3.647  0.4739E+02  0.2981E+04
      3.764  0.6672E+02  0.2989E+04
      3.881  0.1866E+02  0.2991E+04
      3.997  0.2485E+02  0.2994E+04
      4.114  0.4663E+02  0.3000E+04
      4.231  0.6789E+02  0.3007E+04
      4.348  0.4161E+02  0.3012E+04
      4.465  0.7532E+02  0.3021E+04
      4.581  0.6785E+02  0.3029E+04
      4.698  0.5052E+02  0.3035E+04
      4.815  0.8886E+01  0.3036E+04
      4.932  0.7708E-01  0.3036E+04
      5.049  0.1378E-06  0.3036E+04
      5.165  0.0000E+00  0.3036E+04
      5.282  0.0000E+00  0.3036E+04
      5.399  0.0000E+00  0.3036E+04
      5.516  0.0000E+00  0.3036E+04
      5.633  0.0000E+00  0.3036E+04
      5.750  0.0000E+00  0.3036E+04
      5.866  0.0000E+00  0.3036E+04
      5.983  0.0000E+00  0.3036E+04
      6.100  0.0000E+00  0.3036E+04
      6.217  0.0000E+00  0.3036E+04
      6.334  0.0000E+00  0.3036E+04
