  254  254    1    1
  0.2268316E+02  0.1514622E-08  0.1514622E-08  0.2900000E-08  0.5000000E-15
  1.000000000000000E-004
  CAR 
 NiAl                                    
   2530      4   1518
 
  0.0000000E+00  0.0000000E+00  0.0000000E+00  0.2500000E+00
    1      -27.115038   1.000000
    2      -13.052624   1.000000
    3      -11.111367   1.000000
    4      -11.063370   1.000000
    5       -9.059892   1.000000
    6       -8.889217   1.000000
    7       -8.495475   1.000000
    8       -8.146382   1.000000
    9       -8.146123   1.000000
   10       -8.145907   1.000000
   11       -8.145128   1.000000
   12       -8.144407   1.000000
   13       -8.128617   1.000000
   14       -7.683165   1.000000
   15       -7.640648   1.000000
   16       -7.640457   1.000000
   17       -7.640023   1.000000
   18       -7.636986   1.000000
   19       -7.635942   1.000000
   20       -7.571966   1.000000
   21       -6.854930   1.000000
   22       -6.854868   1.000000
   23       -6.854246   1.000000
   24       -6.849690   1.000000
   25       -6.849236   1.000000
   26       -6.788672   1.000000
   27       -6.627459   1.000000
   28       -6.510944   1.000000
   29       -6.510608   1.000000
   30       -6.510539   1.000000
   31       -6.510381   1.000000
   32       -6.509226   1.000000
   33       -6.506127   1.000000
   34       -6.091939   1.000000
   35       -6.090677   1.000000
   36       -6.090488   1.000000
   37       -6.090292   1.000000
   38       -6.086193   1.000000
   39       -6.085421   1.000000
   40       -5.891272   1.000000
   41       -5.890836   1.000000
   42       -5.890716   1.000000
   43       -5.889866   1.000000
   44       -5.889596   1.000000
   45       -5.889328   1.000000
   46       -5.889008   1.000000
   47       -5.888981   1.000000
   48       -5.888464   1.000000
   49       -5.885147   1.000000
   50       -5.881051   1.000000
   51       -5.801928   1.000000
   52       -5.628605   1.000000
   53       -5.562377   1.000000
   54       -5.562286   1.000000
   55       -5.557916   1.000000
   56       -5.556302   1.000000
   57       -5.555745   1.000000
   58       -5.554825   1.000000
   59       -5.466992   1.000000
   60       -5.463924   1.000000
   61       -5.463627   1.000000
   62       -5.463048   1.000000
   63       -5.457276   1.000000
   64       -5.445401   1.000000
   65       -5.134418   1.000000
   66       -5.117632   1.000000
   67       -5.116593   1.000000
   68       -5.108609   1.000000
   69       -5.107414   1.000000
   70       -5.106513   1.000000
   71       -5.019986   1.000000
   72       -4.995703   1.000000
   73       -4.958168   1.000000
   74       -4.953571   1.000000
   75       -4.953134   1.000000
   76       -4.952752   1.000000
   77       -4.948105   1.000000
   78       -4.879286   1.000000
   79       -4.839308   1.000000
   80       -4.783010   1.000000
   81       -4.781201   1.000000
   82       -4.779657   1.000000
   83       -4.743804   1.000000
   84       -4.742302   1.000000
   85       -4.742076   1.000000
   86       -4.741164   1.000000
   87       -4.737079   1.000000
   88       -4.715850   1.000000
   89       -4.667429   1.000000
   90       -4.662388   1.000000
   91       -4.658249   1.000000
   92       -4.657370   1.000000
   93       -4.653372   1.000000
   94       -4.651029   1.000000
   95       -4.640340   1.000000
   96       -4.638169   1.000000
   97       -4.638033   1.000000
   98       -4.566267   1.000000
   99       -4.550061   1.000000
  100       -4.548668   1.000000
  101       -4.546869   1.000000
  102       -4.546698   1.000000
  103       -4.546586   1.000000
  104       -4.546459   1.000000
  105       -4.546251   1.000000
  106       -4.545974   1.000000
  107       -4.545793   1.000000
  108       -4.545254   1.000000
  109       -4.543301   1.000000
  110       -4.514919   1.000000
  111       -4.508345   1.000000
  112       -4.503342   1.000000
  113       -4.458787   1.000000
  114       -4.436433   1.000000
  115       -4.436260   1.000000
  116       -4.412760   1.000000
  117       -4.407557   1.000000
  118       -4.399396   1.000000
  119       -4.399300   1.000000
  120       -4.397922   1.000000
  121       -4.393236   1.000000
  122       -4.371301   1.000000
  123       -4.354299   1.000000
  124       -4.351577   1.000000
  125       -4.343880   1.000000
  126       -4.343250   1.000000
  127       -4.342903   1.000000
  128       -4.342867   1.000000
  129       -4.342592   1.000000
  130       -4.342291   1.000000
  131       -4.341938   1.000000
  132       -4.341031   1.000000
  133       -4.340800   1.000000
  134       -4.339964   1.000000
  135       -4.337436   1.000000
  136       -4.335002   1.000000
  137       -4.332416   1.000000
  138       -4.332365   1.000000
  139       -4.332236   1.000000
  140       -4.332051   1.000000
  141       -4.331581   1.000000
  142       -4.331470   1.000000
  143       -4.330331   1.000000
  144       -4.329767   1.000000
  145       -4.324205   1.000000
  146       -4.303461   1.000000
  147       -4.292356   1.000000
  148       -4.285960   1.000000
  149       -4.285719   1.000000
  150       -4.285603   1.000000
  151       -4.282649   1.000000
  152       -4.271436   1.000000
  153       -4.264328   1.000000
  154       -4.253526   1.000000
  155       -4.248155   1.000000
  156       -4.247727   1.000000
  157       -4.245164   1.000000
  158       -4.232541   1.000000
  159       -4.227638   1.000000
  160       -4.220862   1.000000
  161       -4.213248   1.000000
  162       -4.210147   1.000000
  163       -4.203590   1.000000
  164       -4.192331   1.000000
  165       -4.191734   1.000000
  166       -4.190950   1.000000
  167       -4.190383   1.000000
  168       -4.190232   1.000000
  169       -4.189375   1.000000
  170       -4.186039   1.000000
  171       -4.185782   1.000000
  172       -4.178215   1.000000
  173       -4.158211   1.000000
  174       -4.129657   1.000000
  175       -4.128599   1.000000
  176       -4.126036   1.000000
  177       -4.113823   1.000000
  178       -4.101458   1.000000
  179       -4.100004   1.000000
  180       -4.099701   1.000000
  181       -4.093934   1.000000
  182       -4.076235   1.000000
  183       -4.072178   1.000000
  184       -4.018776   1.000000
  185       -4.011227   1.000000
  186       -4.007619   1.000000
  187       -4.006480   1.000000
  188       -3.999032   1.000000
  189       -3.998712   1.000000
  190       -3.993480   1.000000
  191       -3.992643   1.000000
  192       -3.992257   1.000000
  193       -3.991246   1.000000
  194       -3.988033   1.000000
  195       -3.987841   1.000000
  196       -3.982973   1.000000
  197       -3.962656   1.000000
  198       -3.959725   1.000000
  199       -3.958825   1.000000
  200       -3.958528   1.000000
  201       -3.938213   1.000000
  202       -3.896814   1.000000
  203       -3.896391   1.000000
  204       -3.896154   1.000000
  205       -3.894445   1.000000
  206       -3.892347   1.000000
  207       -3.890469   1.000000
  208       -3.880220   1.000000
  209       -3.862699   1.000000
  210       -3.855674   1.000000
  211       -3.850478   1.000000
  212       -3.850428   1.000000
  213       -3.849291   1.000000
  214       -3.848730   1.000000
  215       -3.848656   1.000000
  216       -3.848320   1.000000
  217       -3.848294   1.000000
  218       -3.848059   1.000000
  219       -3.847923   1.000000
  220       -3.847717   1.000000
  221       -3.843088   1.000000
  222       -3.842670   1.000000
  223       -3.838007   1.000000
  224       -3.837163   1.000000
  225       -3.834842   1.000000
  226       -3.829928   1.000000
  227       -3.800986   1.000000
  228       -3.787515   1.000000
  229       -3.766455   1.000000
  230       -3.763372   1.000000
  231       -3.758076   1.000000
  232       -3.756813   1.000000
  233       -3.753668   1.000000
  234       -3.753448   1.000000
  235       -3.753106   1.000000
  236       -3.752981   1.000000
  237       -3.751757   1.000000
  238       -3.749002   1.000000
  239       -3.744073   1.000000
  240       -3.734985   1.000000
  241       -3.724011   1.000000
  242       -3.723759   1.000000
  243       -3.722597   1.000000
  244       -3.721907   1.000000
  245       -3.710371   1.000000
  246       -3.707625   1.000000
  247       -3.706657   1.000000
  248       -3.705755   1.000000
  249       -3.704014   1.000000
  250       -3.703714   1.000000
  251       -3.703275   1.000000
  252       -3.702247   1.000000
  253       -3.701145   1.000000
  254       -3.698908   1.000000
  255       -3.697889   1.000000
  256       -3.696509   1.000000
  257       -3.695745   1.000000
  258       -3.685151   1.000000
  259       -3.666810   1.000000
  260       -3.662669   1.000000
  261       -3.659384   1.000000
  262       -3.659277   1.000000
  263       -3.656950   1.000000
  264       -3.656747   1.000000
  265       -3.656338   1.000000
  266       -3.656060   1.000000
  267       -3.655930   1.000000
  268       -3.655511   1.000000
  269       -3.649025   1.000000
  270       -3.646951   1.000000
  271       -3.644146   1.000000
  272       -3.618674   1.000000
  273       -3.615174   1.000000
  274       -3.606598   1.000000
  275       -3.599647   1.000000
  276       -3.599473   1.000000
  277       -3.595897   1.000000
  278       -3.593230   1.000000
  279       -3.591184   1.000000
  280       -3.588718   1.000000
  281       -3.587966   1.000000
  282       -3.569885   1.000000
  283       -3.569875   1.000000
  284       -3.556978   1.000000
  285       -3.556942   1.000000
  286       -3.556760   1.000000
  287       -3.555793   1.000000
  288       -3.554320   1.000000
  289       -3.554312   1.000000
  290       -3.546096   1.000000
  291       -3.545940   1.000000
  292       -3.543946   1.000000
  293       -3.543525   1.000000
  294       -3.539692   1.000000
  295       -3.538058   1.000000
  296       -3.538041   1.000000
  297       -3.518305   1.000000
  298       -3.491005   1.000000
  299       -3.478388   1.000000
  300       -3.473451   1.000000
  301       -3.473407   1.000000
  302       -3.471433   1.000000
  303       -3.471382   1.000000
  304       -3.468369   1.000000
  305       -3.467674   1.000000
  306       -3.467585   1.000000
  307       -3.466864   1.000000
  308       -3.466542   1.000000
  309       -3.464820   1.000000
  310       -3.463748   1.000000
  311       -3.463342   1.000000
  312       -3.456326   1.000000
  313       -3.437521   1.000000
  314       -3.422599   1.000000
  315       -3.420902   1.000000
  316       -3.420133   1.000000
  317       -3.420006   1.000000
  318       -3.418806   1.000000
  319       -3.417072   1.000000
  320       -3.400038   1.000000
  321       -3.399476   1.000000
  322       -3.395378   1.000000
  323       -3.385775   1.000000
  324       -3.385394   1.000000
  325       -3.384642   1.000000
  326       -3.384041   1.000000
  327       -3.383718   1.000000
  328       -3.382961   1.000000
  329       -3.382666   1.000000
  330       -3.381776   1.000000
  331       -3.381260   1.000000
  332       -3.380470   1.000000
  333       -3.379974   1.000000
  334       -3.378267   1.000000
  335       -3.375691   1.000000
  336       -3.370432   1.000000
  337       -3.369217   1.000000
  338       -3.369185   1.000000
  339       -3.368963   1.000000
  340       -3.366397   1.000000
  341       -3.350153   1.000000
  342       -3.296196   1.000000
  343       -3.279477   1.000000
  344       -3.273880   1.000000
  345       -3.258179   1.000000
  346       -3.253806   1.000000
  347       -3.253564   1.000000
  348       -3.251143   1.000000
  349       -3.250688   1.000000
  350       -3.244204   1.000000
  351       -3.231164   1.000000
  352       -3.227825   1.000000
  353       -3.216487   1.000000
  354       -3.213281   1.000000
  355       -3.207671   1.000000
  356       -3.201605   1.000000
  357       -3.200214   1.000000
  358       -3.200003   1.000000
  359       -3.191431   1.000000
  360       -3.190585   1.000000
  361       -3.189861   1.000000
  362       -3.186677   1.000000
  363       -3.182493   1.000000
  364       -3.178368   1.000000
  365       -3.171725   1.000000
  366       -3.171300   1.000000
  367       -3.155713   1.000000
  368       -3.141766   1.000000
  369       -3.139051   1.000000
  370       -3.138116   1.000000
  371       -3.134426   1.000000
  372       -3.130849   1.000000
  373       -3.125607   1.000000
  374       -3.122562   1.000000
  375       -3.121723   1.000000
  376       -3.121118   1.000000
  377       -3.120767   1.000000
  378       -3.119997   1.000000
  379       -3.119610   1.000000
  380       -3.119459   1.000000
  381       -3.118283   1.000000
  382       -3.116647   1.000000
  383       -3.115757   1.000000
  384       -3.112570   1.000000
  385       -3.067944   1.000000
  386       -3.061630   1.000000
  387       -3.059914   1.000000
  388       -3.056344   1.000000
  389       -3.055696   1.000000
  390       -3.053181   1.000000
  391       -3.052757   1.000000
  392       -3.050894   1.000000
  393       -3.050102   1.000000
  394       -3.049769   1.000000
  395       -3.048430   1.000000
  396       -3.044141   1.000000
  397       -3.021590   1.000000
  398       -3.019485   1.000000
  399       -3.016408   1.000000
  400       -3.014228   1.000000
  401       -3.013442   1.000000
  402       -3.012784   1.000000
  403       -2.960020   1.000000
  404       -2.956484   1.000000
  405       -2.951022   1.000000
  406       -2.946082   1.000000
  407       -2.945788   1.000000
  408       -2.941892   1.000000
  409       -2.941316   1.000000
  410       -2.940259   1.000000
  411       -2.937137   1.000000
  412       -2.931165   1.000000
  413       -2.931012   1.000000
  414       -2.926440   1.000000
  415       -2.920453   1.000000
  416       -2.917288   1.000000
  417       -2.916013   1.000000
  418       -2.915463   1.000000
  419       -2.914842   1.000000
  420       -2.913056   1.000000
  421       -2.906046   1.000000
  422       -2.905494   1.000000
  423       -2.902443   1.000000
  424       -2.902276   1.000000
  425       -2.898993   1.000000
  426       -2.892741   1.000000
  427       -2.892109   1.000000
  428       -2.885559   1.000000
  429       -2.875549   1.000000
  430       -2.873497   1.000000
  431       -2.872239   1.000000
  432       -2.870691   1.000000
  433       -2.870094   1.000000
  434       -2.869413   1.000000
  435       -2.869349   1.000000
  436       -2.869020   1.000000
  437       -2.868758   1.000000
  438       -2.868530   1.000000
  439       -2.868403   1.000000
  440       -2.868150   1.000000
  441       -2.867139   1.000000
  442       -2.864283   1.000000
  443       -2.862552   1.000000
  444       -2.860189   1.000000
  445       -2.830343   1.000000
  446       -2.821452   1.000000
  447       -2.820538   1.000000
  448       -2.812720   1.000000
  449       -2.812415   1.000000
  450       -2.807650   1.000000
  451       -2.805989   1.000000
  452       -2.804031   1.000000
  453       -2.802763   1.000000
  454       -2.800949   1.000000
  455       -2.799184   1.000000
  456       -2.799061   1.000000
  457       -2.797021   1.000000
  458       -2.796883   1.000000
  459       -2.796106   1.000000
  460       -2.795830   1.000000
  461       -2.795680   1.000000
  462       -2.795626   1.000000
  463       -2.795425   1.000000
  464       -2.794535   1.000000
  465       -2.794064   1.000000
  466       -2.770835   1.000000
  467       -2.758487   1.000000
  468       -2.746943   1.000000
  469       -2.745791   1.000000
  470       -2.742886   1.000000
  471       -2.736517   1.000000
  472       -2.733706   1.000000
  473       -2.730898   1.000000
  474       -2.729188   1.000000
  475       -2.720331   1.000000
  476       -2.713138   1.000000
  477       -2.712787   1.000000
  478       -2.712021   1.000000
  479       -2.711677   1.000000
  480       -2.710834   1.000000
  481       -2.708626   1.000000
  482       -2.708300   1.000000
  483       -2.707867   1.000000
  484       -2.706918   1.000000
  485       -2.705952   1.000000
  486       -2.704570   1.000000
  487       -2.704267   1.000000
  488       -2.698171   1.000000
  489       -2.697331   1.000000
  490       -2.694704   1.000000
  491       -2.691611   1.000000
  492       -2.689695   1.000000
  493       -2.689629   1.000000
  494       -2.689042   1.000000
  495       -2.688448   1.000000
  496       -2.688136   1.000000
  497       -2.687981   1.000000
  498       -2.686150   1.000000
  499       -2.682233   1.000000
  500       -2.681839   1.000000
  501       -2.681494   1.000000
  502       -2.667397   1.000000
  503       -2.664259   1.000000
  504       -2.658199   1.000000
  505       -2.656873   1.000000
  506       -2.654293   1.000000
  507       -2.650190   1.000000
  508       -2.630821   1.000000
  509       -2.628183   1.000000
  510       -2.624545   1.000000
  511       -2.622114   1.000000
  512       -2.620370   1.000000
  513       -2.618893   1.000000
  514       -2.617841   1.000000
  515       -2.615447   1.000000
  516       -2.613754   1.000000
  517       -2.607287   1.000000
  518       -2.606266   1.000000
  519       -2.597423   1.000000
  520       -2.596535   1.000000
  521       -2.584434   1.000000
  522       -2.583934   1.000000
  523       -2.578105   1.000000
  524       -2.577561   1.000000
  525       -2.573218   1.000000
  526       -2.549950   1.000000
  527       -2.540573   1.000000
  528       -2.538327   1.000000
  529       -2.536288   1.000000
  530       -2.535375   1.000000
  531       -2.533410   1.000000
  532       -2.530921   1.000000
  533       -2.527836   1.000000
  534       -2.527153   1.000000
  535       -2.526655   1.000000
  536       -2.525586   1.000000
  537       -2.525502   1.000000
  538       -2.524495   1.000000
  539       -2.523621   1.000000
  540       -2.522936   1.000000
  541       -2.520114   1.000000
  542       -2.519989   1.000000
  543       -2.515870   1.000000
  544       -2.513941   1.000000
  545       -2.511516   1.000000
  546       -2.500681   1.000000
  547       -2.491458   1.000000
  548       -2.489008   1.000000
  549       -2.488955   1.000000
  550       -2.486390   1.000000
  551       -2.486367   1.000000
  552       -2.481134   1.000000
  553       -2.478902   1.000000
  554       -2.478093   1.000000
  555       -2.476596   1.000000
  556       -2.475190   1.000000
  557       -2.472508   1.000000
  558       -2.466725   1.000000
  559       -2.465293   1.000000
  560       -2.464936   1.000000
  561       -2.461329   1.000000
  562       -2.460213   1.000000
  563       -2.456697   1.000000
  564       -2.451867   1.000000
  565       -2.450909   1.000000
  566       -2.450295   1.000000
  567       -2.449784   1.000000
  568       -2.449669   1.000000
  569       -2.448992   1.000000
  570       -2.448279   1.000000
  571       -2.448231   1.000000
  572       -2.446944   1.000000
  573       -2.444585   1.000000
  574       -2.444144   1.000000
  575       -2.436084   1.000000
  576       -2.425768   1.000000
  577       -2.425650   1.000000
  578       -2.425017   1.000000
  579       -2.423941   1.000000
  580       -2.416896   1.000000
  581       -2.412438   1.000000
  582       -2.410607   1.000000
  583       -2.406194   1.000000
  584       -2.405380   1.000000
  585       -2.403653   1.000000
  586       -2.402642   1.000000
  587       -2.400029   1.000000
  588       -2.396781   1.000000
  589       -2.388414   1.000000
  590       -2.384589   1.000000
  591       -2.383950   1.000000
  592       -2.378407   1.000000
  593       -2.378233   1.000000
  594       -2.375909   1.000000
  595       -2.374693   1.000000
  596       -2.367546   1.000000
  597       -2.364263   1.000000
  598       -2.362560   1.000000
  599       -2.361348   1.000000
  600       -2.360258   1.000000
  601       -2.359437   1.000000
  602       -2.358970   1.000000
  603       -2.358778   1.000000
  604       -2.358443   1.000000
  605       -2.355387   1.000000
  606       -2.354961   1.000000
  607       -2.354538   1.000000
  608       -2.354486   1.000000
  609       -2.354147   1.000000
  610       -2.353603   1.000000
  611       -2.353493   1.000000
  612       -2.348096   1.000000
  613       -2.347397   1.000000
  614       -2.333166   1.000000
  615       -2.325299   1.000000
  616       -2.321968   1.000000
  617       -2.309787   1.000000
  618       -2.302196   1.000000
  619       -2.294324   1.000000
  620       -2.292748   1.000000
  621       -2.289207   1.000000
  622       -2.285779   1.000000
  623       -2.283602   1.000000
  624       -2.283231   1.000000
  625       -2.282099   1.000000
  626       -2.266652   1.000000
  627       -2.263717   1.000000
  628       -2.262709   1.000000
  629       -2.258603   1.000000
  630       -2.258166   1.000000
  631       -2.256600   1.000000
  632       -2.255926   1.000000
  633       -2.255779   1.000000
  634       -2.255381   1.000000
  635       -2.255138   1.000000
  636       -2.254927   1.000000
  637       -2.254707   1.000000
  638       -2.250699   1.000000
  639       -2.247703   1.000000
  640       -2.244426   1.000000
  641       -2.243859   1.000000
  642       -2.236326   1.000000
  643       -2.234798   1.000000
  644       -2.232558   1.000000
  645       -2.225972   1.000000
  646       -2.223498   1.000000
  647       -2.222591   1.000000
  648       -2.220441   1.000000
  649       -2.217401   1.000000
  650       -2.214696   1.000000
  651       -2.210285   1.000000
  652       -2.209477   1.000000
  653       -2.203733   1.000000
  654       -2.203499   1.000000
  655       -2.203000   1.000000
  656       -2.199255   1.000000
  657       -2.199106   1.000000
  658       -2.198038   1.000000
  659       -2.196683   1.000000
  660       -2.194767   1.000000
  661       -2.193261   1.000000
  662       -2.192745   1.000000
  663       -2.192455   1.000000
  664       -2.190649   1.000000
  665       -2.189677   1.000000
  666       -2.187529   1.000000
  667       -2.187035   1.000000
  668       -2.186656   1.000000
  669       -2.186571   1.000000
  670       -2.181440   1.000000
  671       -2.181173   1.000000
  672       -2.176759   1.000000
  673       -2.176203   1.000000
  674       -2.161173   1.000000
  675       -2.160185   1.000000
  676       -2.154226   1.000000
  677       -2.149994   1.000000
  678       -2.146768   1.000000
  679       -2.146135   1.000000
  680       -2.145832   1.000000
  681       -2.141020   1.000000
  682       -2.139389   1.000000
  683       -2.137687   1.000000
  684       -2.137085   1.000000
  685       -2.136905   1.000000
  686       -2.133077   1.000000
  687       -2.129767   1.000000
  688       -2.117672   1.000000
  689       -2.115384   1.000000
  690       -2.106537   1.000000
  691       -2.099441   1.000000
  692       -2.098718   1.000000
  693       -2.096810   1.000000
  694       -2.096640   1.000000
  695       -2.095282   1.000000
  696       -2.093209   1.000000
  697       -2.092367   1.000000
  698       -2.090214   1.000000
  699       -2.089434   1.000000
  700       -2.088894   1.000000
  701       -2.087681   1.000000
  702       -2.087409   1.000000
  703       -2.086551   1.000000
  704       -2.085360   1.000000
  705       -2.084909   1.000000
  706       -2.083952   1.000000
  707       -2.083509   1.000000
  708       -2.083030   1.000000
  709       -2.082771   1.000000
  710       -2.082418   1.000000
  711       -2.082048   1.000000
  712       -2.081813   1.000000
  713       -2.081475   1.000000
  714       -2.080819   1.000000
  715       -2.079124   1.000000
  716       -2.078957   1.000000
  717       -2.064520   1.000000
  718       -2.064277   1.000000
  719       -2.063549   1.000000
  720       -2.063380   1.000000
  721       -2.063193   1.000000
  722       -2.062888   1.000000
  723       -2.059454   1.000000
  724       -2.044833   1.000000
  725       -2.037608   1.000000
  726       -2.024150   1.000000
  727       -2.018301   1.000000
  728       -2.017961   1.000000
  729       -2.013178   1.000000
  730       -2.010617   1.000000
  731       -2.008565   1.000000
  732       -2.006657   1.000000
  733       -2.004247   1.000000
  734       -2.003961   1.000000
  735       -2.003459   1.000000
  736       -2.003338   1.000000
  737       -2.002955   1.000000
  738       -2.002827   1.000000
  739       -2.002088   1.000000
  740       -1.998151   1.000000
  741       -1.994724   1.000000
  742       -1.981770   1.000000
  743       -1.976765   1.000000
  744       -1.973489   1.000000
  745       -1.969206   1.000000
  746       -1.968094   1.000000
  747       -1.967235   1.000000
  748       -1.966550   1.000000
  749       -1.965823   1.000000
  750       -1.964700   1.000000
  751       -1.964018   1.000000
  752       -1.962225   1.000000
  753       -1.957152   1.000000
  754       -1.955835   1.000000
  755       -1.936064   1.000000
  756       -1.934928   1.000000
  757       -1.930915   1.000000
  758       -1.927769   1.000000
  759       -1.925490   1.000000
  760       -1.916478   1.000000
  761       -1.914765   1.000000
  762       -1.914474   1.000000
  763       -1.911230   1.000000
  764       -1.908787   1.000000
  765       -1.907638   1.000000
  766       -1.905762   1.000000
  767       -1.905703   1.000000
  768       -1.905288   1.000000
  769       -1.904957   1.000000
  770       -1.904525   1.000000
  771       -1.903285   1.000000
  772       -1.903040   1.000000
  773       -1.902722   1.000000
  774       -1.902555   1.000000
  775       -1.901717   1.000000
  776       -1.899781   1.000000
  777       -1.896916   1.000000
  778       -1.888290   1.000000
  779       -1.887681   1.000000
  780       -1.880451   1.000000
  781       -1.877186   1.000000
  782       -1.875310   1.000000
  783       -1.870907   1.000000
  784       -1.867426   1.000000
  785       -1.866499   1.000000
  786       -1.865485   1.000000
  787       -1.864898   1.000000
  788       -1.861806   1.000000
  789       -1.859572   1.000000
  790       -1.857365   1.000000
  791       -1.856538   1.000000
  792       -1.849974   1.000000
  793       -1.847046   1.000000
  794       -1.838467   1.000000
  795       -1.836755   1.000000
  796       -1.833663   1.000000
  797       -1.832074   1.000000
  798       -1.828138   1.000000
  799       -1.826749   1.000000
  800       -1.821745   1.000000
  801       -1.821299   1.000000
  802       -1.820433   1.000000
  803       -1.816486   1.000000
  804       -1.814234   1.000000
  805       -1.811645   1.000000
  806       -1.805823   1.000000
  807       -1.803864   1.000000
  808       -1.798769   1.000000
  809       -1.796015   1.000000
  810       -1.790544   1.000000
  811       -1.787449   1.000000
  812       -1.786800   1.000000
  813       -1.783627   1.000000
  814       -1.781816   1.000000
  815       -1.779071   1.000000
  816       -1.776487   1.000000
  817       -1.767440   1.000000
  818       -1.764300   1.000000
  819       -1.762652   1.000000
  820       -1.762095   1.000000
  821       -1.759650   1.000000
  822       -1.757826   1.000000
  823       -1.756759   1.000000
  824       -1.756698   1.000000
  825       -1.752307   1.000000
  826       -1.750169   1.000000
  827       -1.745678   1.000000
  828       -1.744095   1.000000
  829       -1.741983   1.000000
  830       -1.741549   1.000000
  831       -1.741009   1.000000
  832       -1.739049   1.000000
  833       -1.738940   1.000000
  834       -1.737177   1.000000
  835       -1.736184   1.000000
  836       -1.735164   1.000000
  837       -1.734930   1.000000
  838       -1.734630   1.000000
  839       -1.733798   1.000000
  840       -1.731669   1.000000
  841       -1.729816   1.000000
  842       -1.729685   1.000000
  843       -1.728300   1.000000
  844       -1.727943   1.000000
  845       -1.724528   1.000000
  846       -1.723652   1.000000
  847       -1.722758   1.000000
  848       -1.715969   1.000000
  849       -1.715577   1.000000
  850       -1.712567   1.000000
  851       -1.707669   1.000000
  852       -1.706881   1.000000
  853       -1.705962   1.000000
  854       -1.698658   1.000000
  855       -1.697880   1.000000
  856       -1.689970   1.000000
  857       -1.687960   1.000000
  858       -1.687398   1.000000
  859       -1.685854   1.000000
  860       -1.678482   1.000000
  861       -1.675434   1.000000
  862       -1.669595   1.000000
  863       -1.663562   1.000000
  864       -1.659059   1.000000
  865       -1.657080   1.000000
  866       -1.655174   1.000000
  867       -1.654048   1.000000
  868       -1.653460   1.000000
  869       -1.646173   1.000000
  870       -1.634190   1.000000
  871       -1.623858   1.000000
  872       -1.621819   1.000000
  873       -1.619624   1.000000
  874       -1.615642   1.000000
  875       -1.614897   1.000000
  876       -1.613021   1.000000
  877       -1.610662   1.000000
  878       -1.609777   1.000000
  879       -1.607519   1.000000
  880       -1.606523   1.000000
  881       -1.606408   1.000000
  882       -1.603893   1.000000
  883       -1.603544   1.000000
  884       -1.591407   1.000000
  885       -1.591227   1.000000
  886       -1.585683   1.000000
  887       -1.578975   1.000000
  888       -1.576905   1.000000
  889       -1.569307   1.000000
  890       -1.562637   1.000000
  891       -1.559748   1.000000
  892       -1.557508   1.000000
  893       -1.556927   1.000000
  894       -1.542641   1.000000
  895       -1.535313   1.000000
  896       -1.512728   1.000000
  897       -1.501248   1.000000
  898       -1.499034   1.000000
  899       -1.489175   1.000000
  900       -1.488372   1.000000
  901       -1.486923   1.000000