       N       E                     dE             d eps       ncg     rms          rms(c)
DAV:   1     0.182799969808E+05    0.18280E+05   -0.91775E+05 12216   0.112E+03
DAV:   2    -0.152051145365E+03   -0.18432E+05   -0.17441E+05 12840   0.400E+02
DAV:   3    -0.140419534516E+04   -0.12521E+04   -0.10370E+04 14148   0.104E+02
DAV:   4    -0.157283426129E+04   -0.16864E+03   -0.14960E+03 22308   0.379E+01
DAV:   5    -0.157925140175E+04   -0.64171E+01   -0.61165E+01 20496   0.715E+00    0.148E+02
DAV:   6    -0.183648555606E+04   -0.25723E+03   -0.31887E+03 13584   0.144E+02    0.246E+02
DAV:   7    -0.199130555603E+04   -0.15482E+03   -0.13158E+03 13116   0.161E+02    0.241E+02
DAV:   8    -0.391774575052E+04   -0.19264E+04   -0.68586E+02 14328   0.206E+02    0.392E+02
DAV:   9    -0.169986417921E+04    0.22179E+04   -0.56597E+02 15384   0.726E+01    0.206E+02
DAV:  10    -0.145167200020E+04    0.24819E+03   -0.41557E+02 14004   0.690E+01    0.157E+02
DAV:  11    -0.155783906632E+04   -0.10617E+03   -0.40063E+02 13164   0.102E+02    0.208E+02
DAV:  12    -0.144712796653E+04    0.11071E+03   -0.27278E+02 12744   0.540E+01    0.116E+02
DAV:  13    -0.138526894982E+04    0.61859E+02   -0.13445E+02 13344   0.526E+01    0.119E+02
DAV:  14    -0.134676616720E+04    0.38503E+02   -0.67837E+01 13128   0.368E+01    0.884E+01
DAV:  15    -0.135414901154E+04   -0.73828E+01   -0.55645E+01 13272   0.373E+01    0.107E+02
DAV:  16    -0.133738997576E+04    0.16759E+02   -0.42256E+01 13104   0.311E+01    0.960E+01
DAV:  17    -0.132160614243E+04    0.15784E+02   -0.28836E+01 13080   0.246E+01    0.754E+01
DAV:  18    -0.131568060703E+04    0.59255E+01   -0.19120E+01 13152   0.204E+01    0.635E+01
DAV:  19    -0.131635227663E+04   -0.67167E+00   -0.14162E+01 13116   0.188E+01    0.630E+01
DAV:  20    -0.131057025809E+04    0.57820E+01   -0.10419E+01 12984   0.159E+01    0.483E+01
DAV:  21    -0.130862154368E+04    0.19487E+01   -0.61875E+00 13032   0.127E+01    0.448E+01
DAV:  22    -0.130733961383E+04    0.12819E+01   -0.51248E+00 13152   0.112E+01    0.422E+01
DAV:  23    -0.130600444363E+04    0.13352E+01   -0.41597E+00 13080   0.978E+00    0.347E+01
DAV:  24    -0.130554592086E+04    0.45852E+00   -0.34199E+00 13200   0.898E+00    0.343E+01
DAV:  25    -0.130525857460E+04    0.28735E+00   -0.29396E+00 13224   0.811E+00    0.333E+01
DAV:  26    -0.130499849571E+04    0.26008E+00   -0.26561E+00 13212   0.770E+00    0.329E+01
DAV:  27    -0.130472480785E+04    0.27369E+00   -0.23307E+00 13392   0.726E+00    0.340E+01
DAV:  28    -0.130457139500E+04    0.15341E+00   -0.20043E+00 13200   0.638E+00    0.347E+01
DAV:  29    -0.130371800757E+04    0.85339E+00   -0.21095E+00 13296   0.664E+00    0.267E+01
DAV:  30    -0.130322011851E+04    0.49789E+00   -0.17163E+00 13296   0.615E+00    0.240E+01
DAV:  31    -0.130269603201E+04    0.52409E+00   -0.11794E+00 13248   0.460E+00    0.194E+01
DAV:  32    -0.130273684868E+04   -0.40817E-01   -0.99410E-01 13224   0.448E+00    0.198E+01
DAV:  33    -0.130233064197E+04    0.40621E+00   -0.63884E-01 13284   0.348E+00    0.175E+01
DAV:  34    -0.130192555855E+04    0.40508E+00   -0.43298E-01 13272   0.259E+00    0.123E+01
DAV:  35    -0.130176797384E+04    0.15758E+00   -0.20287E-01 13176   0.189E+00    0.951E+00
DAV:  36    -0.130172879190E+04    0.39182E-01   -0.16419E-01 13320   0.170E+00    0.867E+00
DAV:  37    -0.130185446937E+04   -0.12568E+00   -0.23377E-01 13368   0.207E+00    0.116E+01
DAV:  38    -0.130170585085E+04    0.14862E+00   -0.18868E-01 13296   0.179E+00    0.874E+00
DAV:  39    -0.130158728692E+04    0.11856E+00   -0.84762E-02 13296   0.118E+00    0.551E+00
DAV:  40    -0.130157653717E+04    0.10750E-01   -0.55682E-02 13392   0.914E-01    0.543E+00
DAV:  41    -0.130157535275E+04    0.11844E-02   -0.56212E-02 13392   0.886E-01    0.528E+00
DAV:  42    -0.130161155821E+04   -0.36205E-01   -0.73116E-02 13236   0.113E+00    0.715E+00
DAV:  43    -0.130156891071E+04    0.42648E-01   -0.73895E-02 13236   0.109E+00    0.570E+00
DAV:  44    -0.130154493214E+04    0.23979E-01   -0.35348E-02 13284   0.660E-01    0.497E+00
DAV:  45    -0.130154122729E+04    0.37048E-02   -0.25990E-02 13224   0.581E-01    0.474E+00
DAV:  46    -0.130153706196E+04    0.41653E-02   -0.30458E-02 13212   0.735E-01    0.448E+00
DAV:  47    -0.130151944188E+04    0.17620E-01   -0.17640E-02 13272   0.518E-01    0.368E+00
DAV:  48    -0.130151052364E+04    0.89182E-02   -0.11589E-02 13224   0.407E-01    0.287E+00
DAV:  49    -0.130151145861E+04   -0.93497E-03   -0.14725E-02 13332   0.491E-01    0.284E+00
DAV:  50    -0.130152547024E+04   -0.14012E-01   -0.23185E-02 13320   0.588E-01    0.373E+00
DAV:  51    -0.130152372397E+04    0.17463E-02   -0.39960E-02 14004   0.810E-01    0.312E+00
DAV:  52    -0.130152042937E+04    0.32946E-02   -0.28513E-02 13392   0.691E-01    0.268E+00
DAV:  53    -0.130150258652E+04    0.17843E-01   -0.17125E-02 13272   0.603E-01    0.134E+00
DAV:  54    -0.130150327653E+04   -0.69001E-03   -0.88954E-03 13608   0.418E-01    0.141E+00
DAV:  55    -0.130150819684E+04   -0.49203E-02   -0.97448E-03 13344   0.445E-01    0.174E+00
DAV:  56    -0.130150265173E+04    0.55451E-02   -0.86692E-03 13308   0.432E-01    0.110E+00
DAV:  57    -0.130150059350E+04    0.20582E-02   -0.34952E-03 13200   0.266E-01    0.714E-01
DAV:  58    -0.130150212663E+04   -0.15331E-02   -0.25773E-03 13152   0.236E-01    0.786E-01
DAV:  59    -0.130150161379E+04    0.51284E-03   -0.24177E-03 13092   0.223E-01    0.573E-01
DAV:  60    -0.130150156812E+04    0.45670E-04   -0.12937E-03 13212   0.159E-01
   1 F= -.13015016E+04 E0= -.13008165E+04  d E =-.137014E+01
