 257 257   0   0
  0.1133056E+02  0.1428000E-08  0.1428000E-08  0.1428000E-08  0.2000000E-15
  1.000000000000000E-004
  CAR 
 NiAl                                    
     11.49544255    -13.86489437  301      3.96621497      1.00000000
    -13.865  0.0000E+00  0.0000E+00
    -13.780  0.0000E+00  0.0000E+00
    -13.696  0.0000E+00  0.0000E+00
    -13.611  0.0000E+00  0.0000E+00
    -13.527  0.0000E+00  0.0000E+00
    -13.442  0.0000E+00  0.0000E+00
    -13.358  0.0000E+00  0.0000E+00
    -13.273  0.0000E+00  0.0000E+00
    -13.189  0.0000E+00  0.0000E+00
    -13.104  0.0000E+00  0.0000E+00
    -13.020  0.0000E+00  0.0000E+00
    -12.935  0.8447E-10  0.7140E-11
    -12.850  0.2669E-04  0.2256E-05
    -12.766  0.3765E-01  0.3185E-02
    -12.681  0.4396E+00  0.4035E-01
    -12.597  0.1139E+00  0.4997E-01
    -12.512  0.3323E-03  0.5000E-01
    -12.428  0.4785E-08  0.5000E-01
    -12.343  0.2627E-15  0.5000E-01
    -12.259  0.0000E+00  0.5000E-01
    -12.174  0.0000E+00  0.5000E-01
    -12.090  0.0000E+00  0.5000E-01
    -12.005  0.0000E+00  0.5000E-01
    -11.921  0.0000E+00  0.5000E-01
    -11.836  0.0000E+00  0.5000E-01
    -11.752  0.0000E+00  0.5000E-01
    -11.667  0.0000E+00  0.5000E-01
    -11.582  0.0000E+00  0.5000E-01
    -11.498  0.0000E+00  0.5000E-01
    -11.413  0.0000E+00  0.5000E-01
    -11.329  0.0000E+00  0.5000E-01
    -11.244  0.0000E+00  0.5000E-01
    -11.160  0.0000E+00  0.5000E-01
    -11.075  0.0000E+00  0.5000E-01
    -10.991  0.0000E+00  0.5000E-01
    -10.906  0.0000E+00  0.5000E-01
    -10.822  0.0000E+00  0.5000E-01
    -10.737  0.0000E+00  0.5000E-01
    -10.653  0.0000E+00  0.5000E-01
    -10.568  0.0000E+00  0.5000E-01
    -10.484  0.0000E+00  0.5000E-01
    -10.399  0.0000E+00  0.5000E-01
    -10.314  0.0000E+00  0.5000E-01
    -10.230  0.0000E+00  0.5000E-01
    -10.145  0.0000E+00  0.5000E-01
    -10.061  0.0000E+00  0.5000E-01
     -9.976  0.0000E+00  0.5000E-01
     -9.892  0.0000E+00  0.5000E-01
     -9.807  0.0000E+00  0.5000E-01
     -9.723  0.0000E+00  0.5000E-01
     -9.638  0.0000E+00  0.5000E-01
     -9.554  0.0000E+00  0.5000E-01
     -9.469  0.0000E+00  0.5000E-01
     -9.385  0.0000E+00  0.5000E-01
     -9.300  0.0000E+00  0.5000E-01
     -9.215  0.0000E+00  0.5000E-01
     -9.131  0.0000E+00  0.5000E-01
     -9.046  0.0000E+00  0.5000E-01
     -8.962  0.0000E+00  0.5000E-01
     -8.877  0.0000E+00  0.5000E-01
     -8.793  0.0000E+00  0.5000E-01
     -8.708  0.0000E+00  0.5000E-01
     -8.624  0.0000E+00  0.5000E-01
     -8.539  0.0000E+00  0.5000E-01
     -8.455  0.0000E+00  0.5000E-01
     -8.370  0.0000E+00  0.5000E-01
     -8.286  0.0000E+00  0.5000E-01
     -8.201  0.0000E+00  0.5000E-01
     -8.117  0.0000E+00  0.5000E-01
     -8.032  0.0000E+00  0.5000E-01
     -7.947  0.0000E+00  0.5000E-01
     -7.863  0.0000E+00  0.5000E-01
     -7.778  0.0000E+00  0.5000E-01
     -7.694  0.0000E+00  0.5000E-01
     -7.609  0.0000E+00  0.5000E-01
     -7.525  0.0000E+00  0.5000E-01
     -7.440  0.0000E+00  0.5000E-01
     -7.356  0.0000E+00  0.5000E-01
     -7.271  0.0000E+00  0.5000E-01
     -7.187  0.0000E+00  0.5000E-01
     -7.102  0.0000E+00  0.5000E-01
     -7.018  0.0000E+00  0.5000E-01
     -6.933  0.0000E+00  0.5000E-01
     -6.849  0.0000E+00  0.5000E-01
     -6.764  0.0000E+00  0.5000E-01
     -6.679  0.0000E+00  0.5000E-01
     -6.595  0.0000E+00  0.5000E-01
     -6.510  0.0000E+00  0.5000E-01
     -6.426  0.0000E+00  0.5000E-01
     -6.341  0.0000E+00  0.5000E-01
     -6.257  0.0000E+00  0.5000E-01
     -6.172  0.0000E+00  0.5000E-01
     -6.088  0.0000E+00  0.5000E-01
     -6.003  0.0000E+00  0.5000E-01
     -5.919  0.0000E+00  0.5000E-01
     -5.834  0.0000E+00  0.5000E-01
     -5.750  0.0000E+00  0.5000E-01
     -5.665  0.0000E+00  0.5000E-01
     -5.581  0.0000E+00  0.5000E-01
     -5.496  0.0000E+00  0.5000E-01
     -5.411  0.0000E+00  0.5000E-01
     -5.327  0.0000E+00  0.5000E-01
     -5.242  0.0000E+00  0.5000E-01
     -5.158  0.0000E+00  0.5000E-01
     -5.073  0.0000E+00  0.5000E-01
     -4.989  0.0000E+00  0.5000E-01
     -4.904  0.0000E+00  0.5000E-01
     -4.820  0.0000E+00  0.5000E-01
     -4.735  0.6028E-10  0.5000E-01
     -4.651  0.1008E-04  0.5000E-01
     -4.566  0.7816E-02  0.5066E-01
     -4.482  0.5677E-01  0.5546E-01
     -4.397  0.3513E-01  0.5843E-01
     -4.313  0.2584E+00  0.8027E-01
     -4.228  0.1750E+00  0.9507E-01
     -4.143  0.4460E+00  0.1328E+00
     -4.059  0.3447E+00  0.1619E+00
     -3.974  0.3207E+00  0.1890E+00
     -3.890  0.2733E+00  0.2121E+00
     -3.805  0.1586E+00  0.2255E+00
     -3.721  0.2948E+00  0.2504E+00
     -3.636  0.5092E+00  0.2935E+00
     -3.552  0.1034E+01  0.3809E+00
     -3.467  0.5475E+00  0.4272E+00
     -3.383  0.9985E+00  0.5116E+00
     -3.298  0.4125E+00  0.5465E+00
     -3.214  0.4573E+00  0.5851E+00
     -3.129  0.9099E+00  0.6621E+00
     -3.044  0.4926E+00  0.7037E+00
     -2.960  0.3994E+00  0.7375E+00
     -2.875  0.5926E+00  0.7876E+00
     -2.791  0.1095E+01  0.8802E+00
     -2.706  0.6268E+00  0.9331E+00
     -2.622  0.1398E+01  0.1051E+01
     -2.537  0.7246E+00  0.1113E+01
     -2.453  0.1442E+01  0.1234E+01
     -2.368  0.2457E+00  0.1255E+01
     -2.284  0.2576E+00  0.1277E+01
     -2.199  0.5438E+00  0.1323E+01
     -2.115  0.1114E+01  0.1417E+01
     -2.030  0.1483E+01  0.1543E+01
     -1.946  0.1819E+01  0.1696E+01
     -1.861  0.4459E+00  0.1734E+01
     -1.776  0.3871E+00  0.1767E+01
     -1.692  0.2101E+00  0.1785E+01
     -1.607  0.1022E+01  0.1871E+01
     -1.523  0.1784E+01  0.2022E+01
     -1.438  0.1085E+01  0.2113E+01
     -1.354  0.1759E+01  0.2262E+01
     -1.269  0.1531E+01  0.2392E+01
     -1.185  0.8492E+00  0.2463E+01
     -1.100  0.1074E+01  0.2554E+01
     -1.016  0.2452E+01  0.2762E+01
     -0.931  0.2928E+01  0.3009E+01
     -0.847  0.7013E+00  0.3068E+01
     -0.762  0.4628E+00  0.3107E+01
     -0.678  0.1420E+01  0.3227E+01
     -0.593  0.9995E+00  0.3312E+01
     -0.508  0.1371E+01  0.3428E+01
     -0.424  0.4779E+01  0.3832E+01
     -0.339  0.5186E+01  0.4270E+01
     -0.255  0.2358E+01  0.4470E+01
     -0.170  0.1969E+01  0.4636E+01
     -0.086  0.4517E+01  0.5018E+01
     -0.001  0.5305E+01  0.5466E+01
      0.083  0.7336E+01  0.6086E+01
      0.168  0.7087E+01  0.6686E+01
      0.252  0.5027E+01  0.7111E+01
      0.337  0.9042E+01  0.7875E+01
      0.421  0.1028E+02  0.8744E+01
      0.506  0.5928E+01  0.9245E+01
      0.590  0.6842E+01  0.9823E+01
      0.675  0.1199E+02  0.1084E+02
      0.760  0.1391E+02  0.1201E+02
      0.844  0.1437E+02  0.1323E+02
      0.929  0.1035E+02  0.1410E+02
      1.013  0.1286E+02  0.1519E+02
      1.098  0.1303E+02  0.1629E+02
      1.182  0.1155E+02  0.1727E+02
      1.267  0.1037E+02  0.1814E+02
      1.351  0.1038E+02  0.1902E+02
      1.436  0.1236E+02  0.2006E+02
      1.520  0.1122E+02  0.2101E+02
      1.605  0.1379E+02  0.2218E+02
      1.689  0.1572E+02  0.2351E+02
      1.774  0.1338E+02  0.2464E+02
      1.859  0.1651E+02  0.2603E+02
      1.943  0.1285E+02  0.2712E+02
      2.028  0.1788E+02  0.2863E+02
      2.112  0.2417E+02  0.3067E+02
      2.197  0.1935E+02  0.3231E+02
      2.281  0.1788E+02  0.3382E+02
      2.366  0.2296E+02  0.3576E+02
      2.450  0.2420E+02  0.3781E+02
      2.535  0.1538E+02  0.3911E+02
      2.619  0.1455E+02  0.4034E+02
      2.704  0.1340E+02  0.4147E+02
      2.788  0.1510E+02  0.4275E+02
      2.873  0.1568E+02  0.4407E+02
      2.957  0.1178E+02  0.4507E+02
      3.042  0.1763E+02  0.4656E+02
      3.127  0.2174E+02  0.4840E+02
      3.211  0.1366E+02  0.4955E+02
      3.296  0.1388E+02  0.5072E+02
      3.380  0.2060E+02  0.5247E+02
      3.465  0.2025E+02  0.5418E+02
      3.549  0.1321E+02  0.5530E+02
      3.634  0.1336E+02  0.5642E+02
      3.718  0.2007E+02  0.5812E+02
      3.803  0.1910E+02  0.5974E+02
      3.887  0.2506E+02  0.6185E+02
      3.972  0.2885E+02  0.6429E+02
      4.056  0.2613E+02  0.6650E+02
      4.141  0.9912E+01  0.6734E+02
      4.225  0.2576E+01  0.6756E+02
      4.310  0.1443E+01  0.6768E+02
      4.395  0.1813E+01  0.6783E+02
      4.479  0.2364E+01  0.6803E+02
      4.564  0.3031E+01  0.6829E+02
      4.648  0.3823E+01  0.6861E+02
      4.733  0.4536E+01  0.6900E+02
      4.817  0.1790E+01  0.6915E+02
      4.902  0.1158E+01  0.6924E+02
      4.986  0.1573E+01  0.6938E+02
      5.071  0.7358E+00  0.6944E+02
      5.155  0.1798E+01  0.6959E+02
      5.240  0.1325E+01  0.6970E+02
      5.324  0.1406E+01  0.6982E+02
      5.409  0.1278E+01  0.6993E+02
      5.493  0.4600E+01  0.7032E+02
      5.578  0.6390E+01  0.7086E+02
      5.663  0.1184E+01  0.7096E+02
      5.747  0.4467E+00  0.7100E+02
      5.832  0.1190E+01  0.7110E+02
      5.916  0.8536E+00  0.7117E+02
      6.001  0.2214E+01  0.7136E+02
      6.085  0.1303E+01  0.7147E+02
      6.170  0.6514E+00  0.7152E+02
      6.254  0.2005E+01  0.7169E+02
      6.339  0.2455E+01  0.7190E+02
      6.423  0.1666E+01  0.7204E+02
      6.508  0.3426E+01  0.7233E+02
      6.592  0.1571E+01  0.7246E+02
      6.677  0.1281E+01  0.7257E+02
      6.762  0.1515E+01  0.7270E+02
      6.846  0.5243E+00  0.7274E+02
      6.931  0.1403E+01  0.7286E+02
      7.015  0.3989E+01  0.7320E+02
      7.100  0.9587E+00  0.7328E+02
      7.184  0.1964E+01  0.7345E+02
      7.269  0.2083E+01  0.7362E+02
      7.353  0.9930E+00  0.7371E+02
      7.438  0.9025E+00  0.7378E+02
      7.522  0.9502E+00  0.7386E+02
      7.607  0.1209E+01  0.7397E+02
      7.691  0.1928E+01  0.7413E+02
      7.776  0.3766E+01  0.7445E+02
      7.860  0.1116E+01  0.7454E+02
      7.945  0.4491E+00  0.7458E+02
      8.030  0.8488E+00  0.7465E+02
      8.114  0.3266E+01  0.7493E+02
      8.199  0.7015E+00  0.7499E+02
      8.283  0.3517E+00  0.7502E+02
      8.368  0.6285E+00  0.7507E+02
      8.452  0.9455E+00  0.7515E+02
      8.537  0.1310E+01  0.7526E+02
      8.621  0.3608E+00  0.7529E+02
      8.706  0.7879E+00  0.7536E+02
      8.790  0.9957E+00  0.7544E+02
      8.875  0.2105E+01  0.7562E+02
      8.959  0.3246E+01  0.7589E+02
      9.044  0.2215E+01  0.7608E+02
      9.128  0.6399E+00  0.7613E+02
      9.213  0.3302E+00  0.7616E+02
      9.298  0.3155E+00  0.7619E+02
      9.382  0.1889E+00  0.7620E+02
      9.467  0.6567E-01  0.7621E+02
      9.551  0.7759E+00  0.7628E+02
      9.636  0.7634E+00  0.7634E+02
      9.720  0.2097E+00  0.7636E+02
      9.805  0.6299E+00  0.7641E+02
      9.889  0.2672E+01  0.7664E+02
      9.974  0.1391E+01  0.7676E+02
     10.058  0.1208E+01  0.7686E+02
     10.143  0.1345E+01  0.7697E+02
     10.227  0.1019E+01  0.7706E+02
     10.312  0.3660E+00  0.7709E+02
     10.396  0.1331E+00  0.7710E+02
     10.481  0.9423E-02  0.7710E+02
     10.566  0.6667E-05  0.7710E+02
     10.650  0.2109E-10  0.7710E+02
     10.735  0.0000E+00  0.7710E+02
     10.819  0.0000E+00  0.7710E+02
     10.904  0.0000E+00  0.7710E+02
     10.988  0.0000E+00  0.7710E+02
     11.073  0.0000E+00  0.7710E+02
     11.157  0.0000E+00  0.7710E+02
     11.242  0.0000E+00  0.7710E+02
     11.326  0.0000E+00  0.7710E+02
     11.411  0.0000E+00  0.7710E+02
     11.495  0.0000E+00  0.7710E+02
