         265
 Energy:  -1360.4356756000000     
 X   0.00000000       0.00000000       0.00000000    
 X   14.2799997       0.00000000       0.00000000    
 X   0.00000000       14.2799997       0.00000000    
 X   0.00000000       0.00000000       14.2799997    
 X   14.2799997       14.2799997       0.00000000    
 X   14.2799997       0.00000000       14.2799997    
 X   0.00000000       14.2799997       14.2799997    
 X   14.2799997       14.2799997       14.2799997    
 Ni   0.00000000       0.00000000       0.00000000    
 Ni   0.00000000       1.78499997       1.78499997    
 Ni   1.78499997       0.00000000       1.78499997    
 Ni   1.78499997       1.78499997       0.00000000    
 Ni   0.00000000       0.00000000       3.56999993    
 Ni   0.00000000       1.78499997       5.35500002    
 Ni   1.78499997       0.00000000       5.35500002    
 Ni   1.78499997       1.78499997       3.56999993    
 Ni   0.00000000       0.00000000       7.13999987    
 Ni   0.00000000       1.78499997       8.92500019    
 Ni   1.78499997       0.00000000       8.92500019    
 Ni   1.78499997       1.78499997       7.13999987    
 Ni   0.00000000       0.00000000       10.7100000    
 Ni   0.00000000       1.78499997       12.4949999    
 Ni   1.78499997       0.00000000       12.4949999    
 Ni   1.78499997       1.78499997       10.7100000    
 Ni   0.00000000       3.56999993       0.00000000    
 Ni   0.00000000       5.35500002       1.78499997    
 Ni   1.78499997       3.56999993       1.78499997    
 Ni   1.78499997       5.35500002       0.00000000    
 Ni   0.00000000       3.56999993       3.56999993    
 Ni   0.00000000       5.35500002       5.35500002    
 Ni   1.78499997       3.56999993       5.35500002    
 Ni   1.78499997       5.35500002       3.56999993    
 Ni   0.00000000       3.56999993       7.13999987    
 Ni   0.00000000       5.35500002       8.92500019    
 Ni   1.78499997       3.56999993       8.92500019    
 Ni   1.78499997       5.35500002       7.13999987    
 Ni   0.00000000       3.56999993       10.7100000    
 Ni   0.00000000       5.35500002       12.4949999    
 Ni   1.78499997       3.56999993       12.4949999    
 Ni   1.78499997       5.35500002       10.7100000    
 Ni   0.00000000       7.13999987       0.00000000    
 Ni   0.00000000       8.92500019       1.78499997    
 Ni   1.78499997       7.13999987       1.78499997    
 Ni   1.78499997       8.92500019       0.00000000    
 Ni   0.00000000       7.13999987       3.56999993    
 Ni   0.00000000       8.92500019       5.35500002    
 Ni   1.78499997       7.13999987       5.35500002    
 Ni   1.78499997       8.92500019       3.56999993    
 Ni   0.00000000       7.13999987       7.13999987    
 Ni   0.00000000       8.92500019       8.92500019    
 Ni   1.78499997       7.13999987       8.92500019    
 Ni   1.78499997       8.92500019       7.13999987    
 Ni   0.00000000       7.13999987       10.7100000    
 Ni   0.00000000       8.92500019       12.4949999    
 Ni   1.78499997       7.13999987       12.4949999    
 Ni   1.78499997       8.92500019       10.7100000    
 Ni   0.00000000       10.7100000       0.00000000    
 Ni   0.00000000       12.4949999       1.78499997    
 Ni   1.78499997       10.7100000       1.78499997    
 Ni   1.78499997       12.4949999       0.00000000    
 Ni   0.00000000       10.7100000       3.56999993    
 Ni   0.00000000       12.4949999       5.35500002    
 Ni   1.78499997       10.7100000       5.35500002    
 Ni   1.78499997       12.4949999       3.56999993    
 Ni   0.00000000       10.7100000       7.13999987    
 Ni   0.00000000       12.4949999       8.92500019    
 Ni   1.78499997       10.7100000       8.92500019    
 Ni   1.78499997       12.4949999       7.13999987    
 Ni   0.00000000       10.7100000       10.7100000    
 Ni   0.00000000       12.4949999       12.4949999    
 Ni   1.78499997       10.7100000       12.4949999    
 Ni   1.78499997       12.4949999       10.7100000    
 Ni   3.56999993       0.00000000       0.00000000    
 Ni   3.56999993       1.78499997       1.78499997    
 Ni   5.35500002       0.00000000       1.78499997    
 Ni   5.35500002       1.78499997       0.00000000    
 Ni   3.56999993       0.00000000       3.56999993    
 Ni   3.56999993       1.78499997       5.35500002    
 Ni   5.35500002       0.00000000       5.35500002    
 Ni   5.35500002       1.78499997       3.56999993    
 Ni   3.56999993       0.00000000       7.13999987    
 Ni   3.56999993       1.78499997       8.92500019    
 Ni   5.35500002       0.00000000       8.92500019    
 Ni   5.35500002       1.78499997       7.13999987    
 Ni   3.56999993       0.00000000       10.7100000    
 Ni   3.56999993       1.78499997       12.4949999    
 Ni   5.35500002       0.00000000       12.4949999    
 Ni   5.35500002       1.78499997       10.7100000    
 Ni   3.56999993       3.56999993       0.00000000    
 Ni   3.56999993       5.35500002       1.78499997    
 Ni   5.35500002       3.56999993       1.78499997    
 Ni   5.35500002       5.35500002       0.00000000    
 Ni   3.56999993       3.56999993       3.56999993    
 Ni   3.56999993       5.35500002       5.35500002    
 Ni   5.35500002       3.56999993       5.35500002    
 Ni   5.35500002       5.35500002       3.56999993    
 Ni   3.56999993       3.56999993       7.13999987    
 Ni   3.56999993       5.35500002       8.92500019    
 Ni   5.35500002       3.56999993       8.92500019    
 Ni   5.35500002       5.35500002       7.13999987    
 Ni   3.56999993       3.56999993       10.7100000    
 Ni   3.56999993       5.35500002       12.4949999    
 Ni   5.35500002       3.56999993       12.4949999    
 Ni   5.35500002       5.35500002       10.7100000    
 Ni   3.56999993       7.13999987       0.00000000    
 Ni   3.56999993       8.92500019       1.78499997    
 Ni   5.35500002       7.13999987       1.78499997    
 Ni   5.35500002       8.92500019       0.00000000    
 Ni   3.56999993       7.13999987       3.56999993    
 Ni   3.56999993       8.92500019       5.35500002    
 Ni   5.35500002       7.13999987       5.35500002    
 Ni   5.35500002       8.92500019       3.56999993    
 Ni   3.56999993       7.13999987       7.13999987    
 Ni   3.56999993       8.92500019       8.92500019    
 Ni   5.35500002       7.13999987       8.92500019    
 Ni   5.35500002       8.92500019       7.13999987    
 Ni   3.56999993       7.13999987       10.7100000    
 Ni   3.56999993       8.92500019       12.4949999    
 Ni   5.35500002       7.13999987       12.4949999    
 Ni   5.35500002       8.92500019       10.7100000    
 Ni   3.56999993       10.7100000       0.00000000    
 Ni   3.56999993       12.4949999       1.78499997    
 Ni   5.35500002       10.7100000       1.78499997    
 Ni   5.35500002       12.4949999       0.00000000    
 Ni   3.56999993       10.7100000       3.56999993    
 Ni   3.56999993       12.4949999       5.35500002    
 Ni   5.35500002       10.7100000       5.35500002    
 Ni   5.35500002       12.4949999       3.56999993    
 Ni   3.56999993       10.7100000       7.13999987    
 Ni   3.56999993       12.4949999       8.92500019    
 Ni   5.35500002       10.7100000       8.92500019    
 Ni   5.35500002       12.4949999       7.13999987    
 Ni   3.56999993       10.7100000       10.7100000    
 Ni   3.56999993       12.4949999       12.4949999    
 Ni   5.35500002       10.7100000       12.4949999    
 Ni   5.35500002       12.4949999       10.7100000    
 Ni   7.13999987       0.00000000       0.00000000    
 Ni   7.13999987       1.78499997       1.78499997    
 Ni   8.92500019       0.00000000       1.78499997    
 Ni   8.92500019       1.78499997       0.00000000    
 Ni   7.13999987       0.00000000       3.56999993    
 Ni   7.13999987       1.78499997       5.35500002    
 Ni   8.92500019       0.00000000       5.35500002    
 Ni   8.92500019       1.78499997       3.56999993    
 Ni   7.13999987       0.00000000       7.13999987    
 Ni   7.13999987       1.78499997       8.92500019    
 Ni   8.92500019       0.00000000       8.92500019    
 Ni   8.92500019       1.78499997       7.13999987    
 Ni   7.13999987       0.00000000       10.7100000    
 Ni   7.13999987       1.78499997       12.4949999    
 Ni   8.92500019       0.00000000       12.4949999    
 Ni   8.92500019       1.78499997       10.7100000    
 Ni   7.13999987       3.56999993       0.00000000    
 Ni   7.13999987       5.35500002       1.78499997    
 Ni   8.92500019       3.56999993       1.78499997    
 Ni   8.92500019       5.35500002       0.00000000    
 Ni   7.13999987       3.56999993       3.56999993    
 Ni   7.13999987       5.35500002       5.35500002    
 Ni   8.92500019       3.56999993       5.35500002    
 Ni   8.92500019       5.35500002       3.56999993    
 Ni   7.13999987       3.56999993       7.13999987    
 Ni   7.13999987       5.35500002       8.92500019    
 Ni   8.92500019       3.56999993       8.92500019    
 Ni   8.92500019       5.35500002       7.13999987    
 Ni   7.13999987       3.56999993       10.7100000    
 Ni   7.13999987       5.35500002       12.4949999    
 Ni   8.92500019       3.56999993       12.4949999    
 Ni   8.92500019       5.35500002       10.7100000    
 Ni   7.13999987       7.13999987       0.00000000    
 Ni   7.13999987       8.92500019       1.78499997    
 Ni   8.92500019       7.13999987       1.78499997    
 Ni   8.92500019       8.92500019       0.00000000    
 Ni   7.13999987       7.13999987       3.56999993    
 Ni   7.13999987       8.92500019       5.35500002    
 Ni   8.92500019       7.13999987       5.35500002    
 Ni   8.92500019       8.92500019       3.56999993    
 Ni   7.13999987       7.13999987       7.13999987    
 Ni   7.13999987       8.92500019       8.92500019    
 Ni   8.92500019       7.13999987       8.92500019    
 Ni   8.92500019       8.92500019       7.13999987    
 Ni   7.13999987       7.13999987       10.7100000    
 Ni   7.13999987       8.92500019       12.4949999    
 Ni   8.92500019       7.13999987       12.4949999    
 Ni   8.92500019       8.92500019       10.7100000    
 Ni   7.13999987       10.7100000       0.00000000    
 Ni   7.13999987       12.4949999       1.78499997    
 Ni   8.92500019       10.7100000       1.78499997    
 Ni   8.92500019       12.4949999       0.00000000    
 Ni   7.13999987       10.7100000       3.56999993    
 Ni   7.13999987       12.4949999       5.35500002    
 Ni   8.92500019       10.7100000       5.35500002    
 Ni   8.92500019       12.4949999       3.56999993    
 Ni   7.13999987       10.7100000       7.13999987    
 Ni   7.13999987       12.4949999       8.92500019    
 Ni   8.92500019       10.7100000       8.92500019    
 Ni   8.92500019       12.4949999       7.13999987    
 Ni   7.13999987       10.7100000       10.7100000    
 Ni   7.13999987       12.4949999       12.4949999    
 Ni   8.92500019       10.7100000       12.4949999    
 Ni   8.92500019       12.4949999       10.7100000    
 Ni   10.7100000       0.00000000       0.00000000    
 Ni   10.7100000       1.78499997       1.78499997    
 Ni   12.4949999       0.00000000       1.78499997    
 Ni   12.4949999       1.78499997       0.00000000    
 Ni   10.7100000       0.00000000       3.56999993    
 Ni   10.7100000       1.78499997       5.35500002    
 Ni   12.4949999       0.00000000       5.35500002    
 Ni   12.4949999       1.78499997       3.56999993    
 Ni   10.7100000       0.00000000       7.13999987    
 Ni   10.7100000       1.78499997       8.92500019    
 Ni   12.4949999       0.00000000       8.92500019    
 Ni   12.4949999       1.78499997       7.13999987    
 Ni   10.7100000       0.00000000       10.7100000    
 Ni   10.7100000       1.78499997       12.4949999    
 Ni   12.4949999       0.00000000       12.4949999    
 Ni   12.4949999       1.78499997       10.7100000    
 Ni   10.7100000       3.56999993       0.00000000    
 Ni   10.7100000       5.35500002       1.78499997    
 Ni   12.4949999       3.56999993       1.78499997    
 Ni   12.4949999       5.35500002       0.00000000    
 Ni   10.7100000       3.56999993       3.56999993    
 Ni   10.7100000       5.35500002       5.35500002    
 Ni   12.4949999       3.56999993       5.35500002    
 Ni   12.4949999       5.35500002       3.56999993    
 Ni   10.7100000       3.56999993       7.13999987    
 Ni   10.7100000       5.35500002       8.92500019    
 Ni   12.4949999       3.56999993       8.92500019    
 Ni   12.4949999       5.35500002       7.13999987    
 Ni   10.7100000       3.56999993       10.7100000    
 Ni   10.7100000       5.35500002       12.4949999    
 Ni   12.4949999       3.56999993       12.4949999    
 Ni   12.4949999       5.35500002       10.7100000    
 Ni   10.7100000       7.13999987       0.00000000    
 Ni   10.7100000       8.92500019       1.78499997    
 Ni   12.4949999       7.13999987       1.78499997    
 Ni   12.4949999       8.92500019       0.00000000    
 Ni   10.7100000       7.13999987       3.56999993    
 Ni   10.7100000       8.92500019       5.35500002    
 Ni   12.4949999       7.13999987       5.35500002    
 Ni   12.4949999       8.92500019       3.56999993    
 Ni   10.7100000       7.13999987       7.13999987    
 Ni   10.7100000       8.92500019       8.92500019    
 Ni   12.4949999       7.13999987       8.92500019    
 Ni   12.4949999       8.92500019       7.13999987    
 Ni   10.7100000       7.13999987       10.7100000    
 Ni   10.7100000       8.92500019       12.4949999    
 Ni   12.4949999       7.13999987       12.4949999    
 Ni   12.4949999       8.92500019       10.7100000    
 Ni   10.7100000       10.7100000       0.00000000    
 Ni   10.7100000       12.4949999       1.78499997    
 Ni   12.4949999       10.7100000       1.78499997    
 Ni   12.4949999       12.4949999       0.00000000    
 Ni   10.7100000       10.7100000       3.56999993    
 Ni   10.7100000       12.4949999       5.35500002    
 Ni   12.4949999       10.7100000       5.35500002    
 Ni   12.4949999       12.4949999       3.56999993    
 Ni   10.7100000       10.7100000       7.13999987    
 Ni   10.7100000       12.4949999       8.92500019    
 Ni   12.4949999       10.7100000       8.92500019    
 Ni   12.4949999       12.4949999       7.13999987    
 Ni   10.7100000       10.7100000       10.7100000    
 Ni   10.7100000       12.4949999       12.4949999    
 Ni   12.4949999       10.7100000       12.4949999    
 Ni   12.4949999       12.4949999       10.7100000    
 N   0.892499983      0.892499983      0.892499983    
         265
 Energy:  -1362.9202299999999     
 X   0.00000000       0.00000000       0.00000000    
 X   14.2799997       0.00000000       0.00000000    
 X   0.00000000       14.2799997       0.00000000    
 X   0.00000000       0.00000000       14.2799997    
 X   14.2799997       14.2799997       0.00000000    
 X   14.2799997       0.00000000       14.2799997    
 X   0.00000000       14.2799997       14.2799997    
 X   14.2799997       14.2799997       14.2799997    
 Ni  -8.79800022E-02  -8.79800022E-02  -8.79800022E-02
 Ni  -8.79800022E-02   1.87298000       1.87298000    
 Ni   1.87298000      -8.79800022E-02   1.87298000    
 Ni   1.87298000       1.87298000      -8.79800022E-02
 Ni  -3.37999989E-03  -3.37999989E-03   3.57768011    
 Ni   3.99999990E-05   1.78496003       5.35488987    
 Ni   1.78496003       3.99999990E-05   5.35488987    
 Ni   1.78838003       1.78838003       3.57768011    
 Ni  -1.10000001E-04  -1.10000001E-04   7.14006996    
 Ni  -1.10000001E-04   1.78511000       8.92492962    
 Ni   1.78511000      -1.10000001E-04   8.92492962    
 Ni   1.78511000       1.78511000       7.14006996    
 Ni   3.99999990E-05   3.99999990E-05   10.7101097    
 Ni  -3.37999989E-03   1.78838003       12.4873199    
 Ni   1.78838003      -3.37999989E-03   12.4873199    
 Ni   1.78496003       1.78496003       10.7101097    
 Ni  -3.37999989E-03   3.57768011      -3.37999989E-03
 Ni   3.99999990E-05   5.35488987       1.78496003    
 Ni   1.78838003       3.57768011       1.78838003    
 Ni   1.78496003       5.35488987       3.99999990E-05
 Ni  -6.60000020E-04   3.57141995       3.57141995    
 Ni  -3.99999990E-05   5.35566998       5.35566998    
 Ni   1.78483999       3.57017994       5.35501003    
 Ni   1.78483999       5.35501003       3.57017994    
 Ni  -1.99999995E-05   3.57010007       7.14008999    
 Ni   3.99999990E-05   5.35505009       8.92496967    
 Ni   1.78501999       3.57010007       8.92490959    
 Ni   1.78496003       5.35505009       7.14002991    
 Ni   1.59999996E-04   3.57017994       10.7099895    
 Ni   1.59999996E-04   5.35501003       12.4948196    
 Ni   1.78566003       3.57141995       12.4935799    
 Ni   1.78504002       5.35566998       10.7093296    
 Ni  -1.10000001E-04   7.14006996      -1.10000001E-04
 Ni  -1.10000001E-04   8.92492962       1.78511000    
 Ni   1.78511000       7.14006996       1.78511000    
 Ni   1.78511000       8.92492962      -1.10000001E-04
 Ni  -1.99999995E-05   7.14008999       3.57010007    
 Ni   3.99999990E-05   8.92496967       5.35505009    
 Ni   1.78496003       7.14002991       5.35505009    
 Ni   1.78501999       8.92490959       3.57010007    
 Ni  -9.00000014E-05   7.14018011       7.14018011    
 Ni  -9.00000014E-05   8.92481995       8.92481995    
 Ni   1.78508997       7.14018011       8.92481995    
 Ni   1.78508997       8.92481995       7.14018011    
 Ni   3.99999990E-05   7.14002991       10.7099504    
 Ni  -1.99999995E-05   8.92490959       12.4948997    
 Ni   1.78501999       7.14008999       12.4948997    
 Ni   1.78496003       8.92496967       10.7099504    
 Ni   3.99999990E-05   10.7101097       3.99999990E-05
 Ni  -3.37999989E-03   12.4873199       1.78838003    
 Ni   1.78496003       10.7101097       1.78496003    
 Ni   1.78838003       12.4873199      -3.37999989E-03
 Ni   1.59999996E-04   10.7099895       3.57017994    
 Ni   1.59999996E-04   12.4948196       5.35501003    
 Ni   1.78504002       10.7093296       5.35566998    
 Ni   1.78566003       12.4935799       3.57141995    
 Ni   3.99999990E-05   10.7099504       7.14002991    
 Ni  -1.99999995E-05   12.4948997       8.92490959    
 Ni   1.78496003       10.7099504       8.92496967    
 Ni   1.78501999       12.4948997       7.14008999    
 Ni  -3.99999990E-05   10.7093296       10.7093296    
 Ni  -6.60000020E-04   12.4935799       12.4935799    
 Ni   1.78483999       10.7099895       12.4948196    
 Ni   1.78483999       12.4948196       10.7099895    
 Ni   3.57768011      -3.37999989E-03  -3.37999989E-03
 Ni   3.57768011       1.78838003       1.78838003    
 Ni   5.35488987       3.99999990E-05   1.78496003    
 Ni   5.35488987       1.78496003       3.99999990E-05
 Ni   3.57141995      -6.60000020E-04   3.57141995    
 Ni   3.57017994       1.78483999       5.35501003    
 Ni   5.35566998      -3.99999990E-05   5.35566998    
 Ni   5.35501003       1.78483999       3.57017994    
 Ni   3.57010007      -1.99999995E-05   7.14008999    
 Ni   3.57010007       1.78501999       8.92490959    
 Ni   5.35505009       3.99999990E-05   8.92496967    
 Ni   5.35505009       1.78496003       7.14002991    
 Ni   3.57017994       1.59999996E-04   10.7099895    
 Ni   3.57141995       1.78566003       12.4935799    
 Ni   5.35501003       1.59999996E-04   12.4948196    
 Ni   5.35566998       1.78504002       10.7093296    
 Ni   3.57141995       3.57141995      -6.60000020E-04
 Ni   3.57017994       5.35501003       1.78483999    
 Ni   5.35501003       3.57017994       1.78483999    
 Ni   5.35566998       5.35566998      -3.99999990E-05
 Ni   3.56947994       3.56947994       3.56947994    
 Ni   3.57002997       5.35496998       5.35496998    
 Ni   5.35496998       3.57002997       5.35496998    
 Ni   5.35496998       5.35496998       3.57002997    
 Ni   3.57010007       3.57010007       7.14011002    
 Ni   3.56996989       5.35497999       8.92500019    
 Ni   5.35497999       3.56996989       8.92500019    
 Ni   5.35501003       5.35501003       7.14001989    
 Ni   3.56982994       3.56982994       10.7102604    
 Ni   3.56982994       5.35474014       12.4951696    
 Ni   5.35474014       3.56982994       12.4951696    
 Ni   5.35497999       5.35497999       10.7100201    
 Ni   3.57010007       7.14008999      -1.99999995E-05
 Ni   3.57010007       8.92490959       1.78501999    
 Ni   5.35505009       7.14002991       1.78496003    
 Ni   5.35505009       8.92496967       3.99999990E-05
 Ni   3.57010007       7.14011002       3.57010007    
 Ni   3.56996989       8.92500019       5.35497999    
 Ni   5.35501003       7.14001989       5.35501003    
 Ni   5.35497999       8.92500019       3.56996989    
 Ni   3.57005000       7.14001989       7.14001989    
 Ni   3.57005000       8.92498016       8.92498016    
 Ni   5.35502005       7.14001989       8.92498016    
 Ni   5.35502005       8.92498016       7.14001989    
 Ni   3.56996989       7.13999987       10.7100201    
 Ni   3.57010007       8.92488956       12.4948997    
 Ni   5.35497999       7.13999987       12.4950304    
 Ni   5.35501003       8.92498016       10.7099895    
 Ni   3.57017994       10.7099895       1.59999996E-04
 Ni   3.57141995       12.4935799       1.78566003    
 Ni   5.35566998       10.7093296       1.78504002    
 Ni   5.35501003       12.4948196       1.59999996E-04
 Ni   3.56982994       10.7102604       3.56982994    
 Ni   3.56982994       12.4951696       5.35474014    
 Ni   5.35497999       10.7100201       5.35497999    
 Ni   5.35474014       12.4951696       3.56982994    
 Ni   3.56996989       10.7100201       7.13999987    
 Ni   3.57010007       12.4948997       8.92488956    
 Ni   5.35501003       10.7099895       8.92498016    
 Ni   5.35497999       12.4950304       7.13999987    
 Ni   3.57002997       10.7100296       10.7100296    
 Ni   3.56947994       12.4955196       12.4955196    
 Ni   5.35496998       10.7100296       12.4949703    
 Ni   5.35496998       12.4949703       10.7100296    
 Ni   7.14006996      -1.10000001E-04  -1.10000001E-04
 Ni   7.14006996       1.78511000       1.78511000    
 Ni   8.92492962      -1.10000001E-04   1.78511000    
 Ni   8.92492962       1.78511000      -1.10000001E-04
 Ni   7.14008999      -1.99999995E-05   3.57010007    
 Ni   7.14002991       1.78496003       5.35505009    
 Ni   8.92496967       3.99999990E-05   5.35505009    
 Ni   8.92490959       1.78501999       3.57010007    
 Ni   7.14018011      -9.00000014E-05   7.14018011    
 Ni   7.14018011       1.78508997       8.92481995    
 Ni   8.92481995      -9.00000014E-05   8.92481995    
 Ni   8.92481995       1.78508997       7.14018011    
 Ni   7.14002991       3.99999990E-05   10.7099504    
 Ni   7.14008999       1.78501999       12.4948997    
 Ni   8.92490959      -1.99999995E-05   12.4948997    
 Ni   8.92496967       1.78496003       10.7099504    
 Ni   7.14008999       3.57010007      -1.99999995E-05
 Ni   7.14002991       5.35505009       1.78496003    
 Ni   8.92490959       3.57010007       1.78501999    
 Ni   8.92496967       5.35505009       3.99999990E-05
 Ni   7.14011002       3.57010007       3.57010007    
 Ni   7.14001989       5.35501003       5.35501003    
 Ni   8.92500019       3.56996989       5.35497999    
 Ni   8.92500019       5.35497999       3.56996989    
 Ni   7.14001989       3.57005000       7.14001989    
 Ni   7.14001989       5.35502005       8.92498016    
 Ni   8.92498016       3.57005000       8.92498016    
 Ni   8.92498016       5.35502005       7.14001989    
 Ni   7.13999987       3.56996989       10.7100201    
 Ni   7.13999987       5.35497999       12.4950304    
 Ni   8.92488956       3.57010007       12.4948997    
 Ni   8.92498016       5.35501003       10.7099895    
 Ni   7.14018011       7.14018011      -9.00000014E-05
 Ni   7.14018011       8.92481995       1.78508997    
 Ni   8.92481995       7.14018011       1.78508997    
 Ni   8.92481995       8.92481995      -9.00000014E-05
 Ni   7.14001989       7.14001989       3.57005000    
 Ni   7.14001989       8.92498016       5.35502005    
 Ni   8.92498016       7.14001989       5.35502005    
 Ni   8.92498016       8.92498016       3.57005000    
 Ni   7.14001989       7.14001989       7.14001989    
 Ni   7.14001989       8.92498016       8.92498016    
 Ni   8.92498016       7.14001989       8.92498016    
 Ni   8.92498016       8.92498016       7.14001989    
 Ni   7.14001989       7.14001989       10.7099800    
 Ni   7.14001989       8.92498016       12.4949503    
 Ni   8.92498016       7.14001989       12.4949503    
 Ni   8.92498016       8.92498016       10.7099800    
 Ni   7.14002991       10.7099504       3.99999990E-05
 Ni   7.14008999       12.4948997       1.78501999    
 Ni   8.92496967       10.7099504       1.78496003    
 Ni   8.92490959       12.4948997      -1.99999995E-05
 Ni   7.13999987       10.7100201       3.56996989    
 Ni   7.13999987       12.4950304       5.35497999    
 Ni   8.92498016       10.7099895       5.35501003    
 Ni   8.92488956       12.4948997       3.57010007    
 Ni   7.14001989       10.7099800       7.14001989    
 Ni   7.14001989       12.4949503       8.92498016    
 Ni   8.92498016       10.7099800       8.92498016    
 Ni   8.92498016       12.4949503       7.14001989    
 Ni   7.14001989       10.7099895       10.7099895    
 Ni   7.14011002       12.4948997       12.4948997    
 Ni   8.92500019       10.7100201       12.4950304    
 Ni   8.92500019       12.4950304       10.7100201    
 Ni   10.7101097       3.99999990E-05   3.99999990E-05
 Ni   10.7101097       1.78496003       1.78496003    
 Ni   12.4873199      -3.37999989E-03   1.78838003    
 Ni   12.4873199       1.78838003      -3.37999989E-03
 Ni   10.7099895       1.59999996E-04   3.57017994    
 Ni   10.7093296       1.78504002       5.35566998    
 Ni   12.4948196       1.59999996E-04   5.35501003    
 Ni   12.4935799       1.78566003       3.57141995    
 Ni   10.7099504       3.99999990E-05   7.14002991    
 Ni   10.7099504       1.78496003       8.92496967    
 Ni   12.4948997      -1.99999995E-05   8.92490959    
 Ni   12.4948997       1.78501999       7.14008999    
 Ni   10.7093296      -3.99999990E-05   10.7093296    
 Ni   10.7099895       1.78483999       12.4948196    
 Ni   12.4935799      -6.60000020E-04   12.4935799    
 Ni   12.4948196       1.78483999       10.7099895    
 Ni   10.7099895       3.57017994       1.59999996E-04
 Ni   10.7093296       5.35566998       1.78504002    
 Ni   12.4935799       3.57141995       1.78566003    
 Ni   12.4948196       5.35501003       1.59999996E-04
 Ni   10.7102604       3.56982994       3.56982994    
 Ni   10.7100201       5.35497999       5.35497999    
 Ni   12.4951696       3.56982994       5.35474014    
 Ni   12.4951696       5.35474014       3.56982994    
 Ni   10.7100201       3.56996989       7.13999987    
 Ni   10.7099895       5.35501003       8.92498016    
 Ni   12.4948997       3.57010007       8.92488956    
 Ni   12.4950304       5.35497999       7.13999987    
 Ni   10.7100296       3.57002997       10.7100296    
 Ni   10.7100296       5.35496998       12.4949703    
 Ni   12.4955196       3.56947994       12.4955196    
 Ni   12.4949703       5.35496998       10.7100296    
 Ni   10.7099504       7.14002991       3.99999990E-05
 Ni   10.7099504       8.92496967       1.78496003    
 Ni   12.4948997       7.14008999       1.78501999    
 Ni   12.4948997       8.92490959      -1.99999995E-05
 Ni   10.7100201       7.13999987       3.56996989    
 Ni   10.7099895       8.92498016       5.35501003    
 Ni   12.4950304       7.13999987       5.35497999    
 Ni   12.4948997       8.92488956       3.57010007    
 Ni   10.7099800       7.14001989       7.14001989    
 Ni   10.7099800       8.92498016       8.92498016    
 Ni   12.4949503       7.14001989       8.92498016    
 Ni   12.4949503       8.92498016       7.14001989    
 Ni   10.7099895       7.14001989       10.7099895    
 Ni   10.7100201       8.92500019       12.4950304    
 Ni   12.4948997       7.14011002       12.4948997    
 Ni   12.4950304       8.92500019       10.7100201    
 Ni   10.7093296       10.7093296      -3.99999990E-05
 Ni   10.7099895       12.4948196       1.78483999    
 Ni   12.4948196       10.7099895       1.78483999    
 Ni   12.4935799       12.4935799      -6.60000020E-04
 Ni   10.7100296       10.7100296       3.57002997    
 Ni   10.7100296       12.4949703       5.35496998    
 Ni   12.4949703       10.7100296       5.35496998    
 Ni   12.4955196       12.4955196       3.56947994    
 Ni   10.7099895       10.7099895       7.14001989    
 Ni   10.7100201       12.4950304       8.92500019    
 Ni   12.4950304       10.7100201       8.92500019    
 Ni   12.4948997       12.4948997       7.14011002    
 Ni   10.7100201       10.7100201       10.7100201    
 Ni   10.7102604       12.4951696       12.4951696    
 Ni   12.4951696       10.7102604       12.4951696    
 Ni   12.4951696       12.4951696       10.7102604    
 N   0.892499983      0.892499983      0.892499983    
         265
 Energy:  -1362.9590272000000     
 X   0.00000000       0.00000000       0.00000000    
 X   14.2799997       0.00000000       0.00000000    
 X   0.00000000       14.2799997       0.00000000    
 X   0.00000000       0.00000000       14.2799997    
 X   14.2799997       14.2799997       0.00000000    
 X   14.2799997       0.00000000       14.2799997    
 X   0.00000000       14.2799997       14.2799997    
 X   14.2799997       14.2799997       14.2799997    
 Ni -0.102569997     -0.102569997     -0.102569997    
 Ni -0.102569997       1.88757002       1.88757002    
 Ni   1.88757002     -0.102569997       1.88757002    
 Ni   1.88757002       1.88757002     -0.102569997    
 Ni  -3.94000020E-03  -3.94000020E-03   3.57894993    