NiAl                                    
           1
    14.280000    0.000000    0.000000
     0.000000   14.280000    0.000000
     0.000000    0.000000   14.280000
   Ni   Al
 256   1
Direct configuration=     1
   0.00000000  0.00000000  0.00000000
   0.00000000  0.12500000  0.12500000
   0.12500000  0.00000000  0.12500000
   0.12500000  0.12500000  0.00000000
   0.00000000  0.00000000  0.25000000
   0.00000000  0.12500000  0.37500000
   0.12500000  0.00000000  0.37500000
   0.12500000  0.12500000  0.25000000
   0.00000000  0.00000000  0.50000000
   0.00000000  0.12500000  0.62500000
   0.12500000  0.00000000  0.62500000
   0.12500000  0.12500000  0.50000000
   0.00000000  0.00000000  0.75000000
   0.00000000  0.12500000  0.87500000
   0.12500000  0.00000000  0.87500000
   0.12500000  0.12500000  0.75000000
   0.00000000  0.25000000  0.00000000
   0.00000000  0.37500000  0.12500000
   0.12500000  0.25000000  0.12500000
   0.12500000  0.37500000  0.00000000
   0.00000000  0.25000000  0.25000000
   0.00000000  0.37500000  0.37500000
   0.12500000  0.25000000  0.37500000
   0.12500000  0.37500000  0.25000000
   0.00000000  0.25000000  0.50000000
   0.00000000  0.37500000  0.62500000
   0.12500000  0.25000000  0.62500000
   0.12500000  0.37500000  0.50000000
   0.00000000  0.25000000  0.75000000
   0.00000000  0.37500000  0.87500000
   0.12500000  0.25000000  0.87500000
   0.12500000  0.37500000  0.75000000
   0.00000000  0.50000000  0.00000000
   0.00000000  0.62500000  0.12500000
   0.12500000  0.50000000  0.12500000
   0.12500000  0.62500000  0.00000000
   0.00000000  0.50000000  0.25000000
   0.00000000  0.62500000  0.37500000
   0.12500000  0.50000000  0.37500000
   0.12500000  0.62500000  0.25000000
   0.00000000  0.50000000  0.50000000
   0.00000000  0.62500000  0.62500000
   0.12500000  0.50000000  0.62500000
   0.12500000  0.62500000  0.50000000
   0.00000000  0.50000000  0.75000000
   0.00000000  0.62500000  0.87500000
   0.12500000  0.50000000  0.87500000
   0.12500000  0.62500000  0.75000000
   0.00000000  0.75000000  0.00000000
   0.00000000  0.87500000  0.12500000
   0.12500000  0.75000000  0.12500000
   0.12500000  0.87500000  0.00000000
   0.00000000  0.75000000  0.25000000
   0.00000000  0.87500000  0.37500000
   0.12500000  0.75000000  0.37500000
   0.12500000  0.87500000  0.25000000
   0.00000000  0.75000000  0.50000000
   0.00000000  0.87500000  0.62500000
   0.12500000  0.75000000  0.62500000
   0.12500000  0.87500000  0.50000000
   0.00000000  0.75000000  0.75000000
   0.00000000  0.87500000  0.87500000
   0.12500000  0.75000000  0.87500000
   0.12500000  0.87500000  0.75000000
   0.25000000  0.00000000  0.00000000
   0.25000000  0.12500000  0.12500000
   0.37500000  0.00000000  0.12500000
   0.37500000  0.12500000  0.00000000
   0.25000000  0.00000000  0.25000000
   0.25000000  0.12500000  0.37500000
   0.37500000  0.00000000  0.37500000
   0.37500000  0.12500000  0.25000000
   0.25000000  0.00000000  0.50000000
   0.25000000  0.12500000  0.62500000
   0.37500000  0.00000000  0.62500000
   0.37500000  0.12500000  0.50000000
   0.25000000  0.00000000  0.75000000
   0.25000000  0.12500000  0.87500000
   0.37500000  0.00000000  0.87500000
   0.37500000  0.12500000  0.75000000
   0.25000000  0.25000000  0.00000000
   0.25000000  0.37500000  0.12500000
   0.37500000  0.25000000  0.12500000
   0.37500000  0.37500000  0.00000000
   0.25000000  0.25000000  0.25000000
   0.25000000  0.37500000  0.37500000
   0.37500000  0.25000000  0.37500000
   0.37500000  0.37500000  0.25000000
   0.25000000  0.25000000  0.50000000
   0.25000000  0.37500000  0.62500000
   0.37500000  0.25000000  0.62500000
   0.37500000  0.37500000  0.50000000
   0.25000000  0.25000000  0.75000000
   0.25000000  0.37500000  0.87500000
   0.37500000  0.25000000  0.87500000
   0.37500000  0.37500000  0.75000000
   0.25000000  0.50000000  0.00000000
   0.25000000  0.62500000  0.12500000
   0.37500000  0.50000000  0.12500000
   0.37500000  0.62500000  0.00000000
   0.25000000  0.50000000  0.25000000
   0.25000000  0.62500000  0.37500000
   0.37500000  0.50000000  0.37500000
   0.37500000  0.62500000  0.25000000
   0.25000000  0.50000000  0.50000000
   0.25000000  0.62500000  0.62500000
   0.37500000  0.50000000  0.62500000
   0.37500000  0.62500000  0.50000000
   0.25000000  0.50000000  0.75000000
   0.25000000  0.62500000  0.87500000
   0.37500000  0.50000000  0.87500000
   0.37500000  0.62500000  0.75000000
   0.25000000  0.75000000  0.00000000
   0.25000000  0.87500000  0.12500000
   0.37500000  0.75000000  0.12500000
   0.37500000  0.87500000  0.00000000
   0.25000000  0.75000000  0.25000000
   0.25000000  0.87500000  0.37500000
   0.37500000  0.75000000  0.37500000
   0.37500000  0.87500000  0.25000000
   0.25000000  0.75000000  0.50000000
   0.25000000  0.87500000  0.62500000
   0.37500000  0.75000000  0.62500000
   0.37500000  0.87500000  0.50000000
   0.25000000  0.75000000  0.75000000
   0.25000000  0.87500000  0.87500000
   0.37500000  0.75000000  0.87500000
   0.37500000  0.87500000  0.75000000
   0.50000000  0.00000000  0.00000000
   0.50000000  0.12500000  0.12500000
   0.62500000  0.00000000  0.12500000
   0.62500000  0.12500000  0.00000000
   0.50000000  0.00000000  0.25000000
   0.50000000  0.12500000  0.37500000
   0.62500000  0.00000000  0.37500000
   0.62500000  0.12500000  0.25000000
   0.50000000  0.00000000  0.50000000
   0.50000000  0.12500000  0.62500000
   0.62500000  0.00000000  0.62500000
   0.62500000  0.12500000  0.50000000
   0.50000000  0.00000000  0.75000000
   0.50000000  0.12500000  0.87500000
   0.62500000  0.00000000  0.87500000
   0.62500000  0.12500000  0.75000000
   0.50000000  0.25000000  0.00000000
   0.50000000  0.37500000  0.12500000
   0.62500000  0.25000000  0.12500000
   0.62500000  0.37500000  0.00000000
   0.50000000  0.25000000  0.25000000
   0.50000000  0.37500000  0.37500000
   0.62500000  0.25000000  0.37500000
   0.62500000  0.37500000  0.25000000
   0.50000000  0.25000000  0.50000000
   0.50000000  0.37500000  0.62500000
   0.62500000  0.25000000  0.62500000
   0.62500000  0.37500000  0.50000000
   0.50000000  0.25000000  0.75000000
   0.50000000  0.37500000  0.87500000
   0.62500000  0.25000000  0.87500000
   0.62500000  0.37500000  0.75000000
   0.50000000  0.50000000  0.00000000
   0.50000000  0.62500000  0.12500000
   0.62500000  0.50000000  0.12500000
   0.62500000  0.62500000  0.00000000
   0.50000000  0.50000000  0.25000000
   0.50000000  0.62500000  0.37500000
   0.62500000  0.50000000  0.37500000
   0.62500000  0.62500000  0.25000000
   0.50000000  0.50000000  0.50000000
   0.50000000  0.62500000  0.62500000
   0.62500000  0.50000000  0.62500000
   0.62500000  0.62500000  0.50000000
   0.50000000  0.50000000  0.75000000
   0.50000000  0.62500000  0.87500000
   0.62500000  0.50000000  0.87500000
   0.62500000  0.62500000  0.75000000
   0.50000000  0.75000000  0.00000000
   0.50000000  0.87500000  0.12500000
   0.62500000  0.75000000  0.12500000
   0.62500000  0.87500000  0.00000000
   0.50000000  0.75000000  0.25000000
   0.50000000  0.87500000  0.37500000
   0.62500000  0.75000000  0.37500000
   0.62500000  0.87500000  0.25000000
   0.50000000  0.75000000  0.50000000
   0.50000000  0.87500000  0.62500000
   0.62500000  0.75000000  0.62500000
   0.62500000  0.87500000  0.50000000
   0.50000000  0.75000000  0.75000000
   0.50000000  0.87500000  0.87500000
   0.62500000  0.75000000  0.87500000
   0.62500000  0.87500000  0.75000000
   0.75000000  0.00000000  0.00000000
   0.75000000  0.12500000  0.12500000
   0.87500000  0.00000000  0.12500000
   0.87500000  0.12500000  0.00000000
   0.75000000  0.00000000  0.25000000
   0.75000000  0.12500000  0.37500000
   0.87500000  0.00000000  0.37500000
   0.87500000  0.12500000  0.25000000
   0.75000000  0.00000000  0.50000000
   0.75000000  0.12500000  0.62500000
   0.87500000  0.00000000  0.62500000
   0.87500000  0.12500000  0.50000000
   0.75000000  0.00000000  0.75000000
   0.75000000  0.12500000  0.87500000
   0.87500000  0.00000000  0.87500000
   0.87500000  0.12500000  0.75000000
   0.75000000  0.25000000  0.00000000
   0.75000000  0.37500000  0.12500000
   0.87500000  0.25000000  0.12500000
   0.87500000  0.37500000  0.00000000
   0.75000000  0.25000000  0.25000000
   0.75000000  0.37500000  0.37500000
   0.87500000  0.25000000  0.37500000
   0.87500000  0.37500000  0.25000000
   0.75000000  0.25000000  0.50000000
   0.75000000  0.37500000  0.62500000
   0.87500000  0.25000000  0.62500000
   0.87500000  0.37500000  0.50000000
   0.75000000  0.25000000  0.75000000
   0.75000000  0.37500000  0.87500000
   0.87500000  0.25000000  0.87500000
   0.87500000  0.37500000  0.75000000
   0.75000000  0.50000000  0.00000000
   0.75000000  0.62500000  0.12500000
   0.87500000  0.50000000  0.12500000
   0.87500000  0.62500000  0.00000000
   0.75000000  0.50000000  0.25000000
   0.75000000  0.62500000  0.37500000
   0.87500000  0.50000000  0.37500000
   0.87500000  0.62500000  0.25000000
   0.75000000  0.50000000  0.50000000
   0.75000000  0.62500000  0.62500000
   0.87500000  0.50000000  0.62500000
   0.87500000  0.62500000  0.50000000
   0.75000000  0.50000000  0.75000000
   0.75000000  0.62500000  0.87500000
   0.87500000  0.50000000  0.87500000
   0.87500000  0.62500000  0.75000000
   0.75000000  0.75000000  0.00000000
   0.75000000  0.87500000  0.12500000
   0.87500000  0.75000000  0.12500000
   0.87500000  0.87500000  0.00000000
   0.75000000  0.75000000  0.25000000
   0.75000000  0.87500000  0.37500000
   0.87500000  0.75000000  0.37500000
   0.87500000  0.87500000  0.25000000
   0.75000000  0.75000000  0.50000000
   0.75000000  0.87500000  0.62500000
   0.87500000  0.75000000  0.62500000
   0.87500000  0.87500000  0.50000000
   0.75000000  0.75000000  0.75000000
   0.75000000  0.87500000  0.87500000
   0.87500000  0.75000000  0.87500000
   0.87500000  0.87500000  0.75000000
   0.06250000  0.06250000  0.06250000
Direct configuration=     2
  -0.00616121 -0.00616121 -0.00616121
  -0.00616121  0.13116121  0.13116121
   0.13116121 -0.00616121  0.13116121
   0.13116121  0.13116121 -0.00616121
  -0.00023675 -0.00023675  0.25053787
   0.00000247  0.12499753  0.37499223
   0.12499753  0.00000247  0.37499223
   0.12523675  0.12523675  0.25053787
  -0.00000772 -0.00000772  0.50000515
  -0.00000772  0.12500772  0.62499485
   0.12500772 -0.00000772  0.62499485
   0.12500772  0.12500772  0.50000515
   0.00000247  0.00000247  0.75000777
  -0.00023675  0.12523675  0.87446213
   0.12523675 -0.00023675  0.87446213
   0.12499753  0.12499753  0.75000777
  -0.00023675  0.25053787 -0.00023675
   0.00000247  0.37499223  0.12499753
   0.12523675  0.25053787  0.12523675
   0.12499753  0.37499223  0.00000247
  -0.00004603  0.25009936  0.25009936
  -0.00000283  0.37504683  0.37504683
   0.12498895  0.25001271  0.37500093
   0.12498895  0.37500093  0.25001271
  -0.00000165  0.25000703  0.50000601
   0.00000283  0.37500332  0.62499819
   0.12500165  0.25000703  0.62499399
   0.12499717  0.37500332  0.50000181
   0.00001105  0.25001271  0.74999907
   0.00001105  0.37500093  0.87498729
   0.12504603  0.25009936  0.87490064
   0.12500283  0.37504683  0.74995317
  -0.00000772  0.50000515 -0.00000772
  -0.00000772  0.62499485  0.12500772
   0.12500772  0.50000515  0.12500772
   0.12500772  0.62499485 -0.00000772
  -0.00000165  0.50000601  0.25000703
   0.00000283  0.62499819  0.37500332
   0.12499717  0.50000181  0.37500332
   0.12500165  0.62499399  0.25000703
  -0.00000634  0.50001258  0.50001258
  -0.00000634  0.62498742  0.62498742
   0.12500634  0.50001258  0.62498742
   0.12500634  0.62498742  0.50001258
   0.00000283  0.50000181  0.74999668
  -0.00000165  0.62499399  0.87499297
   0.12500165  0.50000601  0.87499297
   0.12499717  0.62499819  0.74999668
   0.00000247  0.75000777  0.00000247
  -0.00023675  0.87446213  0.12523675
   0.12499753  0.75000777  0.12499753
   0.12523675  0.87446213 -0.00023675
   0.00001105  0.74999907  0.25001271
   0.00001105  0.87498729  0.37500093
   0.12500283  0.74995317  0.37504683
   0.12504603  0.87490064  0.25009936
   0.00000283  0.74999668  0.50000181
  -0.00000165  0.87499297  0.62499399
   0.12499717  0.74999668  0.62499819
   0.12500165  0.87499297  0.50000601
  -0.00000283  0.74995317  0.74995317
  -0.00004603  0.87490064  0.87490064
   0.12498895  0.74999907  0.87498729
   0.12498895  0.87498729  0.74999907
   0.25053787 -0.00023675 -0.00023675
   0.25053787  0.12523675  0.12523675
   0.37499223  0.00000247  0.12499753
   0.37499223  0.12499753  0.00000247
   0.25009936 -0.00004603  0.25009936
   0.25001271  0.12498895  0.37500093
   0.37504683 -0.00000283  0.37504683
   0.37500093  0.12498895  0.25001271
   0.25000703 -0.00000165  0.50000601
   0.25000703  0.12500165  0.62499399
   0.37500332  0.00000283  0.62499819
   0.37500332  0.12499717  0.50000181
   0.25001271  0.00001105  0.74999907
   0.25009936  0.12504603  0.87490064
   0.37500093  0.00001105  0.87498729
   0.37504683  0.12500283  0.74995317
   0.25009936  0.25009936 -0.00004603
   0.25001271  0.37500093  0.12498895
   0.37500093  0.25001271  0.12498895
   0.37504683  0.37504683 -0.00000283
   0.24996354  0.24996354  0.24996354
   0.25000211  0.37499800  0.37499800
   0.37499800  0.25000211  0.37499800
   0.37499800  0.37499800  0.25000211
   0.25000666  0.25000666  0.50000752
   0.24999771  0.37499867  0.62499993
   0.37499867  0.24999771  0.62499993
   0.37500057  0.37500057  0.50000147
   0.24998806  0.24998806  0.75001852
   0.24998806  0.37498148  0.87501194
   0.37498148  0.24998806  0.87501194
   0.37499867  0.37499867  0.75000133
   0.25000703  0.50000601 -0.00000165
   0.25000703  0.62499399  0.12500165
   0.37500332  0.50000181  0.12499717
   0.37500332  0.62499819  0.00000283
   0.25000666  0.50000752  0.25000666
   0.24999771  0.62499993  0.37499867
   0.37500057  0.50000147  0.37500057
   0.37499867  0.62499993  0.24999771
   0.25000318  0.50000174  0.50000174
   0.25000318  0.62499826  0.62499826
   0.37500135  0.50000122  0.62499878
   0.37500135  0.62499878  0.50000122
   0.24999771  0.50000007  0.75000133
   0.25000666  0.62499248  0.87499334
   0.37499867  0.50000007  0.87500229
   0.37500057  0.62499853  0.74999943
   0.25001271  0.74999907  0.00001105
   0.25009936  0.87490064  0.12504603
   0.37504683  0.74995317  0.12500283
   0.37500093  0.87498729  0.00001105
   0.24998806  0.75001852  0.24998806
   0.24998806  0.87501194  0.37498148
   0.37499867  0.75000133  0.37499867
   0.37498148  0.87501194  0.24998806
   0.24999771  0.75000133  0.50000007
   0.25000666  0.87499334  0.62499248
   0.37500057  0.74999943  0.62499853
   0.37499867  0.87500229  0.50000007
   0.25000211  0.75000200  0.75000200
   0.24996354  0.87503646  0.87503646
   0.37499800  0.75000200  0.87499789
   0.37499800  0.87499789  0.75000200
   0.50000515 -0.00000772 -0.00000772
   0.50000515  0.12500772  0.12500772
   0.62499485 -0.00000772  0.12500772
   0.62499485  0.12500772 -0.00000772
   0.50000601 -0.00000165  0.25000703
   0.50000181  0.12499717  0.37500332
   0.62499819  0.00000283  0.37500332
   0.62499399  0.12500165  0.25000703
   0.50001258 -0.00000634  0.50001258
   0.50001258  0.12500634  0.62498742
   0.62498742 -0.00000634  0.62498742
   0.62498742  0.12500634  0.50001258
   0.50000181  0.00000283  0.74999668
   0.50000601  0.12500165  0.87499297
   0.62499399 -0.00000165  0.87499297
   0.62499819  0.12499717  0.74999668
   0.50000601  0.25000703 -0.00000165
   0.50000181  0.37500332  0.12499717
   0.62499399  0.25000703  0.12500165
   0.62499819  0.37500332  0.00000283
   0.50000752  0.25000666  0.25000666
   0.50000147  0.37500057  0.37500057
   0.62499993  0.24999771  0.37499867
   0.62499993  0.37499867  0.24999771
   0.50000174  0.25000318  0.50000174
   0.50000122  0.37500135  0.62499878
   0.62499826  0.25000318  0.62499826
   0.62499878  0.37500135  0.50000122
   0.50000007  0.24999771  0.75000133
   0.50000007  0.37499867  0.87500229
   0.62499248  0.25000666  0.87499334
   0.62499853  0.37500057  0.74999943
   0.50001258  0.50001258 -0.00000634
   0.50001258  0.62498742  0.12500634
   0.62498742  0.50001258  0.12500634
   0.62498742  0.62498742 -0.00000634
   0.50000174  0.50000174  0.25000318
   0.50000122  0.62499878  0.37500135
   0.62499878  0.50000122  0.37500135
   0.62499826  0.62499826  0.25000318
   0.50000153  0.50000153  0.50000153
   0.50000153  0.62499847  0.62499847
   0.62499847  0.50000153  0.62499847
   0.62499847  0.62499847  0.50000153
   0.50000122  0.50000122  0.74999865
   0.50000174  0.62499826  0.87499682
   0.62499826  0.50000174  0.87499682
   0.62499878  0.62499878  0.74999865
   0.50000181  0.74999668  0.00000283
   0.50000601  0.87499297  0.12500165
   0.62499819  0.74999668  0.12499717
   0.62499399  0.87499297 -0.00000165
   0.50000007  0.75000133  0.24999771
   0.50000007  0.87500229  0.37499867
   0.62499853  0.74999943  0.37500057
   0.62499248  0.87499334  0.25000666
   0.50000122  0.74999865  0.50000122
   0.50000174  0.87499682  0.62499826
   0.62499878  0.74999865  0.62499878
   0.62499826  0.87499682  0.50000174
   0.50000147  0.74999943  0.74999943
   0.50000752  0.87499334  0.87499334
   0.62499993  0.75000133  0.87500229
   0.62499993  0.87500229  0.75000133
   0.75000777  0.00000247  0.00000247
   0.75000777  0.12499753  0.12499753
   0.87446213 -0.00023675  0.12523675
   0.87446213  0.12523675 -0.00023675
   0.74999907  0.00001105  0.25001271
   0.74995317  0.12500283  0.37504683
   0.87498729  0.00001105  0.37500093
   0.87490064  0.12504603  0.25009936
   0.74999668  0.00000283  0.50000181
   0.74999668  0.12499717  0.62499819
   0.87499297 -0.00000165  0.62499399
   0.87499297  0.12500165  0.50000601
   0.74995317 -0.00000283  0.74995317
   0.74999907  0.12498895  0.87498729
   0.87490064 -0.00004603  0.87490064
   0.87498729  0.12498895  0.74999907
   0.74999907  0.25001271  0.00001105
   0.74995317  0.37504683  0.12500283
   0.87490064  0.25009936  0.12504603
   0.87498729  0.37500093  0.00001105
   0.75001852  0.24998806  0.24998806
   0.75000133  0.37499867  0.37499867
   0.87501194  0.24998806  0.37498148
   0.87501194  0.37498148  0.24998806
   0.75000133  0.24999771  0.50000007
   0.74999943  0.37500057  0.62499853
   0.87499334  0.25000666  0.62499248
   0.87500229  0.37499867  0.50000007
   0.75000200  0.25000211  0.75000200
   0.75000200  0.37499800  0.87499789
   0.87503646  0.24996354  0.87503646
   0.87499789  0.37499800  0.75000200
   0.74999668  0.50000181  0.00000283
   0.74999668  0.62499819  0.12499717
   0.87499297  0.50000601  0.12500165
   0.87499297  0.62499399 -0.00000165
   0.75000133  0.50000007  0.24999771
   0.74999943  0.62499853  0.37500057
   0.87500229  0.50000007  0.37499867
   0.87499334  0.62499248  0.25000666
   0.74999865  0.50000122  0.50000122
   0.74999865  0.62499878  0.62499878
   0.87499682  0.50000174  0.62499826
   0.87499682  0.62499826  0.50000174
   0.74999943  0.50000147  0.74999943
   0.75000133  0.62499993  0.87500229
   0.87499334  0.50000752  0.87499334
   0.87500229  0.62499993  0.75000133
   0.74995317  0.74995317 -0.00000283
   0.74999907  0.87498729  0.12498895
   0.87498729  0.74999907  0.12498895
   0.87490064  0.87490064 -0.00004603
   0.75000200  0.75000200  0.25000211
   0.75000200  0.87499789  0.37499800
   0.87499789  0.75000200  0.37499800
   0.87503646  0.87503646  0.24996354
   0.74999943  0.74999943  0.50000147
   0.75000133  0.87500229  0.62499993
   0.87500229  0.75000133  0.62499993
   0.87499334  0.87499334  0.50000752
   0.75000133  0.75000133  0.75000133
   0.75001852  0.87501194  0.87501194
   0.87501194  0.75001852  0.87501194
   0.87501194  0.87501194  0.75001852
   0.06250000  0.06250000  0.06250000
Direct configuration=     3
  -0.00718269 -0.00718269 -0.00718269
  -0.00718269  0.13218269  0.13218269
   0.13218269 -0.00718269  0.13218269
   0.13218269  0.13218269 -0.00718269
  -0.00027600 -0.00027600  0.25062704
   0.00000288  0.12499712  0.37499094
   0.12499712  0.00000288  0.37499094
   0.12527600  0.12527600  0.25062704
  -0.00000900 -0.00000900  0.50000600
  -0.00000900  0.12500900  0.62499400
   0.12500900 -0.00000900  0.62499400
   0.12500900  0.12500900  0.50000600
   0.00000288  0.00000288  0.75000906
  -0.00027600  0.12527600  0.87437296
   0.12527600 -0.00027600  0.87437296
   0.12499712  0.12499712  0.75000906
  -0.00027600  0.25062704 -0.00027600
   0.00000288  0.37499094  0.12499712
   0.12527600  0.25062704  0.12527600
   0.12499712  0.37499094  0.00000288
  -0.00005366  0.25011583  0.25011583
  -0.00000330  0.37505459  0.37505459
   0.12498711  0.25001481  0.37500108
   0.12498711  0.37500108  0.25001481
  -0.00000192  0.25000819  0.50000701
   0.00000330  0.37500387  0.62499789
   0.12500192  0.25000819  0.62499299
   0.12499670  0.37500387  0.50000211
   0.00001289  0.25001481  0.74999892
   0.00001289  0.37500108  0.87498519
   0.12505366  0.25011583  0.87488417
   0.12500330  0.37505459  0.74994541
  -0.00000900  0.50000600 -0.00000900
  -0.00000900  0.62499400  0.12500900
   0.12500900  0.50000600  0.12500900
   0.12500900  0.62499400 -0.00000900
  -0.00000192  0.50000701  0.25000819
   0.00000330  0.62499789  0.37500387
   0.12499670  0.50000211  0.37500387
   0.12500192  0.62499299  0.25000819
  -0.00000739  0.50001466  0.50001466
  -0.00000739  0.62498534  0.62498534
   0.12500739  0.50001466  0.62498534
   0.12500739  0.62498534  0.50001466
   0.00000330  0.50000211  0.74999613
  -0.00000192  0.62499299  0.87499181
   0.12500192  0.50000701  0.87499181
   0.12499670  0.62499789  0.74999613
   0.00000288  0.75000906  0.00000288
  -0.00027600  0.87437296  0.12527600
   0.12499712  0.75000906  0.12499712
   0.12527600  0.87437296 -0.00027600
   0.00001289  0.74999892  0.25001481
   0.00001289  0.87498519  0.37500108
   0.12500330  0.74994541  0.37505459
   0.12505366  0.87488417  0.25011583
   0.00000330  0.74999613  0.50000211
  -0.00000192  0.87499181  0.62499299
   0.12499670  0.74999613  0.62499789
   0.12500192  0.87499181  0.50000701
  -0.00000330  0.74994541  0.74994541
  -0.00005366  0.87488417  0.87488417
   0.12498711  0.74999892  0.87498519
   0.12498711  0.87498519  0.74999892
   0.25062704 -0.00027600 -0.00027600
   0.25062704  0.12527600  0.12527600
   0.37499094  0.00000288  0.12499712
   0.37499094  0.12499712  0.00000288
   0.25011583 -0.00005366  0.25011583
   0.25001481  0.12498711  0.37500108
   0.37505459 -0.00000330  0.37505459
   0.37500108  0.12498711  0.25001481
   0.25000819 -0.00000192  0.50000701
   0.25000819  0.12500192  0.62499299
   0.37500387  0.00000330  0.62499789
   0.37500387  0.12499670  0.50000211
   0.25001481  0.00001289  0.74999892
   0.25011583  0.12505366  0.87488417
   0.37500108  0.00001289  0.87498519
   0.37505459  0.12500330  0.74994541
   0.25011583  0.25011583 -0.00005366
   0.25001481  0.37500108  0.12498711
   0.37500108  0.25001481  0.12498711
   0.37505459  0.37505459 -0.00000330
   0.24995749  0.24995749  0.24995749
   0.25000246  0.37499767  0.37499767
   0.37499767  0.25000246  0.37499767
   0.37499767  0.37499767  0.25000246
   0.25000776  0.25000776  0.50000877
   0.24999733  0.37499845  0.62499992
   0.37499845  0.24999733  0.62499992
   0.37500067  0.37500067  0.50000171
   0.24998609  0.24998609  0.75002159
   0.24998609  0.37497841  0.87501391
   0.37497841  0.24998609  0.87501391
   0.37499844  0.37499844  0.75000156
   0.25000819  0.50000701 -0.00000192
   0.25000819  0.62499299  0.12500192
   0.37500387  0.50000211  0.12499670
   0.37500387  0.62499789  0.00000330
   0.25000776  0.50000877  0.25000776
   0.24999733  0.62499992  0.37499845
   0.37500067  0.50000171  0.37500067
   0.37499845  0.62499992  0.24999733
   0.25000370  0.50000203  0.50000203
   0.25000370  0.62499797  0.62499797
   0.37500158  0.50000142  0.62499858
   0.37500158  0.62499858  0.50000142
   0.24999733  0.50000008  0.75000155
   0.25000776  0.62499123  0.87499224
   0.37499845  0.50000008  0.87500267
   0.37500067  0.62499829  0.74999933
   0.25001481  0.74999892  0.00001289
   0.25011583  0.87488417  0.12505366
   0.37505459  0.74994541  0.12500330
   0.37500108  0.87498519  0.00001289
   0.24998609  0.75002159  0.24998609
   0.24998609  0.87501391  0.37497841
   0.37499844  0.75000156  0.37499844
   0.37497841  0.87501391  0.24998609
   0.24999733  0.75000155  0.50000008
   0.25000776  0.87499224  0.62499123
   0.37500067  0.74999933  0.62499829
   0.37499845  0.87500267  0.50000008
   0.25000246  0.75000233  0.75000233
   0.24995749  0.87504251  0.87504251
   0.37499767  0.75000233  0.87499754
   0.37499767  0.87499754  0.75000233
   0.50000600 -0.00000900 -0.00000900
   0.50000600  0.12500900  0.12500900
   0.62499400 -0.00000900  0.12500900
   0.62499400  0.12500900 -0.00000900
   0.50000701 -0.00000192  0.25000819
   0.50000211  0.12499670  0.37500387
   0.62499789  0.00000330  0.37500387
   0.62499299  0.12500192  0.25000819
   0.50001466 -0.00000739  0.50001466
   0.50001466  0.12500739  0.62498534
   0.62498534 -0.00000739  0.62498534
   0.62498534  0.12500739  0.50001466
   0.50000211  0.00000330  0.74999613
   0.50000701  0.12500192  0.87499181
   0.62499299 -0.00000192  0.87499181
   0.62499789  0.12499670  0.74999613
   0.50000701  0.25000819 -0.00000192
   0.50000211  0.37500387  0.12499670
   0.62499299  0.25000819  0.12500192
   0.62499789  0.37500387  0.00000330
   0.50000877  0.25000776  0.25000776
   0.50000171  0.37500067  0.37500067
   0.62499992  0.24999733  0.37499845
   0.62499992  0.37499845  0.24999733
   0.50000203  0.25000370  0.50000203
   0.50000142  0.37500158  0.62499858
   0.62499797  0.25000370  0.62499797
   0.62499858  0.37500158  0.50000142
   0.50000008  0.24999733  0.75000155
   0.50000008  0.37499845  0.87500267
   0.62499123  0.25000776  0.87499224
   0.62499829  0.37500067  0.74999933
   0.50001466  0.50001466 -0.00000739
   0.50001466  0.62498534  0.12500739
   0.62498534  0.50001466  0.12500739
   0.62498534  0.62498534 -0.00000739
   0.50000203  0.50000203  0.25000370
   0.50000142  0.62499858  0.37500158
   0.62499858  0.50000142  0.37500158
   0.62499797  0.62499797  0.25000370
   0.50000179  0.50000179  0.50000179
   0.50000179  0.62499821  0.62499821
   0.62499821  0.50000179  0.62499821
   0.62499821  0.62499821  0.50000179
   0.50000142  0.50000142  0.74999842
   0.50000203  0.62499797  0.87499630
   0.62499797  0.50000203  0.87499630
   0.62499858  0.62499858  0.74999842
   0.50000211  0.74999613  0.00000330
   0.50000701  0.87499181  0.12500192
   0.62499789  0.74999613  0.12499670
   0.62499299  0.87499181 -0.00000192
   0.50000008  0.75000155  0.24999733
   0.50000008  0.87500267  0.37499845
   0.62499829  0.74999933  0.37500067
   0.62499123  0.87499224  0.25000776
   0.50000142  0.74999842  0.50000142
   0.50000203  0.87499630  0.62499797
   0.62499858  0.74999842  0.62499858
   0.62499797  0.87499630  0.50000203
   0.50000171  0.74999933  0.74999933
   0.50000877  0.87499224  0.87499224
   0.62499992  0.75000155  0.87500267
   0.62499992  0.87500267  0.75000155
   0.75000906  0.00000288  0.00000288
   0.75000906  0.12499712  0.12499712
   0.87437296 -0.00027600  0.12527600
   0.87437296  0.12527600 -0.00027600
   0.74999892  0.00001289  0.25001481
   0.74994541  0.12500330  0.37505459
   0.87498519  0.00001289  0.37500108
   0.87488417  0.12505366  0.25011583
   0.74999613  0.00000330  0.50000211
   0.74999613  0.12499670  0.62499789
   0.87499181 -0.00000192  0.62499299
   0.87499181  0.12500192  0.50000701
   0.74994541 -0.00000330  0.74994541
   0.74999892  0.12498711  0.87498519
   0.87488417 -0.00005366  0.87488417
   0.87498519  0.12498711  0.74999892
   0.74999892  0.25001481  0.00001289
   0.74994541  0.37505459  0.12500330
   0.87488417  0.25011583  0.12505366
   0.87498519  0.37500108  0.00001289
   0.75002159  0.24998609  0.24998609
   0.75000156  0.37499844  0.37499844
   0.87501391  0.24998609  0.37497841
   0.87501391  0.37497841  0.24998609
   0.75000155  0.24999733  0.50000008
   0.74999933  0.37500067  0.62499829
   0.87499224  0.25000776  0.62499123
   0.87500267  0.37499845  0.50000008
   0.75000233  0.25000246  0.75000233
   0.75000233  0.37499767  0.87499754
   0.87504251  0.24995749  0.87504251
   0.87499754  0.37499767  0.75000233
   0.74999613  0.50000211  0.00000330
   0.74999613  0.62499789  0.12499670
   0.87499181  0.50000701  0.12500192
   0.87499181  0.62499299 -0.00000192
   0.75000155  0.50000008  0.24999733
   0.74999933  0.62499829  0.37500067
   0.87500267  0.50000008  0.37499845
   0.87499224  0.62499123  0.25000776
   0.74999842  0.50000142  0.50000142
   0.74999842  0.62499858  0.62499858
   0.87499630  0.50000203  0.62499797
   0.87499630  0.62499797  0.50000203
   0.74999933  0.50000171  0.74999933
   0.75000155  0.62499992  0.87500267
   0.87499224  0.50000877  0.87499224
   0.87500267  0.62499992  0.75000155
   0.74994541  0.74994541 -0.00000330
   0.74999892  0.87498519  0.12498711
   0.87498519  0.74999892  0.12498711
   0.87488417  0.87488417 -0.00005366
   0.75000233  0.75000233  0.25000246
   0.75000233  0.87499754  0.37499767
   0.87499754  0.75000233  0.37499767
   0.87504251  0.87504251  0.24995749
   0.74999933  0.74999933  0.50000171
   0.75000155  0.87500267  0.62499992
   0.87500267  0.75000155  0.62499992
   0.87499224  0.87499224  0.50000877
   0.75000156  0.75000156  0.75000156
   0.75002159  0.87501391  0.87501391
   0.87501391  0.75002159  0.87501391
   0.87501391  0.87501391  0.75002159
   0.06250000  0.06250000  0.06250000
Direct configuration=     4
  -0.00721634 -0.00721634 -0.00721634
  -0.00721634  0.13221634  0.13221634
   0.13221634 -0.00721634  0.13221634
   0.13221634  0.13221634 -0.00721634
  -0.00042495 -0.00042495  0.25091452
  -0.00000367  0.12500367  0.37501019
   0.12500367 -0.00000367  0.37501019
   0.12542495  0.12542495  0.25091452
  -0.00001073 -0.00001073  0.50000949
  -0.00001073  0.12501073  0.62499051