 254 254   0   0
  0.2268316E+02  0.1514622E-08  0.1514622E-08  0.2900000E-08  0.5000000E-15
  1.000000000000000E-004
  CAR 
 NiAl                                    
      5.98018163    -23.00322925  301     -0.59133372      1.00000000
    -23.003  0.0000E+00  0.0000E+00
    -22.907  0.0000E+00  0.0000E+00
    -22.810  0.0000E+00  0.0000E+00
    -22.713  0.0000E+00  0.0000E+00
    -22.617  0.0000E+00  0.0000E+00
    -22.520  0.0000E+00  0.0000E+00
    -22.424  0.0000E+00  0.0000E+00
    -22.327  0.0000E+00  0.0000E+00
    -22.230  0.0000E+00  0.0000E+00
    -22.134  0.0000E+00  0.0000E+00
    -22.037  0.0000E+00  0.0000E+00
    -21.941  0.5964E-11  0.5762E-12
    -21.844  0.7967E-04  0.7697E-05
    -21.747  0.8457E+00  0.8171E-01
    -21.651  0.1653E+02  0.1679E+01
    -21.554  0.3324E+01  0.2000E+01
    -21.457  0.2027E-02  0.2000E+01
    -21.361  0.1106E-08  0.2000E+01
    -21.264  0.0000E+00  0.2000E+01
    -21.168  0.0000E+00  0.2000E+01
    -21.071  0.0000E+00  0.2000E+01
    -20.974  0.0000E+00  0.2000E+01
    -20.878  0.0000E+00  0.2000E+01
    -20.781  0.0000E+00  0.2000E+01
    -20.685  0.0000E+00  0.2000E+01
    -20.588  0.0000E+00  0.2000E+01
    -20.491  0.0000E+00  0.2000E+01
    -20.395  0.0000E+00  0.2000E+01
    -20.298  0.0000E+00  0.2000E+01
    -20.201  0.0000E+00  0.2000E+01
    -20.105  0.0000E+00  0.2000E+01
    -20.008  0.0000E+00  0.2000E+01
    -19.912  0.0000E+00  0.2000E+01
    -19.815  0.0000E+00  0.2000E+01
    -19.718  0.0000E+00  0.2000E+01
    -19.622  0.0000E+00  0.2000E+01
    -19.525  0.0000E+00  0.2000E+01
    -19.429  0.0000E+00  0.2000E+01
    -19.332  0.0000E+00  0.2000E+01
    -19.235  0.0000E+00  0.2000E+01
    -19.139  0.0000E+00  0.2000E+01
    -19.042  0.0000E+00  0.2000E+01
    -18.946  0.0000E+00  0.2000E+01
    -18.849  0.0000E+00  0.2000E+01
    -18.752  0.0000E+00  0.2000E+01
    -18.656  0.0000E+00  0.2000E+01
    -18.559  0.0000E+00  0.2000E+01
    -18.462  0.0000E+00  0.2000E+01
    -18.366  0.0000E+00  0.2000E+01
    -18.269  0.0000E+00  0.2000E+01
    -18.173  0.0000E+00  0.2000E+01
    -18.076  0.0000E+00  0.2000E+01
    -17.979  0.0000E+00  0.2000E+01
    -17.883  0.0000E+00  0.2000E+01
    -17.786  0.0000E+00  0.2000E+01
    -17.690  0.0000E+00  0.2000E+01
    -17.593  0.0000E+00  0.2000E+01
    -17.496  0.0000E+00  0.2000E+01
    -17.400  0.0000E+00  0.2000E+01
    -17.303  0.0000E+00  0.2000E+01
    -17.207  0.0000E+00  0.2000E+01
    -17.110  0.0000E+00  0.2000E+01
    -17.013  0.0000E+00  0.2000E+01
    -16.917  0.0000E+00  0.2000E+01
    -16.820  0.0000E+00  0.2000E+01
    -16.723  0.0000E+00  0.2000E+01
    -16.627  0.0000E+00  0.2000E+01
    -16.530  0.0000E+00  0.2000E+01
    -16.434  0.0000E+00  0.2000E+01
    -16.337  0.0000E+00  0.2000E+01
    -16.240  0.0000E+00  0.2000E+01
    -16.144  0.0000E+00  0.2000E+01
    -16.047  0.0000E+00  0.2000E+01
    -15.951  0.0000E+00  0.2000E+01
    -15.854  0.0000E+00  0.2000E+01
    -15.757  0.0000E+00  0.2000E+01
    -15.661  0.0000E+00  0.2000E+01
    -15.564  0.0000E+00  0.2000E+01
    -15.468  0.0000E+00  0.2000E+01
    -15.371  0.0000E+00  0.2000E+01
    -15.274  0.0000E+00  0.2000E+01
    -15.178  0.0000E+00  0.2000E+01
    -15.081  0.0000E+00  0.2000E+01
    -14.984  0.0000E+00  0.2000E+01
    -14.888  0.0000E+00  0.2000E+01
    -14.791  0.0000E+00  0.2000E+01
    -14.695  0.0000E+00  0.2000E+01
    -14.598  0.0000E+00  0.2000E+01
    -14.501  0.0000E+00  0.2000E+01
    -14.405  0.0000E+00  0.2000E+01
    -14.308  0.0000E+00  0.2000E+01
    -14.212  0.0000E+00  0.2000E+01
    -14.115  0.0000E+00  0.2000E+01
    -14.018  0.0000E+00  0.2000E+01
    -13.922  0.0000E+00  0.2000E+01
    -13.825  0.0000E+00  0.2000E+01
    -13.729  0.0000E+00  0.2000E+01
    -13.632  0.0000E+00  0.2000E+01
    -13.535  0.0000E+00  0.2000E+01
    -13.439  0.0000E+00  0.2000E+01
    -13.342  0.0000E+00  0.2000E+01
    -13.245  0.0000E+00  0.2000E+01
    -13.149  0.0000E+00  0.2000E+01
    -13.052  0.0000E+00  0.2000E+01
    -12.956  0.0000E+00  0.2000E+01
    -12.859  0.0000E+00  0.2000E+01
    -12.762  0.0000E+00  0.2000E+01
    -12.666  0.0000E+00  0.2000E+01
    -12.569  0.0000E+00  0.2000E+01
    -12.473  0.0000E+00  0.2000E+01
    -12.376  0.0000E+00  0.2000E+01
    -12.279  0.0000E+00  0.2000E+01
    -12.183  0.0000E+00  0.2000E+01
    -12.086  0.0000E+00  0.2000E+01
    -11.990  0.0000E+00  0.2000E+01
    -11.893  0.0000E+00  0.2000E+01
    -11.796  0.0000E+00  0.2000E+01
    -11.700  0.0000E+00  0.2000E+01
    -11.603  0.0000E+00  0.2000E+01
    -11.506  0.0000E+00  0.2000E+01
    -11.410  0.0000E+00  0.2000E+01
    -11.313  0.0000E+00  0.2000E+01
    -11.217  0.0000E+00  0.2000E+01
    -11.120  0.0000E+00  0.2000E+01
    -11.023  0.3447E-14  0.2000E+01
    -10.927  0.6277E-06  0.2000E+01
    -10.830  0.7523E-01  0.2007E+01
    -10.734  0.1067E+02  0.3039E+01
    -10.637  0.9896E+01  0.3995E+01
    -10.540  0.5612E-01  0.4000E+01
    -10.444  0.3643E-06  0.4000E+01
    -10.347  0.5746E-15  0.4000E+01
    -10.251  0.0000E+00  0.4000E+01
    -10.154  0.0000E+00  0.4000E+01
    -10.057  0.0000E+00  0.4000E+01
     -9.961  0.0000E+00  0.4000E+01
     -9.864  0.0000E+00  0.4000E+01
     -9.767  0.0000E+00  0.4000E+01
     -9.671  0.0000E+00  0.4000E+01
     -9.574  0.0000E+00  0.4000E+01
     -9.478  0.0000E+00  0.4000E+01
     -9.381  0.0000E+00  0.4000E+01
     -9.284  0.1255E-07  0.4000E+01
     -9.188  0.4686E-02  0.4000E+01
     -9.091  0.1803E+01  0.4175E+01
     -8.995  0.3319E+01  0.4495E+01
     -8.898  0.2246E+01  0.4712E+01
     -8.801  0.2563E+02  0.7188E+01
     -8.705  0.3223E+01  0.7500E+01
     -8.608  0.3410E+00  0.7533E+01
     -8.512  0.4276E+01  0.7946E+01
     -8.415  0.9132E+01  0.8828E+01
     -8.318  0.4093E+02  0.1278E+02
     -8.222  0.1507E+02  0.1424E+02
     -8.125  0.2561E+02  0.1671E+02
     -8.028  0.2987E+01  0.1700E+02
     -7.932  0.4899E+01  0.1747E+02
     -7.835  0.2558E+02  0.1995E+02
     -7.739  0.6799E+01  0.2060E+02
     -7.642  0.3057E+02  0.2356E+02
     -7.545  0.3414E+02  0.2685E+02
     -7.449  0.5644E+02  0.3231E+02
     -7.352  0.7040E+01  0.3299E+02
     -7.256  0.1518E+02  0.3445E+02
     -7.159  0.6062E+01  0.3504E+02
     -7.062  0.5826E+02  0.4067E+02
     -6.966  0.5010E+02  0.4551E+02
     -6.869  0.2650E+02  0.4807E+02
     -6.773  0.1297E+02  0.4932E+02
     -6.676  0.1634E+02  0.5090E+02
     -6.579  0.2761E+02  0.5357E+02
     -6.483  0.4940E+02  0.5834E+02
     -6.386  0.4738E+02  0.6292E+02
     -6.289  0.7298E+02  0.6997E+02
     -6.193  0.3134E+02  0.7300E+02
     -6.096  0.2958E+02  0.7585E+02
     -6.000  0.5205E+02  0.8088E+02
     -5.903  0.1051E+03  0.9103E+02
     -5.806  0.3708E+02  0.9462E+02
     -5.710  0.1420E+02  0.9599E+02
     -5.613  0.9392E+01  0.9689E+02
     -5.517  0.3581E+02  0.1004E+03
     -5.420  0.9336E+02  0.1094E+03
     -5.323  0.1403E+03  0.1229E+03
     -5.227  0.5347E+02  0.1281E+03
     -5.130  0.7893E+02  0.1357E+03
     -5.034  0.1179E+03  0.1471E+03
     -4.937  0.9407E+02  0.1562E+03
     -4.840  0.4096E+02  0.1602E+03
     -4.744  0.1907E+03  0.1786E+03
     -4.647  0.2358E+03  0.2014E+03
     -4.550  0.1864E+03  0.2194E+03
     -4.454  0.2319E+03  0.2418E+03
     -4.357  0.3002E+03  0.2708E+03
     -4.261  0.2579E+03  0.2957E+03
     -4.164  0.2842E+03  0.3232E+03
     -4.067  0.2364E+03  0.3460E+03
     -3.971  0.4351E+03  0.3880E+03
     -3.874  0.5158E+03  0.4379E+03
     -3.778  0.4559E+03  0.4819E+03
     -3.681  0.4730E+03  0.5276E+03
     -3.584  0.4566E+03  0.5717E+03
     -3.488  0.3805E+03  0.6085E+03
     -3.391  0.3707E+03  0.6443E+03
     -3.295  0.3438E+03  0.6775E+03
     -3.198  0.4992E+03  0.7257E+03
     -3.101  0.5258E+03  0.7765E+03
     -3.005  0.3393E+03  0.8093E+03
     -2.908  0.5721E+03  0.8646E+03
     -2.811  0.5387E+03  0.9166E+03
     -2.715  0.4951E+03  0.9645E+03
     -2.618  0.5454E+03  0.1017E+04
     -2.522  0.6469E+03  0.1080E+04
     -2.425  0.7100E+03  0.1148E+04
     -2.328  0.8166E+03  0.1227E+04
     -2.232  0.9385E+03  0.1318E+04
     -2.135  0.7816E+03  0.1393E+04
     -2.039  0.8923E+03  0.1480E+04
     -1.942  0.7698E+03  0.1554E+04
     -1.845  0.5502E+03  0.1607E+04
     -1.749  0.6143E+03  0.1666E+04
     -1.652  0.5250E+03  0.1717E+04
     -1.556  0.5562E+03  0.1771E+04
     -1.459  0.7408E+03  0.1842E+04
     -1.362  0.7926E+03  0.1919E+04
     -1.266  0.5235E+03  0.1970E+04
     -1.169  0.5835E+03  0.2026E+04
     -1.072  0.7700E+03  0.2100E+04
     -0.976  0.8554E+03  0.2183E+04
     -0.879  0.7156E+03  0.2252E+04
     -0.783  0.6789E+03  0.2318E+04
     -0.686  0.9882E+03  0.2413E+04
     -0.589  0.1231E+04  0.2532E+04
     -0.493  0.8123E+03  0.2611E+04
     -0.396  0.4068E+03  0.2650E+04
     -0.300  0.1754E+03  0.2667E+04
     -0.203  0.1198E+03  0.2678E+04
     -0.106  0.1675E+03  0.2695E+04
     -0.010  0.1540E+03  0.2710E+04
      0.087  0.6282E+02  0.2716E+04
      0.183  0.5364E+02  0.2721E+04
      0.280  0.3955E+02  0.2725E+04
      0.377  0.6112E+02  0.2730E+04
      0.473  0.1218E+03  0.2742E+04
      0.570  0.9480E+02  0.2751E+04
      0.667  0.8413E+02  0.2760E+04
      0.763  0.8132E+02  0.2767E+04
      0.860  0.1101E+03  0.2778E+04
      0.956  0.1358E+03  0.2791E+04
      1.053  0.9439E+02  0.2800E+04
      1.150  0.2680E+02  0.2803E+04
      1.246  0.4309E+02  0.2807E+04
      1.343  0.1301E+03  0.2820E+04
      1.439  0.4812E+02  0.2824E+04
      1.536  0.3330E+02  0.2827E+04
      1.633  0.1058E+03  0.2838E+04
      1.729  0.8935E+02  0.2846E+04
      1.826  0.8252E+02  0.2854E+04
      1.923  0.8999E+02  0.2863E+04
      2.019  0.8328E+02  0.2871E+04
      2.116  0.4529E+02  0.2875E+04
      2.212  0.8371E+02  0.2883E+04
      2.309  0.1033E+03  0.2893E+04
      2.406  0.9332E+02  0.2902E+04
      2.502  0.3413E+02  0.2906E+04
      2.599  0.6834E+02  0.2912E+04
      2.695  0.4285E+02  0.2917E+04
      2.792  0.1162E+02  0.2918E+04
      2.889  0.3721E+02  0.2921E+04
      2.985  0.7376E+02  0.2928E+04
      3.082  0.2097E+03  0.2949E+04
      3.178  0.1310E+03  0.2961E+04
      3.275  0.3814E+02  0.2965E+04
      3.372  0.2999E+02  0.2968E+04
      3.468  0.6264E+02  0.2974E+04
      3.565  0.8534E+02  0.2982E+04
      3.662  0.2518E+02  0.2985E+04
      3.758  0.7958E+02  0.2992E+04
      3.855  0.2531E+02  0.2995E+04
      3.951  0.3011E+02  0.2998E+04
      4.048  0.1437E+02  0.2999E+04
      4.145  0.5651E+02  0.3004E+04
      4.241  0.6664E+02  0.3011E+04
      4.338  0.3360E+02  0.3014E+04
      4.434  0.9451E+02  0.3023E+04
      4.531  0.6172E+02  0.3029E+04
      4.628  0.3728E+02  0.3033E+04
      4.724  0.3199E+02  0.3036E+04
      4.821  0.5558E+00  0.3036E+04
      4.917  0.3738E-04  0.3036E+04
      5.014  0.2539E-11  0.3036E+04
      5.111  0.0000E+00  0.3036E+04
      5.207  0.0000E+00  0.3036E+04
      5.304  0.0000E+00  0.3036E+04
      5.401  0.0000E+00  0.3036E+04
      5.497  0.0000E+00  0.3036E+04
      5.594  0.0000E+00  0.3036E+04
      5.690  0.0000E+00  0.3036E+04
      5.787  0.0000E+00  0.3036E+04
      5.884  0.0000E+00  0.3036E+04
      5.980  0.0000E+00  0.3036E+04
