  254  254    1    1
  0.2268316E+02  0.1514622E-08  0.1514622E-08  0.2900000E-08  0.5000000E-15
  1.000000000000000E-004
  CAR 
 NiAl                                    
   2530      4   1518
 
  0.0000000E+00  0.0000000E+00  0.0000000E+00  0.2500000E+00
    1      -21.685717   1.000000
    2      -10.735177   1.000000
    3       -9.077507   1.000000
    4       -8.554798   1.000000
    5       -8.183162   1.000000
    6       -8.169931   1.000000
    7       -8.169741   1.000000
    8       -8.169322   1.000000
    9       -8.169069   1.000000
   10       -8.168731   1.000000
   11       -7.815613   1.000000
   12       -7.697457   1.000000
   13       -7.666545   1.000000
   14       -7.663936   1.000000
   15       -7.663707   1.000000
   16       -7.663559   1.000000
   17       -7.662286   1.000000
   18       -7.339244   1.000000
   19       -6.895621   1.000000
   20       -6.878342   1.000000
   21       -6.878153   1.000000
   22       -6.878038   1.000000
   23       -6.876147   1.000000
   24       -6.784252   1.000000
   25       -6.632190   1.000000
   26       -6.560672   1.000000
   27       -6.534084   1.000000
   28       -6.533743   1.000000
   29       -6.533634   1.000000
   30       -6.533521   1.000000
   31       -6.525639   1.000000
   32       -6.487092   1.000000
   33       -6.115588   1.000000
   34       -6.113715   1.000000
   35       -6.113540   1.000000
   36       -6.112963   1.000000
   37       -6.104668   1.000000
   38       -6.102619   1.000000
   39       -5.919501   1.000000
   40       -5.912899   1.000000
   41       -5.912835   1.000000
   42       -5.912706   1.000000
   43       -5.912686   1.000000
   44       -5.912600   1.000000
   45       -5.912503   1.000000
   46       -5.912370   1.000000
   47       -5.912339   1.000000
   48       -5.909967   1.000000
   49       -5.895312   1.000000
   50       -5.865093   1.000000
   51       -5.779069   1.000000
   52       -5.640598   1.000000
   53       -5.581467   1.000000
   54       -5.581267   1.000000
   55       -5.581169   1.000000
   56       -5.577019   1.000000
   57       -5.576901   1.000000
   58       -5.576474   1.000000
   59       -5.486750   1.000000
   60       -5.486402   1.000000
   61       -5.485736   1.000000
   62       -5.482834   1.000000
   63       -5.477070   1.000000
   64       -5.464466   1.000000
   65       -5.133914   1.000000
   66       -5.133833   1.000000
   67       -5.133592   1.000000
   68       -5.132160   1.000000
   69       -5.129412   1.000000
   70       -5.128613   1.000000
   71       -5.044322   1.000000
   72       -4.976596   1.000000
   73       -4.976370   1.000000
   74       -4.975977   1.000000
   75       -4.974899   1.000000
   76       -4.971398   1.000000
   77       -4.914732   1.000000
   78       -4.870198   1.000000
   79       -4.803926   1.000000
   80       -4.803704   1.000000
   81       -4.803640   1.000000
   82       -4.764983   1.000000
   83       -4.764380   1.000000
   84       -4.763949   1.000000
   85       -4.763271   1.000000
   86       -4.758323   1.000000
   87       -4.742222   1.000000
   88       -4.681645   1.000000
   89       -4.681312   1.000000
   90       -4.681130   1.000000
   91       -4.679824   1.000000
   92       -4.676454   1.000000
   93       -4.672426   1.000000
   94       -4.663068   1.000000
   95       -4.662983   1.000000
   96       -4.662519   1.000000
   97       -4.570510   1.000000
   98       -4.570383   1.000000
   99       -4.570287   1.000000
  100       -4.570233   1.000000
  101       -4.570110   1.000000
  102       -4.569974   1.000000
  103       -4.569873   1.000000
  104       -4.569696   1.000000
  105       -4.569534   1.000000
  106       -4.569482   1.000000
  107       -4.569360   1.000000
  108       -4.569330   1.000000
  109       -4.528356   1.000000
  110       -4.527821   1.000000
  111       -4.527589   1.000000
  112       -4.458163   1.000000
  113       -4.457806   1.000000
  114       -4.457741   1.000000
  115       -4.422948   1.000000
  116       -4.422606   1.000000
  117       -4.422438   1.000000
  118       -4.422174   1.000000
  119       -4.421733   1.000000
  120       -4.389824   1.000000
  121       -4.367429   1.000000
  122       -4.366927   1.000000
  123       -4.366629   1.000000
  124       -4.366567   1.000000
  125       -4.366472   1.000000
  126       -4.366406   1.000000
  127       -4.366337   1.000000
  128       -4.366261   1.000000
  129       -4.366016   1.000000
  130       -4.365890   1.000000
  131       -4.365809   1.000000
  132       -4.365761   1.000000
  133       -4.356565   1.000000
  134       -4.356439   1.000000
  135       -4.356202   1.000000
  136       -4.356114   1.000000
  137       -4.355994   1.000000
  138       -4.355718   1.000000
  139       -4.355663   1.000000
  140       -4.355510   1.000000
  141       -4.355349   1.000000
  142       -4.355159   1.000000
  143       -4.354987   1.000000
  144       -4.354702   1.000000
  145       -4.309804   1.000000
  146       -4.309612   1.000000
  147       -4.309400   1.000000
  148       -4.308956   1.000000
  149       -4.308767   1.000000
  150       -4.295427   1.000000
  151       -4.275028   1.000000
  152       -4.273842   1.000000
  153       -4.273473   1.000000
  154       -4.273021   1.000000
  155       -4.270523   1.000000
  156       -4.260795   1.000000
  157       -4.252832   1.000000
  158       -4.252798   1.000000
  159       -4.250197   1.000000
  160       -4.216381   1.000000
  161       -4.216343   1.000000
  162       -4.215990   1.000000
  163       -4.215275   1.000000
  164       -4.215083   1.000000
  165       -4.214676   1.000000
  166       -4.214496   1.000000
  167       -4.214358   1.000000
  168       -4.214275   1.000000
  169       -4.214033   1.000000
  170       -4.213456   1.000000
  171       -4.213022   1.000000
  172       -4.151938   1.000000
  173       -4.151902   1.000000
  174       -4.151739   1.000000
  175       -4.123657   1.000000
  176       -4.123170   1.000000
  177       -4.123079   1.000000
  178       -4.122618   1.000000
  179       -4.120253   1.000000
  180       -4.106811   1.000000
  181       -4.050722   1.000000
  182       -4.043572   1.000000
  183       -4.043497   1.000000
  184       -4.020356   1.000000
  185       -4.018891   1.000000
  186       -4.017926   1.000000
  187       -4.017384   1.000000
  188       -4.017315   1.000000
  189       -4.017271   1.000000
  190       -4.016559   1.000000
  191       -4.016549   1.000000
  192       -4.016461   1.000000
  193       -4.016363   1.000000
  194       -4.015107   1.000000
  195       -4.013656   1.000000
  196       -3.983032   1.000000
  197       -3.982714   1.000000
  198       -3.982441   1.000000
  199       -3.926110   1.000000
  200       -3.920279   1.000000
  201       -3.920119   1.000000
  202       -3.918203   1.000000
  203       -3.918008   1.000000
  204       -3.917765   1.000000
  205       -3.917462   1.000000
  206       -3.915705   1.000000
  207       -3.911663   1.000000
  208       -3.873021   1.000000
  209       -3.873002   1.000000
  210       -3.872767   1.000000
  211       -3.872580   1.000000
  212       -3.872322   1.000000
  213       -3.872167   1.000000
  214       -3.871938   1.000000
  215       -3.871678   1.000000
  216       -3.871609   1.000000
  217       -3.871439   1.000000
  218       -3.871400   1.000000
  219       -3.871362   1.000000
  220       -3.862303   1.000000
  221       -3.861308   1.000000
  222       -3.861085   1.000000
  223       -3.860570   1.000000
  224       -3.860520   1.000000
  225       -3.858311   1.000000
  226       -3.783105   1.000000
  227       -3.779339   1.000000
  228       -3.778452   1.000000
  229       -3.778307   1.000000
  230       -3.777799   1.000000
  231       -3.777649   1.000000
  232       -3.777226   1.000000
  233       -3.777174   1.000000
  234       -3.777132   1.000000
  235       -3.776222   1.000000
  236       -3.776073   1.000000
  237       -3.774409   1.000000
  238       -3.746431   1.000000
  239       -3.746137   1.000000
  240       -3.745732   1.000000
  241       -3.745614   1.000000
  242       -3.745580   1.000000
  243       -3.741208   1.000000
  244       -3.730200   1.000000
  245       -3.730114   1.000000
  246       -3.730042   1.000000
  247       -3.729976   1.000000
  248       -3.726459   1.000000
  249       -3.726276   1.000000
  250       -3.726161   1.000000
  251       -3.725919   1.000000
  252       -3.724870   1.000000
  253       -3.723171   1.000000
  254       -3.720286   1.000000
  255       -3.720160   1.000000
  256       -3.683592   1.000000
  257       -3.682661   1.000000
  258       -3.681097   1.000000
  259       -3.680635   1.000000
  260       -3.680558   1.000000
  261       -3.680328   1.000000
  262       -3.680290   1.000000
  263       -3.680150   1.000000
  264       -3.679976   1.000000
  265       -3.679853   1.000000
  266       -3.679815   1.000000
  267       -3.679604   1.000000
  268       -3.671209   1.000000
  269       -3.670874   1.000000
  270       -3.670255   1.000000
  271       -3.624302   1.000000
  272       -3.623100   1.000000
  273       -3.622129   1.000000
  274       -3.621111   1.000000
  275       -3.620980   1.000000
  276       -3.619438   1.000000
  277       -3.614497   1.000000
  278       -3.614212   1.000000
  279       -3.613918   1.000000
  280       -3.613772   1.000000
  281       -3.594286   1.000000
  282       -3.594164   1.000000
  283       -3.578573   1.000000
  284       -3.578292   1.000000
  285       -3.578158   1.000000
  286       -3.578021   1.000000
  287       -3.577710   1.000000
  288       -3.575299   1.000000
  289       -3.566930   1.000000
  290       -3.566859   1.000000
  291       -3.566759   1.000000
  292       -3.566739   1.000000
  293       -3.562278   1.000000
  294       -3.562181   1.000000
  295       -3.501444   1.000000
  296       -3.500117   1.000000
  297       -3.495658   1.000000
  298       -3.495624   1.000000
  299       -3.495018   1.000000
  300       -3.491718   1.000000
  301       -3.491585   1.000000
  302       -3.490897   1.000000
  303       -3.490689   1.000000
  304       -3.490621   1.000000
  305       -3.490580   1.000000
  306       -3.490359   1.000000
  307       -3.490197   1.000000
  308       -3.489558   1.000000
  309       -3.488326   1.000000
  310       -3.488049   1.000000
  311       -3.444393   1.000000
  312       -3.444275   1.000000
  313       -3.444017   1.000000
  314       -3.443947   1.000000
  315       -3.443715   1.000000
  316       -3.443606   1.000000
  317       -3.418520   1.000000
  318       -3.412023   1.000000
  319       -3.409812   1.000000
  320       -3.409134   1.000000
  321       -3.408939   1.000000
  322       -3.408126   1.000000
  323       -3.408023   1.000000
  324       -3.407605   1.000000
  325       -3.407401   1.000000
  326       -3.405661   1.000000
  327       -3.405147   1.000000
  328       -3.404987   1.000000
  329       -3.404939   1.000000
  330       -3.404601   1.000000
  331       -3.404454   1.000000
  332       -3.404151   1.000000
  333       -3.404015   1.000000
  334       -3.403915   1.000000
  335       -3.390496   1.000000
  336       -3.390048   1.000000
  337       -3.389787   1.000000
  338       -3.389061   1.000000
  339       -3.388707   1.000000
  340       -3.384047   1.000000
  341       -3.296287   1.000000
  342       -3.296030   1.000000
  343       -3.292472   1.000000
  344       -3.272228   1.000000
  345       -3.270077   1.000000
  346       -3.269306   1.000000
  347       -3.268333   1.000000
  348       -3.268240   1.000000
  349       -3.267804   1.000000
  350       -3.229144   1.000000
  351       -3.228932   1.000000
  352       -3.225931   1.000000
  353       -3.219233   1.000000
  354       -3.219173   1.000000
  355       -3.217132   1.000000
  356       -3.215872   1.000000
  357       -3.215389   1.000000
  358       -3.214821   1.000000
  359       -3.214409   1.000000
  360       -3.214200   1.000000
  361       -3.214027   1.000000
  362       -3.213751   1.000000
  363       -3.211107   1.000000
  364       -3.188280   1.000000
  365       -3.188084   1.000000
  366       -3.153062   1.000000
  367       -3.153001   1.000000
  368       -3.152623   1.000000
  369       -3.151063   1.000000
  370       -3.150036   1.000000
  371       -3.146902   1.000000
  372       -3.146546   1.000000
  373       -3.144960   1.000000
  374       -3.144752   1.000000
  375       -3.144321   1.000000
  376       -3.144209   1.000000
  377       -3.143094   1.000000
  378       -3.142142   1.000000
  379       -3.141692   1.000000
  380       -3.141488   1.000000
  381       -3.140829   1.000000
  382       -3.140582   1.000000
  383       -3.140510   1.000000
  384       -3.080659   1.000000
  385       -3.079570   1.000000
  386       -3.075479   1.000000
  387       -3.074752   1.000000
  388       -3.074599   1.000000
  389       -3.074248   1.000000
  390       -3.074103   1.000000
  391       -3.073978   1.000000
  392       -3.073912   1.000000
  393       -3.073661   1.000000
  394       -3.073059   1.000000
  395       -3.072216   1.000000
  396       -3.039258   1.000000
  397       -3.037780   1.000000
  398       -3.037567   1.000000
  399       -3.037117   1.000000
  400       -3.036811   1.000000
  401       -3.036723   1.000000
  402       -2.967839   1.000000
  403       -2.965814   1.000000
  404       -2.965613   1.000000
  405       -2.965512   1.000000
  406       -2.965126   1.000000
  407       -2.964967   1.000000
  408       -2.956162   1.000000
  409       -2.956129   1.000000
  410       -2.953470   1.000000
  411       -2.953320   1.000000
  412       -2.952572   1.000000
  413       -2.945461   1.000000
  414       -2.937925   1.000000
  415       -2.937892   1.000000
  416       -2.937777   1.000000
  417       -2.937641   1.000000
  418       -2.937587   1.000000
  419       -2.936038   1.000000
  420       -2.919441   1.000000
  421       -2.919081   1.000000
  422       -2.915405   1.000000
  423       -2.915127   1.000000
  424       -2.914704   1.000000
  425       -2.911932   1.000000
  426       -2.898895   1.000000
  427       -2.898470   1.000000
  428       -2.893698   1.000000
  429       -2.893415   1.000000
  430       -2.893241   1.000000
  431       -2.893145   1.000000
  432       -2.893009   1.000000
  433       -2.892856   1.000000
  434       -2.892597   1.000000
  435       -2.892486   1.000000
  436       -2.892372   1.000000
  437       -2.891997   1.000000
  438       -2.891679   1.000000
  439       -2.891493   1.000000
  440       -2.890525   1.000000
  441       -2.890163   1.000000
  442       -2.889339   1.000000
  443       -2.881862   1.000000
  444       -2.833898   1.000000
  445       -2.833865   1.000000
  446       -2.831037   1.000000
  447       -2.828561   1.000000
  448       -2.827094   1.000000
  449       -2.827025   1.000000
  450       -2.826398   1.000000
  451       -2.826326   1.000000
  452       -2.824830   1.000000
  453       -2.821199   1.000000
  454       -2.821100   1.000000
  455       -2.820664   1.000000
  456       -2.820454   1.000000
  457       -2.820298   1.000000
  458       -2.820159   1.000000
  459       -2.820033   1.000000
  460       -2.819892   1.000000
  461       -2.819712   1.000000
  462       -2.819299   1.000000
  463       -2.818813   1.000000
  464       -2.818319   1.000000
  465       -2.769617   1.000000
  466       -2.769265   1.000000
  467       -2.768765   1.000000
  468       -2.768442   1.000000
  469       -2.741447   1.000000
  470       -2.737654   1.000000
  471       -2.736390   1.000000
  472       -2.735879   1.000000
  473       -2.735676   1.000000
  474       -2.735580   1.000000
  475       -2.735062   1.000000
  476       -2.734383   1.000000
  477       -2.733434   1.000000
  478       -2.733400   1.000000
  479       -2.732395   1.000000
  480       -2.731459   1.000000
  481       -2.731030   1.000000
  482       -2.730565   1.000000
  483       -2.729855   1.000000
  484       -2.728543   1.000000
  485       -2.727906   1.000000
  486       -2.727166   1.000000
  487       -2.716364   1.000000
  488       -2.715294   1.000000
  489       -2.714696   1.000000
  490       -2.712885   1.000000
  491       -2.712854   1.000000
  492       -2.712611   1.000000
  493       -2.712509   1.000000
  494       -2.712359   1.000000
  495       -2.712311   1.000000
  496       -2.712153   1.000000
  497       -2.712002   1.000000
  498       -2.711463   1.000000
  499       -2.705619   1.000000
  500       -2.705508   1.000000
  501       -2.677490   1.000000
  502       -2.676872   1.000000
  503       -2.676802   1.000000
  504       -2.676480   1.000000
  505       -2.676388   1.000000
  506       -2.670792   1.000000
  507       -2.644110   1.000000
  508       -2.644049   1.000000
  509       -2.642361   1.000000
  510       -2.642113   1.000000
  511       -2.641925   1.000000
  512       -2.641567   1.000000
  513       -2.638519   1.000000
  514       -2.615229   1.000000
  515       -2.613432   1.000000
  516       -2.610087   1.000000
  517       -2.609510   1.000000
  518       -2.608012   1.000000
  519       -2.607827   1.000000
  520       -2.605098   1.000000
  521       -2.603298   1.000000
  522       -2.601502   1.000000
  523       -2.599938   1.000000
  524       -2.596582   1.000000
  525       -2.560992   1.000000
  526       -2.560525   1.000000
  527       -2.551612   1.000000
  528       -2.551243   1.000000
  529       -2.551065   1.000000
  530       -2.550853   1.000000
  531       -2.550805   1.000000
  532       -2.550481   1.000000
  533       -2.550345   1.000000
  534       -2.550142   1.000000
  535       -2.549851   1.000000
  536       -2.549525   1.000000
  537       -2.546419   1.000000
  538       -2.544213   1.000000
  539       -2.543090   1.000000
  540       -2.540106   1.000000
  541       -2.539062   1.000000
  542       -2.538666   1.000000
  543       -2.538632   1.000000
  544       -2.538083   1.000000
  545       -2.528580   1.000000
  546       -2.513072   1.000000
  547       -2.513006   1.000000
  548       -2.512878   1.000000
  549       -2.504043   1.000000
  550       -2.503398   1.000000
  551       -2.502678   1.000000
  552       -2.502653   1.000000
  553       -2.502283   1.000000
  554       -2.497420   1.000000
  555       -2.489844   1.000000
  556       -2.489725   1.000000
  557       -2.485234   1.000000
  558       -2.484381   1.000000
  559       -2.483922   1.000000
  560       -2.475081   1.000000
  561       -2.474627   1.000000
  562       -2.474583   1.000000
  563       -2.474094   1.000000
  564       -2.473863   1.000000
  565       -2.473564   1.000000
  566       -2.473448   1.000000
  567       -2.473214   1.000000
  568       -2.473174   1.000000
  569       -2.472900   1.000000
  570       -2.472081   1.000000
  571       -2.471848   1.000000
  572       -2.469223   1.000000
  573       -2.468993   1.000000
  574       -2.459738   1.000000
  575       -2.448526   1.000000
  576       -2.448400   1.000000
  577       -2.434555   1.000000
  578       -2.432382   1.000000
  579       -2.430113   1.000000
  580       -2.429762   1.000000
  581       -2.429523   1.000000
  582       -2.427926   1.000000
  583       -2.427322   1.000000
  584       -2.427197   1.000000
  585       -2.426598   1.000000
  586       -2.426240   1.000000
  587       -2.426216   1.000000
  588       -2.417983   1.000000
  589       -2.404067   1.000000
  590       -2.403716   1.000000
  591       -2.402035   1.000000
  592       -2.401888   1.000000
  593       -2.401790   1.000000
  594       -2.399129   1.000000
  595       -2.390776   1.000000
  596       -2.385785   1.000000
  597       -2.385304   1.000000
  598       -2.383757   1.000000
  599       -2.382973   1.000000
  600       -2.382767   1.000000
  601       -2.382715   1.000000
  602       -2.382553   1.000000
  603       -2.382399   1.000000
  604       -2.381511   1.000000
  605       -2.378430   1.000000
  606       -2.378210   1.000000
  607       -2.378066   1.000000
  608       -2.377913   1.000000
  609       -2.377755   1.000000
  610       -2.377721   1.000000
  611       -2.372848   1.000000
  612       -2.372661   1.000000
  613       -2.326236   1.000000
  614       -2.324468   1.000000
  615       -2.320207   1.000000
  616       -2.314379   1.000000
  617       -2.313851   1.000000
  618       -2.313424   1.000000
  619       -2.312661   1.000000
  620       -2.306740   1.000000
  621       -2.306626   1.000000
  622       -2.306435   1.000000
  623       -2.306358   1.000000
  624       -2.305562   1.000000
  625       -2.284264   1.000000
  626       -2.283736   1.000000
  627       -2.281202   1.000000
  628       -2.280660   1.000000
  629       -2.280444   1.000000
  630       -2.280338   1.000000
  631       -2.279505   1.000000
  632       -2.279198   1.000000
  633       -2.278909   1.000000
  634       -2.278587   1.000000
  635       -2.278366   1.000000
  636       -2.278091   1.000000
  637       -2.272591   1.000000
  638       -2.271119   1.000000
  639       -2.259862   1.000000
  640       -2.259579   1.000000
  641       -2.258446   1.000000
  642       -2.253801   1.000000
  643       -2.250210   1.000000
  644       -2.246620   1.000000
  645       -2.245846   1.000000
  646       -2.243460   1.000000
  647       -2.228343   1.000000
  648       -2.227335   1.000000
  649       -2.226958   1.000000
  650       -2.226556   1.000000
  651       -2.224888   1.000000
  652       -2.224850   1.000000
  653       -2.224542   1.000000
  654       -2.224451   1.000000
  655       -2.224157   1.000000
  656       -2.224076   1.000000
  657       -2.220183   1.000000
  658       -2.216997   1.000000
  659       -2.216564   1.000000
  660       -2.215833   1.000000
  661       -2.214141   1.000000
  662       -2.213650   1.000000
  663       -2.213291   1.000000
  664       -2.212967   1.000000
  665       -2.212003   1.000000
  666       -2.211800   1.000000
  667       -2.210977   1.000000
  668       -2.210897   1.000000
  669       -2.210469   1.000000
  670       -2.207923   1.000000
  671       -2.204861   1.000000
  672       -2.204828   1.000000
  673       -2.174656   1.000000
  674       -2.174268   1.000000
  675       -2.172486   1.000000
  676       -2.171799   1.000000
  677       -2.170782   1.000000
  678       -2.170072   1.000000
  679       -2.164527   1.000000
  680       -2.161855   1.000000
  681       -2.161346   1.000000
  682       -2.161009   1.000000
  683       -2.160797   1.000000
  684       -2.160630   1.000000
  685       -2.154922   1.000000
  686       -2.154641   1.000000
  687       -2.140938   1.000000
  688       -2.120666   1.000000
  689       -2.119972   1.000000
  690       -2.119603   1.000000
  691       -2.118714   1.000000
  692       -2.117865   1.000000
  693       -2.117529   1.000000
  694       -2.117385   1.000000
  695       -2.117153   1.000000
  696       -2.116735   1.000000
  697       -2.116289   1.000000
  698       -2.115875   1.000000
  699       -2.112572   1.000000
  700       -2.110703   1.000000
  701       -2.110609   1.000000
  702       -2.109799   1.000000
  703       -2.109215   1.000000
  704       -2.108213   1.000000
  705       -2.108079   1.000000
  706       -2.107652   1.000000
  707       -2.107461   1.000000
  708       -2.107325   1.000000
  709       -2.107107   1.000000
  710       -2.106846   1.000000
  711       -2.106565   1.000000
  712       -2.106095   1.000000
  713       -2.105945   1.000000
  714       -2.105709   1.000000
  715       -2.105522   1.000000
  716       -2.103103   1.000000
  717       -2.102989   1.000000
  718       -2.087470   1.000000
  719       -2.087371   1.000000
  720       -2.086949   1.000000
  721       -2.086779   1.000000
  722       -2.086563   1.000000
  723       -2.086501   1.000000
  724       -2.050955   1.000000
  725       -2.045700   1.000000
  726       -2.031862   1.000000
  727       -2.030608   1.000000
  728       -2.029882   1.000000
  729       -2.029677   1.000000
  730       -2.029227   1.000000
  731       -2.028489   1.000000
  732       -2.027124   1.000000
  733       -2.026822   1.000000
  734       -2.026530   1.000000
  735       -2.026369   1.000000
  736       -2.026206   1.000000
  737       -2.026133   1.000000
  738       -2.026006   1.000000
  739       -2.025777   1.000000
  740       -2.024648   1.000000
  741       -2.012945   1.000000
  742       -1.993331   1.000000
  743       -1.992536   1.000000
  744       -1.991730   1.000000
  745       -1.991534   1.000000
  746       -1.991200   1.000000
  747       -1.990975   1.000000
  748       -1.987352   1.000000
  749       -1.986749   1.000000
  750       -1.986393   1.000000
  751       -1.985715   1.000000
  752       -1.985346   1.000000
  753       -1.980529   1.000000
  754       -1.954008   1.000000
  755       -1.952251   1.000000
  756       -1.937666   1.000000
  757       -1.935739   1.000000
  758       -1.935078   1.000000
  759       -1.934696   1.000000
  760       -1.932230   1.000000
  761       -1.931789   1.000000
  762       -1.930330   1.000000
  763       -1.929316   1.000000
  764       -1.928784   1.000000
  765       -1.928119   1.000000
  766       -1.927921   1.000000
  767       -1.927813   1.000000
  768       -1.927500   1.000000
  769       -1.927449   1.000000
  770       -1.927293   1.000000
  771       -1.927130   1.000000
  772       -1.926978   1.000000
  773       -1.926894   1.000000
  774       -1.926516   1.000000
  775       -1.926400   1.000000
  776       -1.925851   1.000000
  777       -1.917506   1.000000
  778       -1.899028   1.000000
  779       -1.897838   1.000000
  780       -1.897309   1.000000
  781       -1.890505   1.000000
  782       -1.889941   1.000000
  783       -1.889447   1.000000
  784       -1.889360   1.000000
  785       -1.888971   1.000000
  786       -1.888696   1.000000
  787       -1.873372   1.000000
  788       -1.871678   1.000000
  789       -1.869816   1.000000
  790       -1.869557   1.000000
  791       -1.868754   1.000000
  792       -1.868338   1.000000
  793       -1.859285   1.000000
  794       -1.855513   1.000000
  795       -1.847643   1.000000
  796       -1.846824   1.000000
  797       -1.846643   1.000000
  798       -1.845232   1.000000
  799       -1.844770   1.000000
  800       -1.844466   1.000000
  801       -1.837720   1.000000
  802       -1.835425   1.000000
  803       -1.835281   1.000000
  804       -1.825045   1.000000
  805       -1.820039   1.000000
  806       -1.818911   1.000000
  807       -1.813419   1.000000
  808       -1.809426   1.000000
  809       -1.809009   1.000000
  810       -1.808322   1.000000
  811       -1.807987   1.000000
  812       -1.807535   1.000000
  813       -1.807400   1.000000
  814       -1.806930   1.000000
  815       -1.805080   1.000000
  816       -1.800597   1.000000
  817       -1.779443   1.000000
  818       -1.777162   1.000000
  819       -1.772247   1.000000
  820       -1.770981   1.000000
  821       -1.770015   1.000000
  822       -1.768255   1.000000
  823       -1.767945   1.000000
  824       -1.766967   1.000000
  825       -1.766859   1.000000
  826       -1.766422   1.000000
  827       -1.766315   1.000000
  828       -1.766201   1.000000
  829       -1.764360   1.000000
  830       -1.763566   1.000000
  831       -1.760580   1.000000
  832       -1.760485   1.000000
  833       -1.760219   1.000000
  834       -1.759701   1.000000
  835       -1.759089   1.000000
  836       -1.758906   1.000000
  837       -1.758653   1.000000
  838       -1.758123   1.000000
  839       -1.757959   1.000000
  840       -1.757800   1.000000
  841       -1.753114   1.000000
  842       -1.752355   1.000000
  843       -1.752128   1.000000
  844       -1.751918   1.000000
  845       -1.751686   1.000000
  846       -1.750526   1.000000
  847       -1.740546   1.000000
  848       -1.740536   1.000000
  849       -1.738033   1.000000
  850       -1.737844   1.000000
  851       -1.737326   1.000000
  852       -1.726553   1.000000
  853       -1.725642   1.000000
  854       -1.724788   1.000000
  855       -1.719042   1.000000
  856       -1.705011   1.000000
  857       -1.704049   1.000000
  858       -1.699376   1.000000
  859       -1.697645   1.000000
  860       -1.697630   1.000000
  861       -1.694613   1.000000
  862       -1.682398   1.000000
  863       -1.681046   1.000000
  864       -1.680903   1.000000
  865       -1.679158   1.000000
  866       -1.679105   1.000000
  867       -1.679012   1.000000
  868       -1.678770   1.000000
  869       -1.677002   1.000000
  870       -1.664974   1.000000
  871       -1.640062   1.000000
  872       -1.636360   1.000000
  873       -1.635145   1.000000
  874       -1.632716   1.000000
  875       -1.632260   1.000000
  876       -1.631017   1.000000
  877       -1.630706   1.000000
  878       -1.630510   1.000000
  879       -1.630370   1.000000
  880       -1.629920   1.000000
  881       -1.629329   1.000000
  882       -1.629121   1.000000
  883       -1.618192   1.000000
  884       -1.617212   1.000000
  885       -1.614859   1.000000
  886       -1.614286   1.000000
  887       -1.613906   1.000000
  888       -1.592254   1.000000
  889       -1.585643   1.000000
  890       -1.584941   1.000000
  891       -1.581862   1.000000
  892       -1.581717   1.000000
  893       -1.581548   1.000000
  894       -1.581125   1.000000
  895       -1.539476   1.000000
  896       -1.517298   1.000000
  897       -1.514588   1.000000
  898       -1.513654   1.000000
  899       -1.513174   1.000000
  900       -1.512157   1.000000
  901       -1.511664   1.000000