 254 254   0   0
  0.3019211E+02  0.1718057E-08  0.1718057E-08  0.3000000E-08  0.5000000E-15
  1.000000000000000E-004
  CAR 
 NiAl                                    
      5.52103427    -24.10568564  301      1.81319316      1.00000000
    -24.106  0.0000E+00  0.0000E+00
    -24.007  0.0000E+00  0.0000E+00
    -23.908  0.0000E+00  0.0000E+00
    -23.809  0.0000E+00  0.0000E+00
    -23.711  0.0000E+00  0.0000E+00
    -23.612  0.0000E+00  0.0000E+00
    -23.513  0.0000E+00  0.0000E+00
    -23.414  0.0000E+00  0.0000E+00
    -23.316  0.0000E+00  0.0000E+00
    -23.217  0.0000E+00  0.0000E+00
    -23.118  0.0000E+00  0.0000E+00
    -23.019  0.1774E-11  0.1752E-12
    -22.921  0.4862E-04  0.4802E-05
    -22.822  0.7601E+00  0.7507E-01
    -22.723  0.1634E+02  0.1689E+01
    -22.624  0.3148E+01  0.2000E+01
    -22.526  0.1428E-02  0.2000E+01
    -22.427  0.4174E-09  0.2000E+01
    -22.328  0.0000E+00  0.2000E+01
    -22.229  0.0000E+00  0.2000E+01
    -22.131  0.0000E+00  0.2000E+01
    -22.032  0.0000E+00  0.2000E+01
    -21.933  0.0000E+00  0.2000E+01
    -21.834  0.0000E+00  0.2000E+01
    -21.736  0.0000E+00  0.2000E+01
    -21.637  0.0000E+00  0.2000E+01
    -21.538  0.0000E+00  0.2000E+01
    -21.439  0.0000E+00  0.2000E+01
    -21.341  0.0000E+00  0.2000E+01
    -21.242  0.0000E+00  0.2000E+01
    -21.143  0.0000E+00  0.2000E+01
    -21.044  0.0000E+00  0.2000E+01
    -20.946  0.0000E+00  0.2000E+01
    -20.847  0.0000E+00  0.2000E+01
    -20.748  0.0000E+00  0.2000E+01
    -20.649  0.0000E+00  0.2000E+01
    -20.550  0.0000E+00  0.2000E+01
    -20.452  0.0000E+00  0.2000E+01
    -20.353  0.0000E+00  0.2000E+01
    -20.254  0.0000E+00  0.2000E+01
    -20.155  0.0000E+00  0.2000E+01
    -20.057  0.0000E+00  0.2000E+01
    -19.958  0.0000E+00  0.2000E+01
    -19.859  0.0000E+00  0.2000E+01
    -19.760  0.0000E+00  0.2000E+01
    -19.662  0.0000E+00  0.2000E+01
    -19.563  0.0000E+00  0.2000E+01
    -19.464  0.0000E+00  0.2000E+01
    -19.365  0.0000E+00  0.2000E+01
    -19.267  0.0000E+00  0.2000E+01
    -19.168  0.0000E+00  0.2000E+01
    -19.069  0.0000E+00  0.2000E+01
    -18.970  0.0000E+00  0.2000E+01
    -18.872  0.0000E+00  0.2000E+01
    -18.773  0.0000E+00  0.2000E+01
    -18.674  0.0000E+00  0.2000E+01
    -18.575  0.0000E+00  0.2000E+01
    -18.477  0.0000E+00  0.2000E+01
    -18.378  0.0000E+00  0.2000E+01
    -18.279  0.0000E+00  0.2000E+01
    -18.180  0.0000E+00  0.2000E+01
    -18.082  0.0000E+00  0.2000E+01
    -17.983  0.0000E+00  0.2000E+01
    -17.884  0.0000E+00  0.2000E+01
    -17.785  0.0000E+00  0.2000E+01
    -17.687  0.0000E+00  0.2000E+01
    -17.588  0.0000E+00  0.2000E+01
    -17.489  0.0000E+00  0.2000E+01
    -17.390  0.0000E+00  0.2000E+01
    -17.292  0.0000E+00  0.2000E+01
    -17.193  0.0000E+00  0.2000E+01
    -17.094  0.0000E+00  0.2000E+01
    -16.995  0.0000E+00  0.2000E+01
    -16.897  0.0000E+00  0.2000E+01
    -16.798  0.0000E+00  0.2000E+01
    -16.699  0.0000E+00  0.2000E+01
    -16.600  0.0000E+00  0.2000E+01
    -16.501  0.0000E+00  0.2000E+01
    -16.403  0.0000E+00  0.2000E+01
    -16.304  0.0000E+00  0.2000E+01
    -16.205  0.0000E+00  0.2000E+01
    -16.106  0.0000E+00  0.2000E+01
    -16.008  0.0000E+00  0.2000E+01
    -15.909  0.0000E+00  0.2000E+01
    -15.810  0.0000E+00  0.2000E+01
    -15.711  0.0000E+00  0.2000E+01
    -15.613  0.0000E+00  0.2000E+01
    -15.514  0.0000E+00  0.2000E+01
    -15.415  0.0000E+00  0.2000E+01
    -15.316  0.0000E+00  0.2000E+01
    -15.218  0.0000E+00  0.2000E+01
    -15.119  0.0000E+00  0.2000E+01
    -15.020  0.0000E+00  0.2000E+01
    -14.921  0.0000E+00  0.2000E+01
    -14.823  0.0000E+00  0.2000E+01
    -14.724  0.0000E+00  0.2000E+01
    -14.625  0.0000E+00  0.2000E+01
    -14.526  0.0000E+00  0.2000E+01
    -14.428  0.0000E+00  0.2000E+01
    -14.329  0.0000E+00  0.2000E+01
    -14.230  0.0000E+00  0.2000E+01
    -14.131  0.0000E+00  0.2000E+01
    -14.033  0.0000E+00  0.2000E+01
    -13.934  0.0000E+00  0.2000E+01
    -13.835  0.0000E+00  0.2000E+01
    -13.736  0.0000E+00  0.2000E+01
    -13.638  0.0000E+00  0.2000E+01
    -13.539  0.0000E+00  0.2000E+01
    -13.440  0.0000E+00  0.2000E+01
    -13.341  0.0000E+00  0.2000E+01
    -13.243  0.0000E+00  0.2000E+01
    -13.144  0.0000E+00  0.2000E+01
    -13.045  0.0000E+00  0.2000E+01
    -12.946  0.0000E+00  0.2000E+01
    -12.848  0.0000E+00  0.2000E+01
    -12.749  0.0000E+00  0.2000E+01
    -12.650  0.0000E+00  0.2000E+01
    -12.551  0.0000E+00  0.2000E+01
    -12.453  0.0000E+00  0.2000E+01
    -12.354  0.0000E+00  0.2000E+01
    -12.255  0.0000E+00  0.2000E+01
    -12.156  0.0000E+00  0.2000E+01
    -12.057  0.0000E+00  0.2000E+01
    -11.959  0.0000E+00  0.2000E+01
    -11.860  0.0000E+00  0.2000E+01
    -11.761  0.0000E+00  0.2000E+01
    -11.662  0.0000E+00  0.2000E+01
    -11.564  0.0000E+00  0.2000E+01
    -11.465  0.0000E+00  0.2000E+01
    -11.366  0.0000E+00  0.2000E+01
    -11.267  0.0000E+00  0.2000E+01
    -11.169  0.0000E+00  0.2000E+01
    -11.070  0.0000E+00  0.2000E+01
    -10.971  0.0000E+00  0.2000E+01
    -10.872  0.0000E+00  0.2000E+01
    -10.774  0.0000E+00  0.2000E+01
    -10.675  0.0000E+00  0.2000E+01
    -10.576  0.0000E+00  0.2000E+01
    -10.477  0.0000E+00  0.2000E+01
    -10.379  0.0000E+00  0.2000E+01
    -10.280  0.0000E+00  0.2000E+01
    -10.181  0.0000E+00  0.2000E+01
    -10.082  0.0000E+00  0.2000E+01
     -9.984  0.0000E+00  0.2000E+01
     -9.885  0.0000E+00  0.2000E+01
     -9.786  0.0000E+00  0.2000E+01
     -9.687  0.0000E+00  0.2000E+01
     -9.589  0.0000E+00  0.2000E+01
     -9.490  0.0000E+00  0.2000E+01
     -9.391  0.5621E-15  0.2000E+01
     -9.292  0.1724E-06  0.2000E+01
     -9.194  0.2340E-01  0.2002E+01
     -9.095  0.2890E+01  0.2288E+01
     -8.996  0.3392E+01  0.2623E+01
     -8.897  0.2471E+02  0.5063E+01
     -8.799  0.4791E+01  0.5537E+01
     -8.700  0.4332E+01  0.5964E+01
     -8.601  0.2427E+02  0.8361E+01
     -8.502  0.3724E+02  0.1204E+02
     -8.404  0.2434E+02  0.1444E+02
     -8.305  0.7316E+01  0.1516E+02
     -8.206  0.2520E+02  0.1765E+02
     -8.107  0.1248E+02  0.1889E+02
     -8.009  0.2749E+02  0.2160E+02
     -7.910  0.6694E+02  0.2821E+02
     -7.811  0.2320E+02  0.3050E+02
     -7.712  0.1013E+02  0.3150E+02
     -7.613  0.4481E+02  0.3593E+02
     -7.515  0.8515E+02  0.4434E+02
     -7.416  0.2119E+02  0.4643E+02
     -7.317  0.1244E+02  0.4766E+02
     -7.218  0.2898E+02  0.5052E+02
     -7.120  0.2671E+02  0.5316E+02
     -7.021  0.3992E+02  0.5710E+02
     -6.922  0.8320E+02  0.6532E+02
     -6.823  0.4074E+02  0.6934E+02
     -6.725  0.5019E+02  0.7430E+02
     -6.626  0.3757E+02  0.7801E+02
     -6.527  0.8944E+02  0.8684E+02
     -6.428  0.2482E+02  0.8929E+02
     -6.330  0.7180E+01  0.9000E+02
     -6.231  0.2611E+01  0.9026E+02
     -6.132  0.3866E+02  0.9408E+02
     -6.033  0.1108E+03  0.1050E+03
     -5.935  0.9272E+02  0.1142E+03
     -5.836  0.5183E+02  0.1193E+03
     -5.737  0.6628E+02  0.1258E+03
     -5.638  0.6268E+02  0.1320E+03
     -5.540  0.1006E+03  0.1420E+03
     -5.441  0.2673E+02  0.1446E+03
     -5.342  0.1671E+02  0.1463E+03
     -5.243  0.7616E+02  0.1538E+03
     -5.145  0.3489E+02  0.1572E+03
     -5.046  0.8842E+02  0.1660E+03
     -4.947  0.7918E+02  0.1738E+03
     -4.848  0.2298E+02  0.1760E+03
     -4.750  0.3970E+02  0.1800E+03
     -4.651  0.9411E+02  0.1893E+03
     -4.552  0.8210E+02  0.1974E+03
     -4.453  0.6208E+02  0.2035E+03
     -4.355  0.3058E+02  0.2065E+03
     -4.256  0.7832E+02  0.2143E+03
     -4.157  0.1000E+03  0.2241E+03
     -4.058  0.1150E+03  0.2355E+03
     -3.960  0.7940E+02  0.2433E+03
     -3.861  0.2682E+02  0.2460E+03
     -3.762  0.8946E+02  0.2548E+03
     -3.663  0.7660E+02  0.2624E+03
     -3.564  0.6236E+02  0.2685E+03
     -3.466  0.6847E+02  0.2753E+03
     -3.367  0.2192E+02  0.2775E+03
     -3.268  0.1437E+02  0.2789E+03
     -3.169  0.8678E+02  0.2875E+03
     -3.071  0.8213E+02  0.2956E+03
     -2.972  0.1131E+03  0.3067E+03
     -2.873  0.8544E+02  0.3152E+03
     -2.774  0.1571E+03  0.3307E+03
     -2.676  0.1746E+03  0.3479E+03
     -2.577  0.1592E+02  0.3495E+03
     -2.478  0.2531E+01  0.3497E+03
     -2.379  0.4512E+02  0.3542E+03
     -2.281  0.1058E+03  0.3647E+03
     -2.182  0.1113E+03  0.3756E+03
     -2.083  0.7974E+02  0.3835E+03
     -1.984  0.5975E+02  0.3894E+03
     -1.886  0.6726E+02  0.3961E+03
     -1.787  0.1120E+03  0.4071E+03
     -1.688  0.1431E+03  0.4212E+03
     -1.589  0.2916E+02  0.4241E+03
     -1.491  0.7786E+02  0.4318E+03
     -1.392  0.5818E+02  0.4376E+03
     -1.293  0.1769E+03  0.4550E+03
     -1.194  0.9469E+02  0.4644E+03
     -1.096  0.1136E+03  0.4756E+03
     -0.997  0.6687E+02  0.4822E+03
     -0.898  0.7306E+02  0.4894E+03
     -0.799  0.1473E+03  0.5040E+03
     -0.701  0.7333E+02  0.5112E+03
     -0.602  0.5195E+02  0.5163E+03
     -0.503  0.4891E+02  0.5212E+03
     -0.404  0.1728E+03  0.5382E+03
     -0.306  0.1378E+03  0.5518E+03
     -0.207  0.1278E+03  0.5645E+03
     -0.108  0.7569E+02  0.5719E+03
     -0.009  0.3644E+02  0.5755E+03
      0.089  0.8632E+02  0.5841E+03
      0.188  0.8105E+02  0.5921E+03
      0.287  0.1009E+03  0.6020E+03
      0.386  0.7802E+02  0.6097E+03
      0.484  0.9721E+02  0.6193E+03
      0.583  0.1302E+03  0.6322E+03
      0.682  0.6237E+02  0.6383E+03
      0.781  0.3732E+02  0.6420E+03
      0.880  0.5920E+02  0.6479E+03
      0.978  0.1510E+03  0.6628E+03
      1.077  0.2314E+03  0.6856E+03
      1.176  0.1096E+03  0.6965E+03
      1.275  0.7894E+02  0.7043E+03
      1.373  0.6106E+02  0.7103E+03
      1.472  0.8581E+02  0.7188E+03
      1.571  0.1234E+03  0.7309E+03
      1.670  0.1733E+03  0.7481E+03
      1.768  0.1496E+03  0.7628E+03
      1.867  0.4438E+02  0.7672E+03
      1.966  0.7674E+02  0.7748E+03
      2.065  0.1778E+03  0.7924E+03
      2.163  0.7150E+02  0.7994E+03
      2.262  0.8225E+02  0.8075E+03
      2.361  0.4960E+02  0.8124E+03
      2.460  0.1126E+03  0.8236E+03
      2.558  0.8330E+02  0.8318E+03
      2.657  0.1417E+03  0.8458E+03
      2.756  0.7842E+02  0.8535E+03
      2.855  0.7679E+02  0.8611E+03
      2.953  0.2284E+03  0.8837E+03
      3.052  0.2504E+03  0.9084E+03
      3.151  0.6884E+02  0.9152E+03
      3.250  0.7140E+02  0.9223E+03
      3.348  0.1122E+03  0.9333E+03
      3.447  0.1484E+03  0.9480E+03
      3.546  0.1216E+03  0.9600E+03
      3.645  0.6859E+02  0.9668E+03
      3.743  0.1144E+03  0.9781E+03
      3.842  0.7161E+02  0.9851E+03
      3.941  0.1171E+03  0.9967E+03
      4.040  0.1802E+03  0.1015E+04
      4.138  0.1339E+03  0.1028E+04
      4.237  0.4253E+02  0.1032E+04
      4.336  0.6571E+00  0.1032E+04
      4.435  0.3041E-04  0.1032E+04
      4.533  0.9404E-12  0.1032E+04
      4.632  0.0000E+00  0.1032E+04
      4.731  0.0000E+00  0.1032E+04
      4.830  0.0000E+00  0.1032E+04
      4.928  0.0000E+00  0.1032E+04
      5.027  0.0000E+00  0.1032E+04
      5.126  0.0000E+00  0.1032E+04
      5.225  0.0000E+00  0.1032E+04
      5.324  0.0000E+00  0.1032E+04
      5.422  0.0000E+00  0.1032E+04
      5.521  0.0000E+00  0.1032E+04
