       N       E                     dE             d eps       ncg     rms          rms(c)
DAV:   1     0.213909504036E+04    0.21391E+04   -0.18395E+05  3120   0.734E+02
DAV:   2    -0.742717060758E+03   -0.28818E+04   -0.27167E+04  4200   0.193E+02
DAV:   3    -0.955804740157E+03   -0.21309E+03   -0.20490E+03  4428   0.408E+01
DAV:   4    -0.963569323060E+03   -0.77646E+01   -0.75943E+01  4320   0.813E+00
DAV:   5    -0.963993352421E+03   -0.42403E+00   -0.42245E+00  4932   0.203E+00    0.196E+01
DAV:   6    -0.978720219809E+03   -0.14727E+02   -0.18979E+02  4356   0.162E+01    0.190E+01
DAV:   7    -0.938476545122E+03    0.40244E+02   -0.13394E+02  3984   0.152E+01    0.102E+01
DAV:   8    -0.937997482669E+03    0.47906E+00   -0.47376E+01  3816   0.563E+00    0.474E+00
DAV:   9    -0.935943937609E+03    0.20535E+01   -0.52692E+00  3684   0.247E+00    0.126E+00
DAV:  10    -0.936418984728E+03   -0.47505E+00   -0.95289E-01  4380   0.206E+00    0.189E+00
DAV:  11    -0.935798435404E+03    0.62055E+00   -0.40728E-01  4152   0.176E+00    0.627E-01
DAV:  12    -0.935768094531E+03    0.30341E-01   -0.19340E-01  3648   0.503E-01    0.432E-01
DAV:  13    -0.935742902695E+03    0.25192E-01   -0.59744E-02  3948   0.259E-01    0.208E-01
DAV:  14    -0.935739552816E+03    0.33499E-02   -0.26107E-02  3756   0.168E-01    0.152E-01
DAV:  15    -0.935744098442E+03   -0.45456E-02   -0.72871E-03  3852   0.103E-01    0.121E-01
DAV:  16    -0.935752154155E+03   -0.80557E-02   -0.47335E-03  3468   0.736E-02    0.703E-02
DAV:  17    -0.935759514409E+03   -0.73603E-02   -0.22219E-03  3984   0.481E-02    0.408E-02
DAV:  18    -0.935761277962E+03   -0.17636E-02   -0.69193E-04  3756   0.282E-02    0.214E-02
DAV:  19    -0.935762751793E+03   -0.14738E-02   -0.32726E-04  3864   0.167E-02    0.156E-02
DAV:  20    -0.935763408584E+03   -0.65679E-03   -0.23159E-04  3432   0.121E-02    0.110E-02
DAV:  21    -0.935764235825E+03   -0.82724E-03   -0.99313E-05  3480   0.884E-03    0.743E-03
DAV:  22    -0.935765020643E+03   -0.78482E-03   -0.41151E-05  3420   0.561E-03    0.639E-03
DAV:  23    -0.935766425697E+03   -0.14051E-02   -0.16175E-04  3072   0.603E-03    0.299E-03
DAV:  24    -0.935766658701E+03   -0.23300E-03   -0.15652E-05  3108   0.270E-03    0.155E-03
DAV:  25    -0.935766799603E+03   -0.14090E-03   -0.79540E-06  2496   0.186E-03    0.754E-04
DAV:  26    -0.935766837173E+03   -0.37570E-04   -0.23436E-06  2508   0.110E-03    0.543E-04
DAV:  27    -0.935766842562E+03   -0.53885E-05   -0.38685E-07  2184   0.765E-04    0.499E-04
DAV:  28    -0.935766844541E+03   -0.19791E-05   -0.22157E-07  1968   0.603E-04
   1 F= -.93576684E+03 E0= -.93573901E+03  d E =-.556777E-01
