 vasp.5.4.4.18Apr17-6-g9f103f2a35 (build May 02 2017 15:33:50) complex          
  
 executed on Intel-16.0.3.210-OMP date 2018.08.08  22:51:25
 running on    6 total cores
 distrk:  each k-point on    6 cores,    1 groups
 distr:  one band on NCORES_PER_BAND=   1 cores,    6 groups


--------------------------------------------------------------------------------------------------------


 INCAR:
 POTCAR:    PAW Al_GW 19Mar2012                   
 POTCAR:    PAW_PBE N 08Apr2002                   

 ----------------------------------------------------------------------------- 
|                                                                             |
|           W    W    AA    RRRRR   N    N  II  N    N   GGGG   !!!           |
|           W    W   A  A   R    R  NN   N  II  NN   N  G    G  !!!           |
|           W    W  A    A  R    R  N N  N  II  N N  N  G       !!!           |
|           W WW W  AAAAAA  RRRRR   N  N N  II  N  N N  G  GGG   !            |
|           WW  WW  A    A  R   R   N   NN  II  N   NN  G    G                |
|           W    W  A    A  R    R  N    N  II  N    N   GGGG   !!!           |
|                                                                             |
|      For optimal performance we recommend to set                            |
|        NCORE= 4 - approx SQRT( number of cores)                             |
|      NCORE specifies how many cores store one orbital (NPAR=cpu/NCORE).     |
|      This setting can  greatly improve the performance of VASP for DFT.     |
|      The default,   NCORE=1            might be grossly inefficient         |
|      on modern multi-core architectures or massively parallel machines.     |
|      Do your own testing !!!!                                               |
|      Unfortunately you need to use the default for GW and RPA calculations. |
|      (for HF NCORE is supported but not extensively tested yet)             |
|                                                                             |
 ----------------------------------------------------------------------------- 

 POTCAR:    PAW Al_GW 19Mar2012                   
   VRHFIN =Al: s2p1                                                             
   LEXCH  = PE                                                                  
   EATOM  =    53.5387 eV,    3.9350 Ry                                         
                                                                                
   TITEL  = PAW Al_GW 19Mar2012                                                 
   LULTRA =        F    use ultrasoft PP ?                                      
   IUNSCR =        1    unscreen: 0-lin 1-nonlin 2-no                           
   RPACOR =    1.500    partial core radius                                     
   POMASS =   26.982; ZVAL   =    3.000    mass and valenz                      
   RCORE  =    2.000    outmost cutoff radius                                   
   RWIGS  =    2.000; RWIGS  =    1.058    wigner-seitz radius (au A)           
   ENMAX  =  240.300; ENMIN  =  180.225 eV                                      
   ICORE  =        3    local potential                                         
   LCOR   =        T    correct aug charges                                     
   LPAW   =        T    paw PP                                                  
   EAUG   =  482.059                                                            
   DEXC   =    0.000                                                            
   RMAX   =    2.051    core radius for proj-oper                               
   RAUG   =    1.300    factor for augmentation sphere                          
   RDEP   =    2.096    radius for radial grids                                 
   RDEPT  =    1.856    core radius for aug-charge                              
                                                                                
   Atomic configuration                                                         
    7 entries                                                                   
     n  l   j            E        occ.                                          
     1  0  0.50     -1511.1048   2.0000                                         
     2  0  0.50      -108.1629   2.0000                                         
     2  1  1.50       -69.6402   6.0000                                         
     3  0  0.50        -7.7528   2.0000                                         
     3  1  1.50        -2.7121   1.0000                                         
     3  2  2.50        -2.7212   0.0000                                         
     4  3  2.50        -2.7212   0.0000                                         
   Description                                                                  
     l       E           TYP  RCUT    TYP  RCUT                                 
     0     -7.7528455     23  1.900                                             
     0     68.0291300     23  1.900                                             
     1     -2.7120682     23  1.900                                             
     1     68.0291300     23  1.900                                             
     2     -1.3605826     23  1.900                                             
     2     81.6349560     23  1.900                                             
     3     74.8320430     23  2.000                                             
  local pseudopotential read in
  partial core-charges read in
  partial kinetic energy density read in
  kinetic energy density of atom read in
  atomic valenz-charges read in
  non local Contribution for L=           0  read in
    real space projection operators read in
  non local Contribution for L=           0  read in
    real space projection operators read in
  non local Contribution for L=           1  read in
    real space projection operators read in
  non local Contribution for L=           1  read in
    real space projection operators read in
  non local Contribution for L=           2  read in
    real space projection operators read in
  non local Contribution for L=           2  read in
    real space projection operators read in
    PAW grid and wavefunctions read in
 
   number of l-projection  operators is LMAX  =           6
   number of lm-projection operators is LMMAX =          18
 
 POTCAR:    PAW_PBE N 08Apr2002                   
   VRHFIN =N: s2p3                                                              
   LEXCH  = PE                                                                  
   EATOM  =   264.5486 eV,   19.4438 Ry                                         
                                                                                
   TITEL  = PAW_PBE N 08Apr2002                                                 
   LULTRA =        F    use ultrasoft PP ?                                      
   IUNSCR =        1    unscreen: 0-lin 1-nonlin 2-no                           
   RPACOR =    1.200    partial core radius                                     
   POMASS =   14.001; ZVAL   =    5.000    mass and valenz                      
   RCORE  =    1.500    outmost cutoff radius                                   
   RWIGS  =    1.400; RWIGS  =    0.741    wigner-seitz radius (au A)           
   ENMAX  =  400.000; ENMIN  =  300.000 eV                                      
   ICORE  =        2    local potential                                         
   LCOR   =        T    correct aug charges                                     
   LPAW   =        T    paw PP                                                  
   EAUG   =  627.112                                                            
   DEXC   =    0.000                                                            
   RMAX   =    1.529    core radius for proj-oper                               
   RAUG   =    1.300    factor for augmentation sphere                          
   RDEP   =    1.514    radius for radial grids                                 
   RDEPT  =    1.338    core radius for aug-charge                              
                                                                                
   Atomic configuration                                                         
    4 entries                                                                   
     n  l   j            E        occ.                                          
     1  0  0.50      -384.7179   2.0000                                         
     2  0  0.50       -18.5828   2.0000                                         
     2  1  0.50        -7.0898   3.0000                                         
     3  2  1.50        -6.8029   0.0000                                         
   Description                                                                  
     l       E           TYP  RCUT    TYP  RCUT                                 
     0    -18.5828119     23  1.200                                             
     0    -13.5018863     23  1.200                                             
     1     -7.0897853     23  1.500                                             
     1      9.5240782     23  1.500                                             
     2     -6.8029130      7  1.500                                             
  local pseudopotential read in
  partial core-charges read in
  partial kinetic energy density read in
  atomic valenz-charges read in
  non local Contribution for L=           0  read in
    real space projection operators read in
  non local Contribution for L=           0  read in
    real space projection operators read in
  non local Contribution for L=           1  read in
    real space projection operators read in
  non local Contribution for L=           1  read in
    real space projection operators read in
    PAW grid and wavefunctions read in
 
   number of l-projection  operators is LMAX  =           4
   number of lm-projection operators is LMMAX =           8
 
 Optimization of the real space projectors (new method)

 maximal supplied QI-value         = 18.90
 optimisation between [QCUT,QGAM] = [  8.69, 17.57] = [ 21.16, 86.49] Ry 
 Optimized for a Real-space Cutoff    1.59 Angstroem

   l    n(q)    QCUT    max X(q) W(low)/X(q) W(high)/X(q)  e(spline) 
   0      8     8.693    11.519    0.12E-03    0.31E-04    0.21E-06
   0      8     8.693     5.834    0.89E-04    0.32E-04    0.16E-06
   1      8     8.693    10.132    0.25E-03    0.39E-03    0.25E-06
   1      8     8.693     3.004    0.16E-03    0.27E-03    0.22E-06
   2      7     8.693     3.169    0.39E-03    0.93E-03    0.44E-06
   2      7     8.693     1.605    0.70E-04    0.91E-04    0.19E-06
 Optimization of the real space projectors (new method)

 maximal supplied QI-value         = 25.13
 optimisation between [QCUT,QGAM] = [  8.80, 17.59] = [ 21.67, 86.68] Ry 
 Optimized for a Real-space Cutoff    2.14 Angstroem

   l    n(q)    QCUT    max X(q) W(low)/X(q) W(high)/X(q)  e(spline) 
   0     11     8.797    79.467    0.70E-04    0.19E-04    0.19E-05
   0     11     8.797    66.151    0.68E-04    0.18E-04    0.19E-05
   1     11     8.797     6.738    0.26E-03    0.11E-02    0.73E-05
   1     11     8.797     5.013    0.25E-03    0.11E-02    0.72E-05
  PAW Al_GW 19Mar2012                   :
 energy of atom  1       EATOM=  -53.5387
 kinetic energy error for atom=    0.0011 (will be added to EATOM!!)
  PAW_PBE N 08Apr2002                   :
 energy of atom  2       EATOM= -264.5486
 kinetic energy error for atom=    0.6882 (will be added to EATOM!!)
 
 
 POSCAR: New structure                           
  positions in cartesian coordinates
  No initial velocities read in
 exchange correlation table for  LEXCH =        8
   RHO(1)=    0.500       N(1)  =     2000
   RHO(2)=  100.500       N(2)  =     4000
 


--------------------------------------------------------------------------------------------------------


 ion  position               nearest neighbor table
   1  0.444  0.444  0.079-
   2  0.444  0.778  0.079-
   3  0.444  0.111  0.079-
   4  0.778  0.444  0.079-
   5  0.778  0.778  0.079-
   6  0.778  0.111  0.079-
   7  0.111  0.444  0.079-
   8  0.111  0.778  0.079-
   9  0.111  0.111  0.079-
  10  0.556  0.556  0.157-
  11  0.556  0.889  0.157-
  12  0.556  0.222  0.157-
  13  0.889  0.556  0.157-
  14  0.889  0.889  0.157-
  15  0.889  0.222  0.157-
  16  0.222  0.556  0.157-
  17  0.222  0.889  0.157-
  18  0.222  0.222  0.157-
  19  0.667  0.667  0.234-
  20  0.667  0.000  0.234-
  21  0.667  0.333  0.234-
  22  0.000  0.667  0.234-
  23  0.000  0.000  0.234-
  24  0.000  0.333  0.234-
  25  0.333  0.667  0.234-
  26  0.333  0.000  0.234-
  27  0.333  0.333  0.234-
  28  0.778  0.778  0.312-
  29  0.778  0.111  0.312-
  30  0.778  0.444  0.312-
  31  0.111  0.778  0.312-
  32  0.111  0.111  0.312-
  33  0.111  0.444  0.312-
  34  0.444  0.778  0.312-
  35  0.444  0.111  0.312-
  36  0.444  0.444  0.312-
  37  0.889  0.889  0.390-
  38  0.889  0.222  0.390-
  39  0.889  0.556  0.390-
  40  0.222  0.889  0.390-
  41  0.222  0.222  0.390-
  42  0.222  0.556  0.390-
  43  0.556  0.889  0.390-
  44  0.556  0.222  0.390-
  45  0.556  0.556  0.390-
  46  0.000  0.000  0.466-
  47  0.000  0.333  0.466-
  48  0.000  0.667  0.466-
  49  0.333  0.000  0.466-
  50  0.333  0.333  0.466-
  51  0.333  0.667  0.466-
  52  0.667  0.000  0.466-
  53  0.667  0.333  0.466-
  54  0.667  0.667  0.466-
  55  0.111  0.111  0.545-
  56  0.111  0.444  0.545-
  57  0.111  0.778  0.545-
  58  0.444  0.111  0.545-
  59  0.444  0.444  0.545-
  60  0.444  0.778  0.545-
  61  0.778  0.111  0.545-
  62  0.778  0.444  0.545-
  63  0.778  0.778  0.545-
  64  0.278  0.278  0.079-
  65  0.278  0.611  0.079-
  66  0.278  0.944  0.079-
  67  0.611  0.278  0.079-
  68  0.611  0.611  0.079-
  69  0.611  0.944  0.079-
  70  0.944  0.278  0.079-
  71  0.944  0.611  0.079-
  72  0.944  0.944  0.079-
  73  0.389  0.389  0.157-
  74  0.389  0.722  0.157-
  75  0.389  0.056  0.157-
  76  0.722  0.389  0.157-
  77  0.722  0.722  0.157-
  78  0.722  0.056  0.157-
  79  0.056  0.389  0.157-
  80  0.056  0.722  0.157-
  81  0.056  0.056  0.157-
  82  0.500  0.500  0.234-
  83  0.500  0.833  0.234-
  84  0.500  0.167  0.234-
  85  0.833  0.500  0.234-
  86  0.833  0.833  0.234-
  87  0.833  0.167  0.234-
  88  0.167  0.500  0.234-
  89  0.167  0.833  0.234-
  90  0.167  0.167  0.234-
  91  0.611  0.611  0.312-
  92  0.611  0.944  0.312-
  93  0.611  0.278  0.312-
  94  0.944  0.611  0.312-
  95  0.944  0.944  0.312-
  96  0.944  0.278  0.312-
  97  0.278  0.611  0.312-
  98  0.278  0.944  0.312-
  99  0.278  0.278  0.312-
 100  0.722  0.722  0.390-
 101  0.722  0.056  0.390-
 102  0.722  0.389  0.390-
 103  0.056  0.722  0.390-
 104  0.056  0.056  0.390-
 105  0.056  0.389  0.390-
 106  0.389  0.722  0.390-
 107  0.389  0.056  0.390-
 108  0.389  0.389  0.390-
 109  0.833  0.833  0.466-
 110  0.833  0.167  0.466-
 111  0.833  0.500  0.466-
 112  0.167  0.833  0.466-
 113  0.167  0.167  0.466-
 114  0.167  0.500  0.466-
 115  0.500  0.833  0.466-
 116  0.500  0.167  0.466-
 117  0.500  0.500  0.466-
 118  0.944  0.944  0.545-
 119  0.944  0.278  0.545-
 120  0.944  0.611  0.545-
 121  0.278  0.944  0.545-
 122  0.278  0.278  0.545-
 123  0.278  0.611  0.545-
 124  0.611  0.944  0.545-
 125  0.611  0.278  0.545-
 126  0.611  0.611  0.545-
 127  0.278  0.444  0.079-
 128  0.278  0.778  0.079-
 129  0.278  0.111  0.079-
 130  0.611  0.444  0.079-
 131  0.611  0.778  0.079-
 132  0.611  0.111  0.079-
 133  0.944  0.444  0.079-
 134  0.944  0.778  0.079-
 135  0.944  0.111  0.079-
 136  0.389  0.556  0.157-
 137  0.389  0.889  0.157-
 138  0.389  0.222  0.157-
 139  0.722  0.556  0.157-
 140  0.722  0.889  0.157-
 141  0.722  0.222  0.157-
 142  0.056  0.556  0.157-
 143  0.056  0.889  0.157-
 144  0.056  0.222  0.157-
 145  0.500  0.667  0.234-
 146  0.500  0.000  0.234-
 147  0.500  0.333  0.234-
 148  0.833  0.667  0.234-
 149  0.833  0.000  0.234-
 150  0.833  0.333  0.234-
 151  0.167  0.667  0.234-
 152  0.167  0.000  0.234-
 153  0.167  0.333  0.234-
 154  0.611  0.778  0.312-
 155  0.611  0.111  0.312-
 156  0.611  0.444  0.312-
 157  0.944  0.778  0.312-
 158  0.944  0.111  0.312-
 159  0.944  0.444  0.312-
 160  0.278  0.778  0.312-
 161  0.278  0.111  0.312-
 162  0.278  0.444  0.312-
 163  0.722  0.889  0.390-
 164  0.722  0.222  0.390-
 165  0.722  0.556  0.390-
 166  0.056  0.889  0.390-
 167  0.056  0.222  0.390-
 168  0.056  0.556  0.390-
 169  0.389  0.889  0.390-
 170  0.389  0.222  0.390-
 171  0.389  0.556  0.390-
 172  0.833  0.000  0.466-
 173  0.833  0.333  0.466-
 174  0.833  0.667  0.466-
 175  0.167  0.000  0.466-
 176  0.167  0.333  0.466-
 177  0.167  0.667  0.466-
 178  0.500  0.000  0.466-
 179  0.500  0.333  0.466-
 180  0.500  0.667  0.466-
 181  0.944  0.111  0.545-
 182  0.944  0.444  0.545-
 183  0.944  0.778  0.545-
 184  0.278  0.111  0.545-
 185  0.278  0.444  0.545-
 186  0.278  0.778  0.545-
 187  0.611  0.111  0.545-
 188  0.611  0.444  0.545-
 189  0.611  0.778  0.545-
 190  0.444  0.278  0.079-
 191  0.444  0.611  0.079-
 192  0.444  0.944  0.079-
 193  0.778  0.278  0.079-
 194  0.778  0.611  0.079-
 195  0.778  0.944  0.079-
 196  0.111  0.278  0.079-
 197  0.111  0.611  0.079-
 198  0.111  0.944  0.079-
 199  0.556  0.389  0.157-
 200  0.556  0.722  0.157-
 201  0.556  0.056  0.157-
 202  0.889  0.389  0.157-
 203  0.889  0.722  0.157-
 204  0.889  0.056  0.157-
 205  0.222  0.389  0.157-
 206  0.222  0.722  0.157-
 207  0.222  0.056  0.157-
 208  0.667  0.500  0.234-
 209  0.667  0.833  0.234-
 210  0.667  0.167  0.234-
 211  1.000  0.500  0.234-
 212  1.000  0.833  0.234-
 213  1.000  0.167  0.234-
 214  0.333  0.500  0.234-
 215  0.333  0.833  0.234-
 216  0.333  0.167  0.234-
 217  0.778  0.611  0.312-
 218  0.778  0.944  0.312-
 219  0.778  0.278  0.312-
 220  0.111  0.611  0.312-
 221  0.111  0.944  0.312-
 222  0.111  0.278  0.312-
 223  0.444  0.611  0.312-
 224  0.444  0.944  0.312-
 225  0.444  0.278  0.312-
 226  0.889  0.722  0.390-
 227  0.889  0.056  0.390-
 228  0.889  0.389  0.390-
 229  0.222  0.722  0.390-
 230  0.222  0.056  0.390-
 231  0.222  0.389  0.390-
 232  0.556  0.722  0.390-
 233  0.556  0.056  0.390-
 234  0.556  0.389  0.390-
 235  1.000  0.833  0.466-
 236  1.000  0.167  0.466-
 237  1.000  0.500  0.466-
 238  0.333  0.833  0.466-
 239  0.333  0.167  0.466-
 240  0.333  0.500  0.466-
 241  0.667  0.833  0.466-
 242  0.667  0.167  0.466-
 243  0.667  0.500  0.466-
 244  0.111  0.944  0.545-
 245  0.111  0.278  0.545-
 246  0.111  0.611  0.545-
 247  0.444  0.944  0.545-
 248  0.444  0.278  0.545-
 249  0.444  0.611  0.545-
 250  0.778  0.944  0.545-
 251  0.778  0.278  0.545-
 252  0.778  0.611  0.545-
 253  0.343  0.481  0.735- 254 1.10
 254  0.380  0.407  0.735- 253 1.10
 
  LATTYP: Found a hexagonal cell.
 ALAT       =    17.1805734625
 C/A-ratio  =     1.7461582447
  
  Lattice vectors:
  
 A1 = (   0.0000000000,  -8.5902867312,  14.8788130701)
 A2 = (   0.0000000000,  17.1805734625,   0.0000000000)
 A3 = ( -30.0000000000,   0.0000000000,   0.0000000000)


Analysis of symmetry for initial positions (statically):
=====================================================================
 Subroutine PRICEL returns:
 Original cell was already a primitive cell.
 

 Routine SETGRP: Setting up the symmetry group for a 
 hexagonal supercell.


 Subroutine GETGRP returns: Found  2 space group operations
 (whereof  1 operations were pure point group operations)
 out of a pool of 24 trial point group operations.


The static configuration has the point symmetry C_1 .
 The point group associated with its full space group is C_1h.


Analysis of symmetry for dynamics (positions and initial velocities):
=====================================================================
 Subroutine PRICEL returns:
 Original cell was already a primitive cell.
 

 Routine SETGRP: Setting up the symmetry group for a 
 hexagonal supercell.


 Subroutine GETGRP returns: Found  2 space group operations
 (whereof  1 operations were pure point group operations)
 out of a pool of 24 trial point group operations.


The dynamic configuration has the point symmetry C_1 .
 The point group associated with its full space group is C_1h.


 Subroutine INISYM returns: Found  2 space group operations
 (whereof  1 operations are pure point group operations),
 and found     1 'primitive' translations

 
 
 KPOINTS: Automatic generation                    

Automatic generation of k-mesh.
Space group operators:
 irot       det(A)        alpha          n_x          n_y          n_z        tau_x        tau_y        tau_z
    1     1.000000     0.000000     1.000000     0.000000     0.000000     0.000000     0.000000     0.000000
    2    -1.000000   180.000000     0.000000     1.000000     0.000000    -0.833333     0.000000     0.000000
 
 Subroutine IBZKPT returns following result:
 ===========================================
 
 Found      3 irreducible k-points:
 
 Following reciprocal coordinates:
            Coordinates               Weight
  0.000000  0.000000  0.000000      1.000000
  0.500000  0.000000  0.000000      2.000000
  0.000000  0.500000  0.000000      1.000000
 
 Following cartesian coordinates:
            Coordinates               Weight
  0.000000  0.000000  0.000000      1.000000
  0.000000 -0.029103  0.016802      2.000000
  0.000000  0.000000 -0.033605      1.000000
 


--------------------------------------------------------------------------------------------------------




 Dimension of arrays:
   k-points           NKPTS =      3   k-points in BZ     NKDIM =      3   number of bands    NBANDS=    516
   number of dos      NEDOS =    301   number of ions     NIONS =    254
   non local maximal  LDIM  =      6   non local SUM 2l+1 LMDIM =     18
   total plane-waves  NPLWV = 819200
   max r-space proj   IRMAX =   4449   max aug-charges    IRDMAX=   4357
   dimension x,y,z NGX =    80 NGY =   80 NGZ =  128
   dimension x,y,z NGXF=   160 NGYF=  160 NGZF=  256
   support grid    NGXF=   160 NGYF=  160 NGZF=  256
   ions per type =             252   2
   NGX,Y,Z   is equivalent  to a cutoff of   7.74,  7.74,  7.09 a.u.
   NGXF,Y,Z  is equivalent  to a cutoff of  15.48, 15.48, 14.19 a.u.

 SYSTEM =  NiAl                                    
 POSCAR =  New structure                           

 Startparameter for this run:
   NWRITE =      2    write-flag & timer
   PREC   = normal    normal or accurate (medium, high low for compatibility)
   ISTART =      0    job   : 0-new  1-cont  2-samecut
   ICHARG =      2    charge: 1-file 2-atom 10-const
   ISPIN  =      1    spin polarized calculation?
   LNONCOLLINEAR =      F non collinear calculations
   LSORBIT =      F    spin-orbit coupling
   INIWAV =      1    electr: 0-lowe 1-rand  2-diag
   LASPH  =      F    aspherical Exc in radial PAW
   METAGGA=      F    non-selfconsistent MetaGGA calc.

 Electronic Relaxation 1
   ENCUT  =  300.0 eV  22.05 Ry    4.70 a.u.  24.26 24.26 42.37*2*pi/ulx,y,z
   ENINI  =  300.0     initial cutoff
   ENAUG  =  627.1 eV  augmentation charge cutoff
   NELM   =     60;   NELMIN=  6; NELMDL= -5     # of ELM steps 
   EDIFF  = 0.5E-05   stopping-criterion for ELM
   LREAL  =      T    real-space projection
   NLSPLINE    = F    spline interpolate recip. space projectors
   LCOMPAT=      F    compatible to vasp.4.4
   GGA_COMPAT  = T    GGA compatible to vasp.4.4-vasp.4.6
   LMAXPAW     = -100 max onsite density
   LMAXMIX     =    2 max onsite mixed and CHGCAR
   VOSKOWN=      0    Vosko Wilk Nusair interpolation
   ROPT   =   -0.00050  -0.00050
 Ionic relaxation
   EDIFFG = 0.5E-04   stopping-criterion for IOM
   NSW    =      0    number of steps for IOM
   NBLOCK =      1;   KBLOCK =      1    inner block; outer block 
   IBRION =     -1    ionic relax: 0-MD 1-quasi-New 2-CG
   NFREE  =      0    steps in history (QN), initial steepest desc. (CG)
   ISIF   =      0    stress and relaxation
   IWAVPR =     10    prediction:  0-non 1-charg 2-wave 3-comb
   ISYM   =      2    0-nonsym 1-usesym 2-fastsym
   LCORR  =      T    Harris-Foulkes like correction to forces

   POTIM  = 0.5000    time-step for ionic-motion
   TEIN   =    0.0    initial temperature
   TEBEG  =    0.0;   TEEND  =   0.0 temperature during run
   SMASS  =  -3.00    Nose mass-parameter (am)
   estimated Nose-frequenzy (Omega)   =  0.10E-29 period in steps =****** mass=  -0.675E-26a.u.
   SCALEE = 1.0000    scale energy and forces
   NPACO  =    256;   APACO  = 16.0  distance and # of slots for P.C.
   PSTRESS=    0.0 pullay stress

  Mass of Ions in am
   POMASS =  26.98 14.00
  Ionic Valenz
   ZVAL   =   3.00  5.00
  Atomic Wigner-Seitz radii
   RWIGS  =  -1.00 -1.00
  virtual crystal weights 
   VCA    =   1.00  1.00
   NELECT =     766.0000    total number of electrons
   NUPDOWN=      -1.0000    fix difference up-down

 DOS related values:
   EMIN   =  10.00;   EMAX   =-10.00  energy-range for DOS
   EFERMI =   0.00
   ISMEAR =     0;   SIGMA  =   0.05  broadening in eV -4-tet -1-fermi 0-gaus

 Electronic relaxation 2 (details)
   IALGO  =     38    algorithm
   LDIAG  =      T    sub-space diagonalisation (order eigenvalues)
   LSUBROT=      F    optimize rotation matrix (better conditioning)
   TURBO    =      0    0=normal 1=particle mesh
   IRESTART =      0    0=no restart 2=restart with 2 vectors
   NREBOOT  =      0    no. of reboots
   NMIN     =      0    reboot dimension
   EREF     =   0.00    reference energy to select bands
   IMIX   =      4    mixing-type and parameters
     AMIX     =   0.40;   BMIX     =  1.00
     AMIX_MAG =   1.60;   BMIX_MAG =  1.00
     AMIN     =   0.10
     WC   =   100.;   INIMIX=   1;  MIXPRE=   1;  MAXMIX= -45

 Intra band minimization:
   WEIMIN = 0.0000     energy-eigenvalue tresh-hold
   EBREAK =  0.24E-08  absolut break condition
   DEPER  =   0.30     relativ break condition  

   TIME   =   0.40     timestep for ELM

  volume/ion in A,a.u.               =      30.19       203.75
  Fermi-wavevector in a.u.,A,eV,Ry     =   0.759583  1.435404  7.850108  0.576967
  Thomas-Fermi vector in A             =   1.858410
 
 Write flags
   LWAVE        =      F    write WAVECAR
   LDOWNSAMPLE  =      F    k-point downsampling of WAVECAR
   LCHARG       =      F    write CHGCAR
   LVTOT        =      F    write LOCPOT, total local potential
   LVHAR        =      F    write LOCPOT, Hartree potential only
   LELF         =      F    write electronic localiz. function (ELF)
   LORBIT       =      0    0 simple, 1 ext, 2 COOP (PROOUT), +10 PAW based schemes


 Dipole corrections
   LMONO  =      F    monopole corrections only (constant potential shift)
   LDIPOL =      F    correct potential (dipole corrections)
   IDIPOL =      0    1-x, 2-y, 3-z, 4-all directions 
   EPSILON=  1.0000000 bulk dielectric constant

 Exchange correlation treatment:
   GGA     =    --    GGA type
   LEXCH   =     8    internal setting for exchange type
   VOSKOWN=      0    Vosko Wilk Nusair interpolation
   LHFCALC =     F    Hartree Fock is set to
   LHFONE  =     F    Hartree Fock one center treatment
   AEXX    =    0.0000 exact exchange contribution

 Linear response parameters
   LEPSILON=     F    determine dielectric tensor
   LRPA    =     F    only Hartree local field effects (RPA)
   LNABLA  =     F    use nabla operator in PAW spheres
   LVEL    =     F    velocity operator in full k-point grid
   LINTERFAST=   F  fast interpolation
   KINTER  =     0    interpolate to denser k-point grid
   CSHIFT  =0.1000    complex shift for real part using Kramers Kronig
   OMEGAMAX=  -1.0    maximum frequency
   DEG_THRESHOLD= 0.2000000E-02 threshold for treating states as degnerate
   RTIME   =   -0.100 relaxation time in fs
  (WPLASMAI=    0.000 imaginary part of plasma frequency in eV, 0.658/RTIME)
   DFIELD  = 0.0000000 0.0000000 0.0000000 field for delta impulse in time
 
 Orbital magnetization related:
   ORBITALMAG=     F  switch on orbital magnetization
   LCHIMAG   =     F  perturbation theory with respect to B field
   DQ        =  0.001000  dq finite difference perturbation B field
   LLRAUG    =     F  two centre corrections for induced B field



--------------------------------------------------------------------------------------------------------


 Static calculation
 charge density and potential will be updated during run
 non-spin polarized calculation
 Variant of blocked Davidson
 Davidson routine will perform the subspace rotation
 perform sub-space diagonalisation
    after iterative eigenvector-optimisation
 modified Broyden-mixing scheme, WC =      100.0
 initial mixing is a Kerker type mixing with AMIX =  0.4000 and BMIX =      1.0000
 Hartree-type preconditioning will be used
 using additional bands          133
 real space projection scheme for non local part
 use partial core corrections
 calculate Harris-corrections to forces 
   (improved forces if not selfconsistent)
 use gradient corrections 
 use of overlap-Matrix (Vanderbilt PP)
 Gauss-broadening in eV      SIGMA  =   0.05


--------------------------------------------------------------------------------------------------------


  energy-cutoff  :      300.00
  volume of cell :     7668.80
      direct lattice vectors                 reciprocal lattice vectors
     0.000000000-17.180573462  0.000000000     0.000000000 -0.058205275  0.033604831
     0.000000000 -8.590286731-14.878813070     0.000000000  0.000000000 -0.067209662
    30.000000000  0.000000000  0.000000000     0.033333333  0.000000000  0.000000000

  length of vectors
    17.180573462 17.180573462 30.000000000     0.067209662  0.067209662  0.033333333


 
 k-points in units of 2pi/SCALE and weight: Automatic generation                    
   0.00000000  0.00000000  0.00000000       0.250
   0.00000000 -0.02910264  0.01680242       0.500
   0.00000000  0.00000000 -0.03360483       0.250
 
 k-points in reciprocal lattice and weights: Automatic generation                    
   0.00000000  0.00000000  0.00000000       0.250
   0.50000000  0.00000000  0.00000000       0.500
   0.00000000  0.50000000  0.00000000       0.250
 
 position of ions in fractional coordinates (direct lattice) 
   0.44444456  0.44444473  0.07873467
   0.44444419  0.77777777  0.07873467
   0.44444468  0.11111101  0.07873467
   0.77777744  0.44444473  0.07873467
   0.77777765  0.77777777  0.07873467
   0.77777756  0.11111101  0.07873467
   0.11111110  0.44444473  0.07873467
   0.11111131  0.77777777  0.07873467
   0.11111122  0.11111101  0.07873467
   0.55555520  0.55555574  0.15702600
   0.55555541  0.88888878  0.15702600
   0.55555591  0.22222203  0.15702600
   0.88888866  0.55555574  0.15702600
   0.88888887  0.88888878  0.15702600
   0.88888878  0.22222203  0.15702600
   0.22222232  0.55555574  0.15702600
   0.22222253  0.88888878  0.15702600
   0.22222245  0.22222203  0.15702600
   0.66666642  0.66666675  0.23375733
   0.66666692  0.00000000  0.23375733
   0.66666655  0.33333304  0.23375733
   0.00000008  0.66666675  0.23375733
   0.00000000  0.00000000  0.23375733
   0.00000021  0.33333304  0.23375733
   0.33333354  0.66666675  0.23375733
   0.33333346  0.00000000  0.23375733
   0.33333367  0.33333304  0.23375733
   0.77777765  0.77777777  0.31173067
   0.77777756  0.11111101  0.31173067
   0.77777744  0.44444473  0.31173067
   0.11111131  0.77777777  0.31173067
   0.11111122  0.11111101  0.31173067
   0.11111110  0.44444473  0.31173067
   0.44444419  0.77777777  0.31173067
   0.44444468  0.11111101  0.31173067
   0.44444456  0.44444473  0.31173067
   0.88888887  0.88888878  0.38970400
   0.88888878  0.22222203  0.38970400
   0.88888866  0.55555574  0.38970400
   0.22222253  0.88888878  0.38970400
   0.22222245  0.22222203  0.38970400
   0.22222232  0.55555574  0.38970400
   0.55555541  0.88888878  0.38970400
   0.55555591  0.22222203  0.38970400
   0.55555520  0.55555574  0.38970400
   0.00000000  0.00000000  0.46643533
   0.00000021  0.33333304  0.46643533
   0.00000008  0.66666675  0.46643533
   0.33333346  0.00000000  0.46643533
   0.33333367  0.33333304  0.46643533
   0.33333354  0.66666675  0.46643533
   0.66666692  0.00000000  0.46643533
   0.66666655  0.33333304  0.46643533
   0.66666642  0.66666675  0.46643533
   0.11111122  0.11111101  0.54472667
   0.11111110  0.44444473  0.54472667
   0.11111131  0.77777777  0.54472667
   0.44444468  0.11111101  0.54472667
   0.44444456  0.44444473  0.54472667
   0.44444419  0.77777777  0.54472667
   0.77777756  0.11111101  0.54472667
   0.77777744  0.44444473  0.54472667
   0.77777765  0.77777777  0.54472667
   0.27777777  0.27777753  0.07873467
   0.27777764  0.61111125  0.07873467
   0.27777785  0.94444429  0.07873467
   0.61111123  0.27777753  0.07873467
   0.61111110  0.61111125  0.07873467
   0.61111131  0.94444429  0.07873467
   0.94444469  0.27777753  0.07873467
   0.94444456  0.61111125  0.07873467
   0.94444477  0.94444429  0.07873467
   0.38888865  0.38888922  0.15702600
   0.38888886  0.72222226  0.15702600
   0.38888878  0.05555551  0.15702600
   0.72222211  0.38888922  0.15702600
   0.72222232  0.72222226  0.15702600
   0.72222224  0.05555551  0.15702600
   0.05555519  0.38888922  0.15702600
   0.05555540  0.72222226  0.15702600
   0.05555532  0.05555551  0.15702600
   0.49999988  0.50000023  0.23375733
   0.50000009  0.83333327  0.23375733
   0.50000000  0.16666652  0.23375733
   0.83333334  0.50000023  0.23375733
   0.83333355  0.83333327  0.23375733
   0.83333346  0.16666652  0.23375733
   0.16666642  0.50000023  0.23375733
   0.16666663  0.83333327  0.23375733
   0.16666654  0.16666652  0.23375733
   0.61111110  0.61111125  0.31173067
   0.61111131  0.94444429  0.31173067
   0.61111123  0.27777753  0.31173067
   0.94444456  0.61111125  0.31173067
   0.94444477  0.94444429  0.31173067
   0.94444469  0.27777753  0.31173067
   0.27777764  0.61111125  0.31173067
   0.27777785  0.94444429  0.31173067
   0.27777777  0.27777753  0.31173067
   0.72222232  0.72222226  0.38970400
   0.72222224  0.05555551  0.38970400
   0.72222211  0.38888922  0.38970400
   0.05555540  0.72222226  0.38970400
   0.05555532  0.05555551  0.38970400
   0.05555519  0.38888922  0.38970400
   0.38888886  0.72222226  0.38970400
   0.38888878  0.05555551  0.38970400
   0.38888865  0.38888922  0.38970400
   0.83333355  0.83333327  0.46643533
   0.83333346  0.16666652  0.46643533
   0.83333334  0.50000023  0.46643533
   0.16666663  0.83333327  0.46643533
   0.16666654  0.16666652  0.46643533
   0.16666642  0.50000023  0.46643533
   0.50000009  0.83333327  0.46643533
   0.50000000  0.16666652  0.46643533
   0.49999988  0.50000023  0.46643533
   0.94444477  0.94444429  0.54472667
   0.94444469  0.27777753  0.54472667
   0.94444456  0.61111125  0.54472667
   0.27777785  0.94444429  0.54472667
   0.27777777  0.27777753  0.54472667
   0.27777764  0.61111125  0.54472667
   0.61111131  0.94444429  0.54472667
   0.61111123  0.27777753  0.54472667
   0.61111110  0.61111125  0.54472667
   0.27777783  0.44444473  0.07873467
   0.27777804  0.77777777  0.07873467
   0.27777795  0.11111101  0.07873467
   0.61111071  0.44444473  0.07873467
   0.61111092  0.77777777  0.07873467
   0.61111141  0.11111101  0.07873467
   0.94444417  0.44444473  0.07873467
   0.94444438  0.77777777  0.07873467
   0.94444429  0.11111101  0.07873467
   0.38888905  0.55555574  0.15702600
   0.38888868  0.88888878  0.15702600
   0.38888918  0.22222203  0.15702600
   0.72222193  0.55555574  0.15702600
   0.72222214  0.88888878  0.15702600
   0.72222205  0.22222203  0.15702600
   0.05555559  0.55555574  0.15702600
   0.05555580  0.88888878  0.15702600
   0.05555572  0.22222203  0.15702600
   0.49999969  0.66666675  0.23375733
   0.50000019  0.00000000  0.23375733
   0.50000040  0.33333304  0.23375733
   0.83333315  0.66666675  0.23375733
   0.83333307  0.00000000  0.23375733
   0.83333328  0.33333304  0.23375733
   0.16666681  0.66666675  0.23375733
   0.16666673  0.00000000  0.23375733
   0.16666694  0.33333304  0.23375733
   0.61111092  0.77777777  0.31173067
   0.61111141  0.11111101  0.31173067
   0.61111071  0.44444473  0.31173067
   0.94444438  0.77777777  0.31173067
   0.94444429  0.11111101  0.31173067
   0.94444417  0.44444473  0.31173067
   0.27777804  0.77777777  0.31173067
   0.27777795  0.11111101  0.31173067
   0.27777783  0.44444473  0.31173067
   0.72222214  0.88888878  0.38970400
   0.72222205  0.22222203  0.38970400
   0.72222193  0.55555574  0.38970400
   0.05555580  0.88888878  0.38970400
   0.05555572  0.22222203  0.38970400
   0.05555559  0.55555574  0.38970400
   0.38888868  0.88888878  0.38970400
   0.38888918  0.22222203  0.38970400
   0.38888905  0.55555574  0.38970400
   0.83333307  0.00000000  0.46643533
   0.83333328  0.33333304  0.46643533
   0.83333315  0.66666675  0.46643533
   0.16666673  0.00000000  0.46643533
   0.16666694  0.33333304  0.46643533
   0.16666681  0.66666675  0.46643533
   0.50000019  0.00000000  0.46643533
   0.50000040  0.33333304  0.46643533
   0.49999969  0.66666675  0.46643533
   0.94444429  0.11111101  0.54472667
   0.94444417  0.44444473  0.54472667
   0.94444438  0.77777777  0.54472667
   0.27777795  0.11111101  0.54472667
   0.27777783  0.44444473  0.54472667
   0.27777804  0.77777777  0.54472667
   0.61111141  0.11111101  0.54472667
   0.61111071  0.44444473  0.54472667
   0.61111092  0.77777777  0.54472667
   0.44444450  0.27777753  0.07873467
   0.44444437  0.61111125  0.07873467
   0.44444458  0.94444429  0.07873467
   0.77777796  0.27777753  0.07873467
   0.77777783  0.61111125  0.07873467
   0.77777804  0.94444429  0.07873467
   0.11111104  0.27777753  0.07873467
   0.11111091  0.61111125  0.07873467
   0.11111112  0.94444429  0.07873467
   0.55555538  0.38888922  0.15702600
   0.55555559  0.72222226  0.15702600
   0.55555551  0.05555551  0.15702600
   0.88888884  0.38888922  0.15702600
   0.88888905  0.72222226  0.15702600
   0.88888897  0.05555551  0.15702600
   0.22222192  0.38888922  0.15702600
   0.22222213  0.72222226  0.15702600
   0.22222205  0.05555551  0.15702600
   0.66666661  0.50000023  0.23375733
   0.66666682  0.83333327  0.23375733
   0.66666673  0.16666652  0.23375733
   0.99999969  0.50000023  0.23375733
   0.99999990  0.83333327  0.23375733
   0.99999981  0.16666652  0.23375733
   0.33333315  0.50000023  0.23375733
   0.33333336  0.83333327  0.23375733
   0.33333327  0.16666652  0.23375733
   0.77777783  0.61111125  0.31173067
   0.77777804  0.94444429  0.31173067
   0.77777796  0.27777753  0.31173067
   0.11111091  0.61111125  0.31173067
   0.11111112  0.94444429  0.31173067
   0.11111104  0.27777753  0.31173067
   0.44444437  0.61111125  0.31173067
   0.44444458  0.94444429  0.31173067
   0.44444450  0.27777753  0.31173067
   0.88888905  0.72222226  0.38970400
   0.88888897  0.05555551  0.38970400
   0.88888884  0.38888922  0.38970400
   0.22222213  0.72222226  0.38970400
   0.22222205  0.05555551  0.38970400
   0.22222192  0.38888922  0.38970400
   0.55555559  0.72222226  0.38970400
   0.55555551  0.05555551  0.38970400
   0.55555538  0.38888922  0.38970400
   0.99999990  0.83333327  0.46643533
   0.99999981  0.16666652  0.46643533
   0.99999969  0.50000023  0.46643533
   0.33333336  0.83333327  0.46643533
   0.33333327  0.16666652  0.46643533
   0.33333315  0.50000023  0.46643533
   0.66666682  0.83333327  0.46643533
   0.66666673  0.16666652  0.46643533
   0.66666661  0.50000023  0.46643533
   0.11111112  0.94444429  0.54472667
   0.11111104  0.27777753  0.54472667
   0.11111091  0.61111125  0.54472667
   0.44444458  0.94444429  0.54472667
   0.44444450  0.27777753  0.54472667
   0.44444437  0.61111125  0.54472667
   0.77777804  0.94444429  0.54472667
   0.77777796  0.27777753  0.54472667
   0.77777783  0.61111125  0.54472667
   0.34272267  0.48122118  0.73466667
   0.37958737  0.40749218  0.73466667
 
 position of ions in cartesian coordinates  (Angst):
   2.36204000-11.45372000 -6.61281000
   2.36204000-14.31714000-11.57241000
   2.36204000 -8.59029000 -1.65320000
   2.36204000-17.18057000 -6.61281000
   2.36204000-20.04400000-11.57241000
   2.36204000-14.31714000 -1.65320000
   2.36204000 -5.72686000 -6.61281000
   2.36204000 -8.59029000-11.57241000
   2.36204000 -2.86343000 -1.65320000
   4.71078000-14.31714000 -8.26601000
   4.71078000-17.18057000-13.22561000
   4.71078000-11.45372000 -3.30640000
   4.71078000-20.04400000 -8.26601000
   4.71078000-22.90743000-13.22561000
   4.71078000-17.18057000 -3.30640000
   4.71078000 -8.59029000 -8.26601000
   4.71078000-11.45372000-13.22561000
   4.71078000 -5.72686000 -3.30640000
   7.01272000-17.18057000 -9.91921000
   7.01272000-11.45372000  0.00000000
   7.01272000-14.31714000 -4.95960000
   7.01272000 -5.72686000 -9.91921000
   7.01272000  0.00000000  0.00000000
   7.01272000 -2.86343000 -4.95960000
   7.01272000-11.45372000 -9.91921000
   7.01272000 -5.72686000  0.00000000
   7.01272000 -8.59029000 -4.95960000
   9.35192000-20.04400000-11.57241000
   9.35192000-14.31714000 -1.65320000
   9.35192000-17.18057000 -6.61281000
   9.35192000 -8.59029000-11.57241000
   9.35192000 -2.86343000 -1.65320000
   9.35192000 -5.72686000 -6.61281000
   9.35192000-14.31714000-11.57241000
   9.35192000 -8.59029000 -1.65320000
   9.35192000-11.45372000 -6.61281000
  11.69112000-22.90743000-13.22561000
  11.69112000-17.18057000 -3.30640000
  11.69112000-20.04400000 -8.26601000
  11.69112000-11.45372000-13.22561000
  11.69112000 -5.72686000 -3.30640000
  11.69112000 -8.59029000 -8.26601000
  11.69112000-17.18057000-13.22561000
  11.69112000-11.45372000 -3.30640000
  11.69112000-14.31714000 -8.26601000
  13.99306000  0.00000000  0.00000000
  13.99306000 -2.86343000 -4.95960000
  13.99306000 -5.72686000 -9.91921000
  13.99306000 -5.72686000  0.00000000
  13.99306000 -8.59029000 -4.95960000
  13.99306000-11.45372000 -9.91921000
  13.99306000-11.45372000  0.00000000
  13.99306000-14.31714000 -4.95960000
  13.99306000-17.18057000 -9.91921000
  16.34180000 -2.86343000 -1.65320000
  16.34180000 -5.72686000 -6.61281000
  16.34180000 -8.59029000-11.57241000
  16.34180000 -8.59029000 -1.65320000
  16.34180000-11.45372000 -6.61281000
  16.34180000-14.31714000-11.57241000
  16.34180000-14.31714000 -1.65320000
  16.34180000-17.18057000 -6.61281000
  16.34180000-20.04400000-11.57241000
   2.36204000 -7.15857000 -4.13300000
   2.36204000-10.02200000 -9.09261000
   2.36204000-12.88543000-14.05221000
   2.36204000-12.88543000 -4.13300000
   2.36204000-15.74886000 -9.09261000
   2.36204000-18.61229000-14.05221000
   2.36204000-18.61229000 -4.13300000
   2.36204000-21.47572000 -9.09261000
   2.36204000-24.33915000-14.05221000
   4.71078000-10.02200000 -5.78621000
   4.71078000-12.88543000-10.74581000
   4.71078000 -7.15857000 -0.82660000
   4.71078000-15.74886000 -5.78621000
   4.71078000-18.61229000-10.74581000
   4.71078000-12.88543000 -0.82660000
   4.71078000 -4.29514000 -5.78621000
   4.71078000 -7.15857000-10.74581000
   4.71078000 -1.43171000 -0.82660000
   7.01272000-12.88543000 -7.43941000
   7.01272000-15.74886000-12.39901000
   7.01272000-10.02200000 -2.47980000
   7.01272000-18.61229000 -7.43941000
   7.01272000-21.47572000-12.39901000
   7.01272000-15.74886000 -2.47980000
   7.01272000 -7.15857000 -7.43941000
   7.01272000-10.02200000-12.39901000
   7.01272000 -4.29514000 -2.47980000
   9.35192000-15.74886000 -9.09261000
   9.35192000-18.61229000-14.05221000
   9.35192000-12.88543000 -4.13300000
   9.35192000-21.47572000 -9.09261000
   9.35192000-24.33915000-14.05221000
   9.35192000-18.61229000 -4.13300000
   9.35192000-10.02200000 -9.09261000
   9.35192000-12.88543000-14.05221000
   9.35192000 -7.15857000 -4.13300000
  11.69112000-18.61229000-10.74581000
  11.69112000-12.88543000 -0.82660000
  11.69112000-15.74886000 -5.78621000
  11.69112000 -7.15857000-10.74581000
  11.69112000 -1.43171000 -0.82660000
  11.69112000 -4.29514000 -5.78621000
  11.69112000-12.88543000-10.74581000
  11.69112000 -7.15857000 -0.82660000
  11.69112000-10.02200000 -5.78621000
  13.99306000-21.47572000-12.39901000
  13.99306000-15.74886000 -2.47980000
  13.99306000-18.61229000 -7.43941000
  13.99306000-10.02200000-12.39901000
  13.99306000 -4.29514000 -2.47980000
  13.99306000 -7.15857000 -7.43941000
  13.99306000-15.74886000-12.39901000
  13.99306000-10.02200000 -2.47980000
  13.99306000-12.88543000 -7.43941000
  16.34180000-24.33915000-14.05221000
  16.34180000-18.61229000 -4.13300000
  16.34180000-21.47572000 -9.09261000
  16.34180000-12.88543000-14.05221000
  16.34180000 -7.15857000 -4.13300000
  16.34180000-10.02200000 -9.09261000
  16.34180000-18.61229000-14.05221000
  16.34180000-12.88543000 -4.13300000
  16.34180000-15.74886000 -9.09261000
   2.36204000 -8.59029000 -6.61281000
   2.36204000-11.45372000-11.57241000
   2.36204000 -5.72686000 -1.65320000
   2.36204000-14.31714000 -6.61281000
   2.36204000-17.18057000-11.57241000
   2.36204000-11.45372000 -1.65320000
   2.36204000-20.04400000 -6.61281000
   2.36204000-22.90743000-11.57241000
   2.36204000-17.18057000 -1.65320000
   4.71078000-11.45372000 -8.26601000
   4.71078000-14.31714000-13.22561000
   4.71078000 -8.59029000 -3.30640000
   4.71078000-17.18057000 -8.26601000
   4.71078000-20.04400000-13.22561000
   4.71078000-14.31714000 -3.30640000
   4.71078000 -5.72686000 -8.26601000
   4.71078000 -8.59029000-13.22561000
   4.71078000 -2.86343000 -3.30640000
   7.01272000-14.31714000 -9.91921000
   7.01272000 -8.59029000  0.00000000
   7.01272000-11.45372000 -4.95960000
   7.01272000-20.04400000 -9.91921000
   7.01272000-14.31714000  0.00000000
   7.01272000-17.18057000 -4.95960000
   7.01272000 -8.59029000 -9.91921000
   7.01272000 -2.86343000  0.00000000
   7.01272000 -5.72686000 -4.95960000
   9.35192000-17.18057000-11.57241000
   9.35192000-11.45372000 -1.65320000
   9.35192000-14.31714000 -6.61281000
   9.35192000-22.90743000-11.57241000
   9.35192000-17.18057000 -1.65320000
   9.35192000-20.04400000 -6.61281000
   9.35192000-11.45372000-11.57241000
   9.35192000 -5.72686000 -1.65320000
   9.35192000 -8.59029000 -6.61281000
  11.69112000-20.04400000-13.22561000
  11.69112000-14.31714000 -3.30640000
  11.69112000-17.18057000 -8.26601000
  11.69112000 -8.59029000-13.22561000
  11.69112000 -2.86343000 -3.30640000
  11.69112000 -5.72686000 -8.26601000
  11.69112000-14.31714000-13.22561000
  11.69112000 -8.59029000 -3.30640000
  11.69112000-11.45372000 -8.26601000
  13.99306000-14.31714000  0.00000000
  13.99306000-17.18057000 -4.95960000
  13.99306000-20.04400000 -9.91921000
  13.99306000 -2.86343000  0.00000000
  13.99306000 -5.72686000 -4.95960000
  13.99306000 -8.59029000 -9.91921000
  13.99306000 -8.59029000  0.00000000
  13.99306000-11.45372000 -4.95960000
  13.99306000-14.31714000 -9.91921000
  16.34180000-17.18057000 -1.65320000
  16.34180000-20.04400000 -6.61281000
  16.34180000-22.90743000-11.57241000
  16.34180000 -5.72686000 -1.65320000
  16.34180000 -8.59029000 -6.61281000
  16.34180000-11.45372000-11.57241000
  16.34180000-11.45372000 -1.65320000
  16.34180000-14.31714000 -6.61281000
  16.34180000-17.18057000-11.57241000
   2.36204000-10.02200000 -4.13300000
   2.36204000-12.88543000 -9.09261000
   2.36204000-15.74886000-14.05221000
   2.36204000-15.74886000 -4.13300000
   2.36204000-18.61229000 -9.09261000
   2.36204000-21.47572000-14.05221000
   2.36204000 -4.29514000 -4.13300000
   2.36204000 -7.15857000 -9.09261000
   2.36204000-10.02200000-14.05221000
   4.71078000-12.88543000 -5.78621000
   4.71078000-15.74886000-10.74581000
   4.71078000-10.02200000 -0.82660000
   4.71078000-18.61229000 -5.78621000
   4.71078000-21.47572000-10.74581000
   4.71078000-15.74886000 -0.82660000
   4.71078000 -7.15857000 -5.78621000
   4.71078000-10.02200000-10.74581000
   4.71078000 -4.29514000 -0.82660000
   7.01272000-15.74886000 -7.43941000
   7.01272000-18.61229000-12.39901000
   7.01272000-12.88543000 -2.47980000
   7.01272000-21.47571346 -7.43941000
   7.01272000-24.33914346-12.39901000
   7.01272000-18.61228346 -2.47980000
   7.01272000-10.02200000 -7.43941000
   7.01272000-12.88543000-12.39901000
   7.01272000 -7.15857000 -2.47980000
   9.35192000-18.61229000 -9.09261000
   9.35192000-21.47572000-14.05221000
   9.35192000-15.74886000 -4.13300000
   9.35192000 -7.15857000 -9.09261000
   9.35192000-10.02200000-14.05221000
   9.35192000 -4.29514000 -4.13300000
   9.35192000-12.88543000 -9.09261000
   9.35192000-15.74886000-14.05221000
   9.35192000-10.02200000 -4.13300000
  11.69112000-21.47572000-10.74581000
  11.69112000-15.74886000 -0.82660000
  11.69112000-18.61229000 -5.78621000
  11.69112000-10.02200000-10.74581000
  11.69112000 -4.29514000 -0.82660000
  11.69112000 -7.15857000 -5.78621000
  11.69112000-15.74886000-10.74581000
  11.69112000-10.02200000 -0.82660000
  11.69112000-12.88543000 -5.78621000
  13.99306000-24.33914346-12.39901000
  13.99306000-18.61228346 -2.47980000
  13.99306000-21.47571346 -7.43941000
  13.99306000-12.88543000-12.39901000
  13.99306000 -7.15857000 -2.47980000
  13.99306000-10.02200000 -7.43941000
  13.99306000-18.61229000-12.39901000
  13.99306000-12.88543000 -2.47980000
  13.99306000-15.74886000 -7.43941000
  16.34180000-10.02200000-14.05221000
  16.34180000 -4.29514000 -4.13300000
  16.34180000 -7.15857000 -9.09261000
  16.34180000-15.74886000-14.05221000
  16.34180000-10.02200000 -4.13300000
  16.34180000-12.88543000 -9.09261000
  16.34180000-21.47572000-14.05221000
  16.34180000-15.74886000 -4.13300000
  16.34180000-18.61229000 -9.09261000
  22.04000000-10.02200000 -7.16000000
  22.04000000-10.02200333 -6.06300000
 


--------------------------------------------------------------------------------------------------------


 k-point  1 :   0.0000 0.0000 0.0000  plane waves:   90499
 k-point  2 :   0.5000 0.0000 0.0000  plane waves:   90530
 k-point  3 :   0.0000 0.5000 0.0000  plane waves:   90530

 maximum and minimum number of plane-waves per node :     90530    90499

 maximum number of plane-waves:     90530
 maximum index in each direction: 
   IXMAX=   24   IYMAX=   24   IZMAX=   42
   IXMIN=  -24   IYMIN=  -24   IZMIN=  -42


 serial   3D FFT for wavefunctions
 parallel 3D FFT for charge:
    minimum data exchange during FFTs selected (reduces bandwidth)


 total amount of memory used by VASP MPI-rank0   652076. kBytes
=======================================================================

   base      :      30000. kBytes
   nonlr-proj:      89855. kBytes
   fftplans  :      40601. kBytes
   grid      :      95147. kBytes
   one-center:       3950. kBytes
   wavefun   :     392523. kBytes
 
     INWAV:  cpu time    0.0000: real time    0.0000
 Broyden mixing: mesh for mixing (old mesh)
   NGX = 49   NGY = 49   NGZ = 85
  (NGX  =160   NGY  =160   NGZ  =256)
  gives a total of 204085 points

 initial charge density was supplied:
 charge density of overlapping atoms calculated
 number of electron     766.0000000 magnetization 
 keeping initial charge density in first step


--------------------------------------------------------------------------------------------------------


 Maximum index for non-local projection operator         4261
 Maximum index for augmentation-charges          758 (set IRDMAX)


--------------------------------------------------------------------------------------------------------


 First call to EWALD:  gamma=   0.090
 Maximum number of real-space cells 3x 3x 2
 Maximum number of reciprocal cells 2x 2x 4

    FEWALD:  cpu time    0.0366: real time    0.0366


----------------------------------------- Iteration    1(   1)  ---------------------------------------


    POTLOK:  cpu time    0.9092: real time    0.9778
    SETDIJ:  cpu time    0.1074: real time    0.1104
     EDDAV:  cpu time   18.9067: real time   22.3622
       DOS:  cpu time    0.0023: real time    0.0024
    --------------------------------------------
      LOOP:  cpu time   19.9281: real time   23.5802

 eigenvalue-minimisations  :  3120
 total energy-change (2. order) : 0.2139095E+04  (-0.1839521E+05)
 number of electron     766.0000000 magnetization 
 augmentation part      766.0000000 magnetization 

 Free energy of the ion-electron system (eV)
  ---------------------------------------------------
  alpha Z        PSCENC =       505.22967617
  Ewald energy   TEWEN  =     85555.97065113
  -Hartree energ DENC   =    -99616.76617764
  -exchange      EXHF   =         0.00000000
  -V(xc)+E(xc)   XCENC  =     -6605.87785646
  PAW double counting   =     17092.30507181    -9042.14386232
  entropy T*S    EENTRO =        -0.07129730
  eigenvalues    EBANDS =       231.24685922
  atomic energy  EATOM  =     14019.20197576
  Solvation  Ediel_sol  =         0.00000000
  ---------------------------------------------------
  free energy    TOTEN  =      2139.09504036 eV

  energy without entropy =     2139.16633766  energy(sigma->0) =     2139.13068901


--------------------------------------------------------------------------------------------------------




----------------------------------------- Iteration    1(   2)  ---------------------------------------


     EDDAV:  cpu time   23.5845: real time   27.7157
       DOS:  cpu time    0.0103: real time    0.0103
    --------------------------------------------
      LOOP:  cpu time   23.5963: real time   27.7287

 eigenvalue-minimisations  :  4200
 total energy-change (2. order) :-0.2881812E+04  (-0.2716709E+04)
 number of electron     766.0000000 magnetization 
 augmentation part      766.0000000 magnetization 

 Free energy of the ion-electron system (eV)
  ---------------------------------------------------
  alpha Z        PSCENC =       505.22967617
  Ewald energy   TEWEN  =     85555.97065113
  -Hartree energ DENC   =    -99616.76617764
  -exchange      EXHF   =         0.00000000
  -V(xc)+E(xc)   XCENC  =     -6605.87785646
  PAW double counting   =     17092.30507181    -9042.14386232
  entropy T*S    EENTRO =        -0.10635130
  eigenvalues    EBANDS =     -2650.53018790
  atomic energy  EATOM  =     14019.20197576
  Solvation  Ediel_sol  =         0.00000000
  ---------------------------------------------------
  free energy    TOTEN  =      -742.71706076 eV

  energy without entropy =     -742.61070946  energy(sigma->0) =     -742.66388511


--------------------------------------------------------------------------------------------------------




----------------------------------------- Iteration    1(   3)  ---------------------------------------


     EDDAV:  cpu time   24.7511: real time   28.9546
       DOS:  cpu time    0.0023: real time    0.0023
    --------------------------------------------
      LOOP:  cpu time   24.7549: real time   28.9598

 eigenvalue-minimisations  :  4428
 total energy-change (2. order) :-0.2130877E+03  (-0.2049013E+03)
 number of electron     766.0000000 magnetization 
 augmentation part      766.0000000 magnetization 

 Free energy of the ion-electron system (eV)
  ---------------------------------------------------
  alpha Z        PSCENC =       505.22967617
  Ewald energy   TEWEN  =     85555.97065113
  -Hartree energ DENC   =    -99616.76617764
  -exchange      EXHF   =         0.00000000
  -V(xc)+E(xc)   XCENC  =     -6605.87785646
  PAW double counting   =     17092.30507181    -9042.14386232
  entropy T*S    EENTRO =        -0.23025818
  eigenvalues    EBANDS =     -2863.49396042
  atomic energy  EATOM  =     14019.20197576
  Solvation  Ediel_sol  =         0.00000000
  ---------------------------------------------------
  free energy    TOTEN  =      -955.80474016 eV

  energy without entropy =     -955.57448198  energy(sigma->0) =     -955.68961107


--------------------------------------------------------------------------------------------------------




----------------------------------------- Iteration    1(   4)  ---------------------------------------


     EDDAV:  cpu time   24.2236: real time   28.4018
       DOS:  cpu time    0.0016: real time    0.0016
    --------------------------------------------
      LOOP:  cpu time   24.2266: real time   28.4063

 eigenvalue-minimisations  :  4320
 total energy-change (2. order) :-0.7764583E+01  (-0.7594314E+01)
 number of electron     766.0000000 magnetization 
 augmentation part      766.0000000 magnetization 

 Free energy of the ion-electron system (eV)
  ---------------------------------------------------
  alpha Z        PSCENC =       505.22967617
  Ewald energy   TEWEN  =     85555.97065113
  -Hartree energ DENC   =    -99616.76617764
  -exchange      EXHF   =         0.00000000
  -V(xc)+E(xc)   XCENC  =     -6605.87785646
  PAW double counting   =     17092.30507181    -9042.14386232
  entropy T*S    EENTRO =        -0.25751117
  eigenvalues    EBANDS =     -2871.23129034
  atomic energy  EATOM  =     14019.20197576
  Solvation  Ediel_sol  =         0.00000000
  ---------------------------------------------------
  free energy    TOTEN  =      -963.56932306 eV

  energy without entropy =     -963.31181189  energy(sigma->0) =     -963.44056748


--------------------------------------------------------------------------------------------------------




----------------------------------------- Iteration    1(   5)  ---------------------------------------


     EDDAV:  cpu time   26.9217: real time   31.4976
       DOS:  cpu time    0.0013: real time    0.0013
    CHARGE:  cpu time    1.9533: real time    2.0404
    MIXING:  cpu time    0.0281: real time    0.0281
    --------------------------------------------
      LOOP:  cpu time   28.9060: real time   33.5703

 eigenvalue-minimisations  :  4932
 total energy-change (2. order) :-0.4240294E+00  (-0.4224479E+00)
 number of electron     765.9999969 magnetization 
 augmentation part       -9.8951345 magnetization 

 Broyden mixing:
  rms(total) = 0.19619E+01    rms(broyden)= 0.19602E+01
  rms(prec ) = 0.26896E+01
  weight for this iteration     100.00

 Free energy of the ion-electron system (eV)
  ---------------------------------------------------
  alpha Z        PSCENC =       505.22967617
  Ewald energy   TEWEN  =     85555.97065113
  -Hartree energ DENC   =    -99616.76617764
  -exchange      EXHF   =         0.00000000
  -V(xc)+E(xc)   XCENC  =     -6605.87785646
  PAW double counting   =     17092.30507181    -9042.14386232
  entropy T*S    EENTRO =        -0.25944307
  eigenvalues    EBANDS =     -2871.65338779
  atomic energy  EATOM  =     14019.20197576
  Solvation  Ediel_sol  =         0.00000000
  ---------------------------------------------------
  free energy    TOTEN  =      -963.99335242 eV

  energy without entropy =     -963.73390935  energy(sigma->0) =     -963.86363088


--------------------------------------------------------------------------------------------------------




----------------------------------------- Iteration    1(   6)  ---------------------------------------


    POTLOK:  cpu time    0.8785: real time    0.8795
    SETDIJ:  cpu time    0.1118: real time    0.1119
     EDDAV:  cpu time   24.5385: real time   28.6935
       DOS:  cpu time    0.0073: real time    0.0073
    CHARGE:  cpu time    1.9649: real time    2.0127
    MIXING:  cpu time    0.0292: real time    0.0294
    --------------------------------------------
      LOOP:  cpu time   27.5322: real time   31.7375

 eigenvalue-minimisations  :  4356
 total energy-change (2. order) :-0.1472687E+02  (-0.1897904E+02)
 number of electron     765.9999971 magnetization 
 augmentation part       -9.8668137 magnetization 

 Broyden mixing:
  rms(total) = 0.19002E+01    rms(broyden)= 0.19001E+01
  rms(prec ) = 0.42067E+01
  weight for this iteration     100.00

 eigenvalues of (default mixing * dielectric matrix)
  average eigenvalue GAMMA=   0.7983
  0.7983

 Free energy of the ion-electron system (eV)
  ---------------------------------------------------
  alpha Z        PSCENC =       505.22967617
  Ewald energy   TEWEN  =     85555.97065113
  -Hartree energ DENC   =   -100542.60607867
  -exchange      EXHF   =         0.00000000
  -V(xc)+E(xc)   XCENC  =     -6595.55204823
  PAW double counting   =     19105.16620699   -11056.45084164
  entropy T*S    EENTRO =        -0.17245762
  eigenvalues    EBANDS =     -1969.50730369
  atomic energy  EATOM  =     14019.20197576
  Solvation  Ediel_sol  =         0.00000000
  ---------------------------------------------------
  free energy    TOTEN  =      -978.72021981 eV

  energy without entropy =     -978.54776219  energy(sigma->0) =     -978.63399100


--------------------------------------------------------------------------------------------------------




----------------------------------------- Iteration    1(   7)  ---------------------------------------


    POTLOK:  cpu time    0.8818: real time    0.8830
    SETDIJ:  cpu time    0.1092: real time    0.1092
     EDDAV:  cpu time   22.7550: real time   26.6812
       DOS:  cpu time    0.0013: real time    0.0013
    CHARGE:  cpu time    1.9325: real time    1.9799
    MIXING:  cpu time    0.0297: real time    0.0297
    --------------------------------------------
      LOOP:  cpu time   25.7113: real time   29.6874

 eigenvalue-minimisations  :  3984
 total energy-change (2. order) : 0.4024367E+02  (-0.1339423E+02)
 number of electron     765.9999971 magnetization 
 augmentation part       -9.9087677 magnetization 

 Broyden mixing:
  rms(total) = 0.10156E+01    rms(broyden)= 0.10156E+01
  rms(prec ) = 0.12911E+01
  weight for this iteration     100.00

 eigenvalues of (default mixing * dielectric matrix)
  average eigenvalue GAMMA=   1.1907
  2.0686  0.3128

 Free energy of the ion-electron system (eV)
  ---------------------------------------------------
  alpha Z        PSCENC =       505.22967617
  Ewald energy   TEWEN  =     85555.97065113
  -Hartree energ DENC   =   -100015.34357520
  -exchange      EXHF   =         0.00000000
  -V(xc)+E(xc)   XCENC  =     -6593.35474968
  PAW double counting   =     19506.40953134   -11457.83858483
  entropy T*S    EENTRO =        -0.04852006
  eigenvalues    EBANDS =     -2458.70294976
  atomic energy  EATOM  =     14019.20197576
  Solvation  Ediel_sol  =         0.00000000
  ---------------------------------------------------
  free energy    TOTEN  =      -938.47654512 eV

  energy without entropy =     -938.42802507  energy(sigma->0) =     -938.45228509


--------------------------------------------------------------------------------------------------------




----------------------------------------- Iteration    1(   8)  ---------------------------------------


    POTLOK:  cpu time    0.8900: real time    0.8912
    SETDIJ:  cpu time    0.1091: real time    0.1093
     EDDAV:  cpu time   22.0344: real time   25.8603
       DOS:  cpu time    0.0026: real time    0.0026
    CHARGE:  cpu time    1.9719: real time    2.0194
    MIXING:  cpu time    0.0317: real time    0.0317
    --------------------------------------------
      LOOP:  cpu time   25.0417: real time   28.9175

 eigenvalue-minimisations  :  3816
 total energy-change (2. order) : 0.4790625E+00  (-0.4737616E+01)
 number of electron     765.9999970 magnetization 
 augmentation part      -10.0766249 magnetization 

 Broyden mixing:
  rms(total) = 0.47445E+00    rms(broyden)= 0.47444E+00
  rms(prec ) = 0.60957E+00
  weight for this iteration     100.00

 eigenvalues of (default mixing * dielectric matrix)
  average eigenvalue GAMMA=   1.1581
  2.4769  0.7026  0.2948

 Free energy of the ion-electron system (eV)
  ---------------------------------------------------
  alpha Z        PSCENC =       505.22967617
  Ewald energy   TEWEN  =     85555.97065113
  -Hartree energ DENC   =   -100191.51487414
  -exchange      EXHF   =         0.00000000
  -V(xc)+E(xc)   XCENC  =     -6583.56868896
  PAW double counting   =     21146.38075769   -13098.75688998
  entropy T*S    EENTRO =        -0.05787467
  eigenvalues    EBANDS =     -2290.88221566
  atomic energy  EATOM  =     14019.20197576
  Solvation  Ediel_sol  =         0.00000000
  ---------------------------------------------------
  free energy    TOTEN  =      -937.99748267 eV

  energy without entropy =     -937.93960800  energy(sigma->0) =     -937.96854533


--------------------------------------------------------------------------------------------------------




----------------------------------------- Iteration    1(   9)  ---------------------------------------


    POTLOK:  cpu time    0.8849: real time    0.8878
    SETDIJ:  cpu time    0.1115: real time    0.1115
     EDDAV:  cpu time   21.4504: real time   25.2254
       DOS:  cpu time    0.0012: real time    0.0012
    CHARGE:  cpu time    1.8967: real time    1.9427
    MIXING:  cpu time    0.0329: real time    0.0329
    --------------------------------------------
      LOOP:  cpu time   24.3795: real time   28.2046

 eigenvalue-minimisations  :  3684
 total energy-change (2. order) : 0.2053545E+01  (-0.5269195E+00)
 number of electron     765.9999971 magnetization 
 augmentation part      -10.1408481 magnetization 

 Broyden mixing:
  rms(total) = 0.12618E+00    rms(broyden)= 0.12617E+00
  rms(prec ) = 0.20322E+00
  weight for this iteration     100.00

 eigenvalues of (default mixing * dielectric matrix)
  average eigenvalue GAMMA=   1.2263
  2.4091  1.5240  0.2967  0.6753

 Free energy of the ion-electron system (eV)
  ---------------------------------------------------
  alpha Z        PSCENC =       505.22967617
  Ewald energy   TEWEN  =     85555.97065113
  -Hartree energ DENC   =   -100362.78627893
  -exchange      EXHF   =         0.00000000
  -V(xc)+E(xc)   XCENC  =     -6575.86314504
  PAW double counting   =     22401.76403583   -14355.15346509
  entropy T*S    EENTRO =        -0.05508088
  eigenvalues    EBANDS =     -2124.25230655
  atomic energy  EATOM  =     14019.20197576
  Solvation  Ediel_sol  =         0.00000000
  ---------------------------------------------------
  free energy    TOTEN  =      -935.94393761 eV

  energy without entropy =     -935.88885673  energy(sigma->0) =     -935.91639717


--------------------------------------------------------------------------------------------------------




----------------------------------------- Iteration    1(  10)  ---------------------------------------


    POTLOK:  cpu time    0.8878: real time    0.8891
    SETDIJ:  cpu time    0.1092: real time    0.1092
     EDDAV:  cpu time   24.5758: real time   28.6994
       DOS:  cpu time    0.0174: real time    0.0175
    CHARGE:  cpu time    1.9677: real time    2.0152
    MIXING:  cpu time    0.0345: real time    0.0345
    --------------------------------------------
      LOOP:  cpu time   27.5945: real time   31.7690

 eigenvalue-minimisations  :  4380
 total energy-change (2. order) :-0.4750471E+00  (-0.9528944E-01)
 number of electron     765.9999972 magnetization 
 augmentation part      -10.1462675 magnetization 

 Broyden mixing:
  rms(total) = 0.18904E+00    rms(broyden)= 0.18904E+00
  rms(prec ) = 0.67213E+00
  weight for this iteration     100.00

 eigenvalues of (default mixing * dielectric matrix)
  average eigenvalue GAMMA=   1.0377
  2.3981  1.6101  0.6661  0.2976  0.2167

 Free energy of the ion-electron system (eV)
  ---------------------------------------------------
  alpha Z        PSCENC =       505.22967617
  Ewald energy   TEWEN  =     85555.97065113
  -Hartree energ DENC   =   -100407.31600316
  -exchange      EXHF   =         0.00000000
  -V(xc)+E(xc)   XCENC  =     -6575.22914064
  PAW double counting   =     22432.99628701   -14386.66085675
  entropy T*S    EENTRO =        -0.05571457
  eigenvalues    EBANDS =     -2080.55585967
  atomic energy  EATOM  =     14019.20197576
  Solvation  Ediel_sol  =         0.00000000
  ---------------------------------------------------
  free energy    TOTEN  =      -936.41898473 eV

  energy without entropy =     -936.36327016  energy(sigma->0) =     -936.39112744


--------------------------------------------------------------------------------------------------------




----------------------------------------- Iteration    1(  11)  ---------------------------------------


    POTLOK:  cpu time    0.8837: real time    0.8849
    SETDIJ:  cpu time    0.1089: real time    0.1089
     EDDAV:  cpu time   23.4976: real time   27.5560
       DOS:  cpu time    0.0021: real time    0.0021
    CHARGE:  cpu time    1.9557: real time    2.0032
    MIXING:  cpu time    0.0354: real time    0.0357
    --------------------------------------------
      LOOP:  cpu time   26.4855: real time   30.5941

 eigenvalue-minimisations  :  4152
 total energy-change (2. order) : 0.6205493E+00  (-0.4072830E-01)
 number of electron     765.9999971 magnetization 
 augmentation part      -10.1490134 magnetization 

 Broyden mixing:
  rms(total) = 0.62727E-01    rms(broyden)= 0.62726E-01
  rms(prec ) = 0.88210E-01
  weight for this iteration     100.00

 eigenvalues of (default mixing * dielectric matrix)
  average eigenvalue GAMMA=   1.0556
  2.3526  1.9658  0.7894  0.7894  0.2963  0.1400

 Free energy of the ion-electron system (eV)
  ---------------------------------------------------
  alpha Z        PSCENC =       505.22967617
  Ewald energy   TEWEN  =     85555.97065113
  -Hartree energ DENC   =   -100432.63340039
  -exchange      EXHF   =         0.00000000
  -V(xc)+E(xc)   XCENC  =     -6574.85403923
  PAW double counting   =     22446.84690002   -14400.67153559
  entropy T*S    EENTRO =        -0.05525568
  eigenvalues    EBANDS =     -2054.83340760
  atomic energy  EATOM  =     14019.20197576
  Solvation  Ediel_sol  =         0.00000000
  ---------------------------------------------------
  free energy    TOTEN  =      -935.79843540 eV

  energy without entropy =     -935.74317973  energy(sigma->0) =     -935.77080757


--------------------------------------------------------------------------------------------------------




----------------------------------------- Iteration    1(  12)  ---------------------------------------


    POTLOK:  cpu time    0.8913: real time    0.8924
    SETDIJ:  cpu time    0.1120: real time    0.1120
     EDDAV:  cpu time   21.2185: real time   24.9112
       DOS:  cpu time    0.0025: real time    0.0025
    CHARGE:  cpu time    1.8943: real time    1.9401
    MIXING:  cpu time    0.0366: real time    0.0379
    --------------------------------------------
      LOOP:  cpu time   24.1569: real time   27.8992

 eigenvalue-minimisations  :  3648
 total energy-change (2. order) : 0.3034087E-01  (-0.1934022E-01)
 number of electron     765.9999971 magnetization 
 augmentation part      -10.1579840 magnetization 

 Broyden mixing:
  rms(total) = 0.43223E-01    rms(broyden)= 0.43223E-01
  rms(prec ) = 0.62150E-01
  weight for this iteration     100.00

 eigenvalues of (default mixing * dielectric matrix)
  average eigenvalue GAMMA=   1.1691
  2.4000  2.4000  1.1300  1.1300  0.6875  0.2965  0.1394

 Free energy of the ion-electron system (eV)
  ---------------------------------------------------
  alpha Z        PSCENC =       505.22967617
  Ewald energy   TEWEN  =     85555.97065113
  -Hartree energ DENC   =   -100468.61755120
  -exchange      EXHF   =         0.00000000
  -V(xc)+E(xc)   XCENC  =     -6574.23810756
  PAW double counting   =     22465.81371773   -14419.82744961
  entropy T*S    EENTRO =        -0.05531548
  eigenvalues    EBANDS =     -2019.24569147
  atomic energy  EATOM  =     14019.20197576
  Solvation  Ediel_sol  =         0.00000000
  ---------------------------------------------------
  free energy    TOTEN  =      -935.76809453 eV

  energy without entropy =     -935.71277905  energy(sigma->0) =     -935.74043679


--------------------------------------------------------------------------------------------------------




----------------------------------------- Iteration    1(  13)  ---------------------------------------


    POTLOK:  cpu time    0.8839: real time    0.8847
    SETDIJ:  cpu time    0.1095: real time    0.1095
     EDDAV:  cpu time   22.4037: real time   26.3242
       DOS:  cpu time    0.0012: real time    0.0012
    CHARGE:  cpu time    1.9574: real time    2.0041
    MIXING:  cpu time    0.0393: real time    0.0393
    --------------------------------------------
      LOOP:  cpu time   25.3968: real time   29.3671

 eigenvalue-minimisations  :  3948
 total energy-change (2. order) : 0.2519184E-01  (-0.5974370E-02)
 number of electron     765.9999971 magnetization 
 augmentation part      -10.1563626 magnetization 

 Broyden mixing:
  rms(total) = 0.20844E-01    rms(broyden)= 0.20843E-01
  rms(prec ) = 0.35946E-01
  weight for this iteration     100.00

 eigenvalues of (default mixing * dielectric matrix)
  average eigenvalue GAMMA=   1.2455
  2.9161  2.6748  1.1665  1.1665  0.9056  0.6985  0.2964  0.1394

 Free energy of the ion-electron system (eV)
  ---------------------------------------------------
  alpha Z        PSCENC =       505.22967617
  Ewald energy   TEWEN  =     85555.97065113
  -Hartree energ DENC   =   -100507.32339408
  -exchange      EXHF   =         0.00000000
  -V(xc)+E(xc)   XCENC  =     -6573.76939697
  PAW double counting   =     22461.58376301   -14415.72516269
  entropy T*S    EENTRO =        -0.05539677
  eigenvalues    EBANDS =     -1980.85561823
  atomic energy  EATOM  =     14019.20197576
  Solvation  Ediel_sol  =         0.00000000
  ---------------------------------------------------
  free energy    TOTEN  =      -935.74290270 eV

  energy without entropy =     -935.68750592  energy(sigma->0) =     -935.71520431


--------------------------------------------------------------------------------------------------------




----------------------------------------- Iteration    1(  14)  ---------------------------------------


    POTLOK:  cpu time    0.8911: real time    0.8925
    SETDIJ:  cpu time    0.1084: real time    0.1084
     EDDAV:  cpu time   21.5840: real time   25.3666
       DOS:  cpu time    0.0012: real time    0.0012
    CHARGE:  cpu time    1.8985: real time    1.9443
    MIXING:  cpu time    0.0408: real time    0.0408
    --------------------------------------------
      LOOP:  cpu time   24.5258: real time   28.3567

 eigenvalue-minimisations  :  3756
 total energy-change (2. order) : 0.3349879E-02  (-0.2610669E-02)
 number of electron     765.9999971 magnetization 
 augmentation part      -10.1545513 magnetization 

 Broyden mixing:
  rms(total) = 0.15247E-01    rms(broyden)= 0.15247E-01
  rms(prec ) = 0.24993E-01
  weight for this iteration     100.00

 eigenvalues of (default mixing * dielectric matrix)
  average eigenvalue GAMMA=   1.2866
  3.4350  2.5341  1.4631  1.1539  1.1539  0.2964  0.6790  0.7241  0.1394

 Free energy of the ion-electron system (eV)
  ---------------------------------------------------
  alpha Z        PSCENC =       505.22967617
  Ewald energy   TEWEN  =     85555.97065113
  -Hartree energ DENC   =   -100539.03404442
  -exchange      EXHF   =         0.00000000
  -V(xc)+E(xc)   XCENC  =     -6573.42715052
  PAW double counting   =     22458.56536663   -14412.75249925
  entropy T*S    EENTRO =        -0.05550128
  eigenvalues    EBANDS =     -1949.43802702
  atomic energy  EATOM  =     14019.20197576
  Solvation  Ediel_sol  =         0.00000000
  ---------------------------------------------------
  free energy    TOTEN  =      -935.73955282 eV

  energy without entropy =     -935.68405154  energy(sigma->0) =     -935.71180218


--------------------------------------------------------------------------------------------------------




----------------------------------------- Iteration    1(  15)  ---------------------------------------


    POTLOK:  cpu time    0.8968: real time    0.8979
    SETDIJ:  cpu time    0.1100: real time    0.1100
     EDDAV:  cpu time   21.9951: real time   25.8334
       DOS:  cpu time    0.0012: real time    0.0012
    CHARGE:  cpu time    1.9570: real time    2.0047
    MIXING:  cpu time    0.0463: real time    0.0463
    --------------------------------------------
      LOOP:  cpu time   25.0084: real time   28.8968

 eigenvalue-minimisations  :  3852
 total energy-change (2. order) :-0.4545625E-02  (-0.7287057E-03)
 number of electron     765.9999971 magnetization 
 augmentation part      -10.1539556 magnetization 

 Broyden mixing:
  rms(total) = 0.12068E-01    rms(broyden)= 0.12068E-01
  rms(prec ) = 0.18297E-01
  weight for this iteration     100.00

 eigenvalues of (default mixing * dielectric matrix)
  average eigenvalue GAMMA=   1.3622
  3.8428  2.5325  2.1807  1.2792  1.2792  0.2964  0.8385  0.6901  0.1394  0.5427

 Free energy of the ion-electron system (eV)
  ---------------------------------------------------
  alpha Z        PSCENC =       505.22967617
  Ewald energy   TEWEN  =     85555.97065113
  -Hartree energ DENC   =   -100553.08177419
  -exchange      EXHF   =         0.00000000
  -V(xc)+E(xc)   XCENC  =     -6573.31089181
  PAW double counting   =     22457.73476538   -14411.89862176
  entropy T*S    EENTRO =        -0.05556560
  eigenvalues    EBANDS =     -1935.53431352
  atomic energy  EATOM  =     14019.20197576
  Solvation  Ediel_sol  =         0.00000000
  ---------------------------------------------------
  free energy    TOTEN  =      -935.74409844 eV

  energy without entropy =     -935.68853284  energy(sigma->0) =     -935.71631564


--------------------------------------------------------------------------------------------------------




----------------------------------------- Iteration    1(  16)  ---------------------------------------


    POTLOK:  cpu time    0.8963: real time    0.8977
    SETDIJ:  cpu time    0.1109: real time    0.1110
     EDDAV:  cpu time   20.4169: real time   24.0480
       DOS:  cpu time    0.0080: real time    0.0080
    CHARGE:  cpu time    1.9481: real time    1.9946
    MIXING:  cpu time    0.0473: real time    0.0473
    --------------------------------------------
      LOOP:  cpu time   23.4294: real time   27.1096

 eigenvalue-minimisations  :  3468
 total energy-change (2. order) :-0.8055713E-02  (-0.4733501E-03)
 number of electron     765.9999971 magnetization 
 augmentation part      -10.1536331 magnetization 

 Broyden mixing:
  rms(total) = 0.70345E-02    rms(broyden)= 0.70343E-02
  rms(prec ) = 0.10547E-01
  weight for this iteration     100.00

 eigenvalues of (default mixing * dielectric matrix)
  average eigenvalue GAMMA=   1.4652
  4.6594  3.1466  2.4538  1.3933  1.0366  1.0366  0.2964  0.7111  0.7513  0.1394
  0.4926

 Free energy of the ion-electron system (eV)
  ---------------------------------------------------
  alpha Z        PSCENC =       505.22967617
  Ewald energy   TEWEN  =     85555.97065113
  -Hartree energ DENC   =   -100565.81683478
  -exchange      EXHF   =         0.00000000
  -V(xc)+E(xc)   XCENC  =     -6573.25990028
  PAW double counting   =     22453.63748489   -14407.74412012
  entropy T*S    EENTRO =        -0.05562761
  eigenvalues    EBANDS =     -1922.91545931
  atomic energy  EATOM  =     14019.20197576
  Solvation  Ediel_sol  =         0.00000000
  ---------------------------------------------------
  free energy    TOTEN  =      -935.75215415 eV

  energy without entropy =     -935.69652655  energy(sigma->0) =     -935.72434035


--------------------------------------------------------------------------------------------------------




----------------------------------------- Iteration    1(  17)  ---------------------------------------


    POTLOK:  cpu time    0.9051: real time    0.9066
    SETDIJ:  cpu time    0.1123: real time    0.1123
     EDDAV:  cpu time   23.0269: real time   27.0371
       DOS:  cpu time    0.0023: real time    0.0023
    CHARGE:  cpu time    1.9599: real time    2.0076
    MIXING:  cpu time    0.0510: real time    0.0512
    --------------------------------------------
[...]
     11.69112     -8.59029     -8.26601         0.001206      0.000093      0.000016
     11.69112    -17.18057    -13.22561         0.001334     -0.000015     -0.000119
     11.69112    -11.45372     -3.30640         0.001267      0.000004      0.000102
     11.69112    -14.31714     -8.26601         0.001214     -0.000054      0.000083
     13.99306      0.00000      0.00000        -0.000736      0.000039      0.000014
     13.99306     -2.86343     -4.95960        -0.000882      0.000039      0.000052
     13.99306     -5.72686     -9.91921        -0.000912      0.000020     -0.000081
     13.99306     -5.72686      0.00000        -0.000872      0.000042      0.000041
     13.99306     -8.59029     -4.95960        -0.000432     -0.000051      0.000123
     13.99306    -11.45372     -9.91921        -0.001045      0.000031     -0.000061
     13.99306    -11.45372      0.00000        -0.000821     -0.000046      0.000008
     13.99306    -14.31714     -4.95960        -0.000790     -0.000007      0.000120
     13.99306    -17.18057     -9.91921        -0.000906     -0.000050     -0.000050
     16.34180     -2.86343     -1.65320        -0.000577      0.000026      0.000143
     16.34180     -5.72686     -6.61281        -0.000780      0.000099     -0.000070
     16.34180     -8.59029    -11.57241        -0.000509      0.000013      0.000015
     16.34180     -8.59029     -1.65320        -0.000478     -0.000048      0.000095
     16.34180    -11.45372     -6.61281         0.000173     -0.000348     -0.000027
     16.34180    -14.31714    -11.57241        -0.000679      0.000033     -0.000063
     16.34180    -14.31714     -1.65320        -0.000434      0.000020      0.000123
     16.34180    -17.18057     -6.61281        -0.000666      0.000021      0.000043
     16.34180    -20.04400    -11.57241        -0.000581     -0.000059     -0.000084
      2.36204     -7.15857     -4.13300        -0.000110      0.000075      0.000157
      2.36204    -10.02200     -9.09261        -0.000125     -0.000000     -0.000234
      2.36204    -12.88543    -14.05221        -0.000034      0.000064     -0.000039
      2.36204    -12.88543     -4.13300        -0.000110     -0.000075      0.000157
      2.36204    -15.74886     -9.09261        -0.000202      0.000047      0.000077
      2.36204    -18.61229    -14.05221        -0.000148     -0.000000     -0.000110
      2.36204    -18.61229     -4.13300         0.000009     -0.000000      0.000048
      2.36204    -21.47572     -9.09261        -0.000202     -0.000047      0.000077
      2.36204    -24.33915    -14.05221        -0.000034     -0.000064     -0.000039
      4.71078    -10.02200     -5.78621        -0.000775     -0.000000      0.000171
      4.71078    -12.88543    -10.74581        -0.001149     -0.000021      0.000012
      4.71078     -7.15857     -0.82660        -0.000969     -0.000073      0.000047
      4.71078    -15.74886     -5.78621        -0.001030     -0.000002     -0.000013
      4.71078    -18.61229    -10.74581        -0.001014     -0.000000     -0.000015
      4.71078    -12.88543     -0.82660        -0.000969      0.000073      0.000047
      4.71078     -4.29514     -5.78621        -0.001030      0.000002     -0.000013
      4.71078     -7.15857    -10.74581        -0.001149      0.000021      0.000012
      4.71078     -1.43171     -0.82660        -0.000868     -0.000000      0.000060
      7.01272    -12.88543     -7.43941         0.001069     -0.000170     -0.000011
      7.01272    -15.74886    -12.39901         0.000849     -0.000043     -0.000043
      7.01272    -10.02200     -2.47980         0.000996     -0.000000      0.000241
      7.01272    -18.61229     -7.43941         0.000992     -0.000000      0.000024
      7.01272    -21.47572    -12.39901         0.000849      0.000043     -0.000043
      7.01272    -15.74886     -2.47980         0.000869     -0.000020      0.000078
      7.01272     -7.15857     -7.43941         0.001069      0.000170     -0.000011
      7.01272    -10.02200    -12.39901         0.000967     -0.000000     -0.000115
      7.01272     -4.29514     -2.47980         0.000869      0.000020      0.000078
      9.35192    -15.74886     -9.09261         0.001111      0.000028      0.000092
      9.35192    -18.61229    -14.05221         0.000966     -0.000000     -0.000064
      9.35192    -12.88543     -4.13300         0.001121     -0.000079      0.000015
      9.35192    -21.47572     -9.09261         0.001111     -0.000028      0.000092
      9.35192    -24.33915    -14.05221         0.001004     -0.000015     -0.000052
      9.35192    -18.61229     -4.13300         0.001058     -0.000000      0.000005
      9.35192    -10.02200     -9.09261         0.001109     -0.000000     -0.000042
      9.35192    -12.88543    -14.05221         0.001004      0.000015     -0.000052
      9.35192     -7.15857     -4.13300         0.001121      0.000079      0.000015
     11.69112    -18.61229    -10.74581         0.001413     -0.000000      0.000026
     11.69112    -12.88543     -0.82660         0.001257      0.000100      0.000071
     11.69112    -15.74886     -5.78621         0.001303      0.000029     -0.000064
     11.69112     -7.15857    -10.74581         0.001315     -0.000021      0.000029
     11.69112     -1.43171     -0.82660         0.001231     -0.000000      0.000121
     11.69112     -4.29514     -5.78621         0.001303     -0.000029     -0.000064
     11.69112    -12.88543    -10.74581         0.001315      0.000021      0.000029
     11.69112     -7.15857     -0.82660         0.001257     -0.000100      0.000071
     11.69112    -10.02200     -5.78621         0.001427     -0.000000      0.000090
     13.99306    -21.47572    -12.39901        -0.000901     -0.000042      0.000033
     13.99306    -15.74886     -2.47980        -0.000934      0.000055     -0.000025
     13.99306    -18.61229     -7.43941        -0.000817     -0.000000      0.000058
     13.99306    -10.02200    -12.39901        -0.001041     -0.000000      0.000140
     13.99306     -4.29514     -2.47980        -0.000934     -0.000055     -0.000025
     13.99306     -7.15857     -7.43941        -0.000408      0.000015     -0.000016
     13.99306    -15.74886    -12.39901        -0.000901      0.000042      0.000033
     13.99306    -10.02200     -2.47980        -0.001164     -0.000000     -0.000035
     13.99306    -12.88543     -7.43941        -0.000408     -0.000015     -0.000016
     16.34180    -24.33915    -14.05221        -0.000624     -0.000047      0.000029
     16.34180    -18.61229     -4.13300        -0.000723     -0.000000     -0.000051
     16.34180    -21.47572     -9.09261        -0.000632     -0.000003      0.000084
     16.34180    -12.88543    -14.05221        -0.000624      0.000047      0.000029
     16.34180     -7.15857     -4.13300        -0.000439     -0.000182      0.000025
     16.34180    -10.02200     -9.09261         0.000599     -0.000000     -0.000023
     16.34180    -18.61229    -14.05221        -0.000662     -0.000000     -0.000101
     16.34180    -12.88543     -4.13300        -0.000439      0.000182      0.000025
     16.34180    -15.74886     -9.09261        -0.000632      0.000003      0.000084
      2.36204     -8.59029     -6.61281         0.000424      0.000337     -0.000081
      2.36204    -11.45372    -11.57241        -0.000225      0.000077      0.000034
      2.36204     -5.72686     -1.65320        -0.000233     -0.000041      0.000017
      2.36204    -14.31714     -6.61281        -0.000046     -0.000125     -0.000048
      2.36204    -17.18057    -11.57241        -0.000113     -0.000035      0.000026
      2.36204    -11.45372     -1.65320        -0.000291      0.000068      0.000083
      2.36204    -20.04400     -6.61281        -0.000061     -0.000062     -0.000065
      2.36204    -22.90743    -11.57241        -0.000078     -0.000040      0.000123
      2.36204    -17.18057     -1.65320        -0.000131     -0.000016      0.000079
      4.71078    -11.45372     -8.26601        -0.000813     -0.000082     -0.000057
      4.71078    -14.31714    -13.22561        -0.001068      0.000006      0.000026
      4.71078     -8.59029     -3.30640        -0.001119     -0.000056      0.000126
      4.71078    -17.18057     -8.26601        -0.000960      0.000040      0.000071
      4.71078    -20.04400    -13.22561        -0.000984      0.000021     -0.000051
      4.71078    -14.31714     -3.30640        -0.001081     -0.000003     -0.000021
      4.71078     -5.72686     -8.26601        -0.000935      0.000033     -0.000008
      4.71078     -8.59029    -13.22561        -0.001027     -0.000046      0.000027
      4.71078     -2.86343     -3.30640        -0.001087      0.000035     -0.000018
      7.01272    -14.31714     -9.91921         0.000966     -0.000007      0.000171
      7.01272     -8.59029      0.00000         0.001034     -0.000118     -0.000034
      7.01272    -11.45372     -4.95960         0.000842     -0.000054      0.000004
      7.01272    -20.04400     -9.91921         0.000852     -0.000086      0.000132
      7.01272    -14.31714      0.00000         0.000983     -0.000016     -0.000017
      7.01272    -17.18057     -4.95960         0.000868      0.000040     -0.000072
      7.01272     -8.59029     -9.91921         0.000882      0.000041      0.000011
      7.01272     -2.86343      0.00000         0.001062      0.000082      0.000047
      7.01272     -5.72686     -4.95960         0.000989      0.000046     -0.000131
      9.35192    -17.18057    -11.57241         0.001145     -0.000023     -0.000003
      9.35192    -11.45372     -1.65320         0.001202      0.000063      0.000045
      9.35192    -14.31714     -6.61281         0.000927     -0.000023      0.000014
      9.35192    -22.90743    -11.57241         0.001113     -0.000013      0.000062
      9.35192    -17.18057     -1.65320         0.001056     -0.000022      0.000094
      9.35192    -20.04400     -6.61281         0.001005     -0.000035     -0.000039
      9.35192    -11.45372    -11.57241         0.001257      0.000076      0.000018
      9.35192     -5.72686     -1.65320         0.001213     -0.000003      0.000060
      9.35192     -8.59029     -6.61281         0.000727      0.000046     -0.000012
     11.69112    -20.04400    -13.22561         0.001334      0.000015     -0.000119
     11.69112    -14.31714     -3.30640         0.001396     -0.000002     -0.000026
     11.69112    -17.18057     -8.26601         0.001296      0.000076      0.000096
     11.69112     -8.59029    -13.22561         0.001322     -0.000032     -0.000054
     11.69112     -2.86343     -3.30640         0.001401      0.000042      0.000001
     11.69112     -5.72686     -8.26601         0.001214      0.000054      0.000083
     11.69112    -14.31714    -13.22561         0.001374     -0.000002     -0.000041
     11.69112     -8.59029     -3.30640         0.001267     -0.000004      0.000102
     11.69112    -11.45372     -8.26601         0.001206     -0.000093      0.000016
     13.99306    -14.31714      0.00000        -0.000872     -0.000042      0.000041
     13.99306    -17.18057     -4.95960        -0.000882     -0.000039      0.000052
     13.99306    -20.04400     -9.91921        -0.000906      0.000050     -0.000050
     13.99306     -2.86343      0.00000        -0.000736     -0.000039      0.000014
     13.99306     -5.72686     -4.95960        -0.000790      0.000007      0.000120
     13.99306     -8.59029     -9.91921        -0.001045     -0.000031     -0.000061
     13.99306     -8.59029      0.00000        -0.000821      0.000046      0.000008
     13.99306    -11.45372     -4.95960        -0.000432      0.000051      0.000123
     13.99306    -14.31714     -9.91921        -0.000912     -0.000020     -0.000081
     16.34180    -17.18057     -1.65320        -0.000577     -0.000026      0.000143
     16.34180    -20.04400     -6.61281        -0.000666     -0.000021      0.000043
     16.34180    -22.90743    -11.57241        -0.000679     -0.000033     -0.000063
     16.34180     -5.72686     -1.65320        -0.000434     -0.000020      0.000123
     16.34180     -8.59029     -6.61281         0.000173      0.000348     -0.000027
     16.34180    -11.45372    -11.57241        -0.000509     -0.000013      0.000015
     16.34180    -11.45372     -1.65320        -0.000478      0.000048      0.000095
     16.34180    -14.31714     -6.61281        -0.000780     -0.000099     -0.000070
     16.34180    -17.18057    -11.57241        -0.000581      0.000059     -0.000084
      2.36204    -10.02200     -4.13300         0.000040     -0.000000      0.000380
      2.36204    -12.88543     -9.09261        -0.000183     -0.000081     -0.000059
      2.36204    -15.74886    -14.05221        -0.000041     -0.000079     -0.000105
      2.36204    -15.74886     -4.13300        -0.000127      0.000078      0.000005
      2.36204    -18.61229     -9.09261        -0.000176     -0.000000      0.000048
      2.36204    -21.47572    -14.05221        -0.000041      0.000079     -0.000105
      2.36204     -4.29514     -4.13300        -0.000127     -0.000078      0.000005
      2.36204     -7.15857     -9.09261        -0.000183      0.000081     -0.000059
      2.36204    -10.02200    -14.05221        -0.000131     -0.000000      0.000025
      4.71078    -12.88543     -5.78621        -0.000923     -0.000110      0.000024
      4.71078    -15.74886    -10.74581        -0.001085      0.000063      0.000042
      4.71078    -10.02200     -0.82660        -0.000980     -0.000000     -0.000013
      4.71078    -18.61229     -5.78621        -0.001107     -0.000000      0.000009
      4.71078    -21.47572    -10.74581        -0.001085     -0.000063      0.000042
      4.71078    -15.74886     -0.82660        -0.000925      0.000001      0.000072
      4.71078     -7.15857     -5.78621        -0.000923      0.000110      0.000024
      4.71078    -10.02200    -10.74581        -0.001127     -0.000000     -0.000089
      4.71078     -4.29514     -0.82660        -0.000925     -0.000001      0.000072
      7.01272    -15.74886     -7.43941         0.001068      0.000102      0.000019
      7.01272    -18.61229    -12.39901         0.000963     -0.000000     -0.000161
      7.01272    -12.88543     -2.47980         0.000865      0.000077      0.000091
      7.01272    -21.47571     -7.43941         0.001068     -0.000102      0.000019
      7.01272    -24.33914    -12.39901         0.000846     -0.000096     -0.000028
      7.01272    -18.61228     -2.47980         0.000988     -0.000000      0.000140
      7.01272    -10.02200     -7.43941         0.000944     -0.000000     -0.000115
      7.01272    -12.88543    -12.39901         0.000846      0.000096     -0.000028
      7.01272     -7.15857     -2.47980         0.000865     -0.000077      0.000091
      9.35192    -18.61229     -9.09261         0.001222     -0.000000      0.000109
      9.35192    -21.47572    -14.05221         0.001021      0.000044     -0.000080
      9.35192    -15.74886     -4.13300         0.001130      0.000039     -0.000027
      9.35192     -7.15857     -9.09261         0.001110      0.000008      0.000044
      9.35192    -10.02200    -14.05221         0.000952     -0.000000     -0.000001
      9.35192     -4.29514     -4.13300         0.001130     -0.000039     -0.000027
      9.35192    -12.88543     -9.09261         0.001110     -0.000008      0.000044
      9.35192    -15.74886    -14.05221         0.001021     -0.000044     -0.000080
      9.35192    -10.02200     -4.13300         0.000985     -0.000000      0.000115
     11.69112    -21.47572    -10.74581         0.001411     -0.000043      0.000055
     11.69112    -15.74886     -0.82660         0.001284     -0.000048      0.000115
     11.69112    -18.61229     -5.78621         0.001356     -0.000000     -0.000012
     11.69112    -10.02200    -10.74581         0.001336     -0.000000     -0.000046
     11.69112     -4.29514     -0.82660         0.001284      0.000048      0.000115
     11.69112     -7.15857     -5.78621         0.001278      0.000058     -0.000026
     11.69112    -15.74886    -10.74581         0.001411      0.000043      0.000055
     11.69112    -10.02200     -0.82660         0.001225     -0.000000      0.000060
     11.69112    -12.88543     -5.78621         0.001278     -0.000058     -0.000026
     13.99306    -24.33914    -12.39901        -0.001003      0.000000      0.000049
     13.99306    -18.61228     -2.47980        -0.000874     -0.000000     -0.000063
     13.99306    -21.47571     -7.43941        -0.000687      0.000049      0.000039
     13.99306    -12.88543    -12.39901        -0.001003     -0.000000      0.000049
     13.99306     -7.15857     -2.47980        -0.001098      0.000020     -0.000010
     13.99306    -10.02200     -7.43941         0.000058     -0.000000     -0.000038
     13.99306    -18.61229    -12.39901        -0.000870     -0.000000      0.000094
     13.99306    -12.88543     -2.47980        -0.001098     -0.000020     -0.000010
     13.99306    -15.74886     -7.43941        -0.000687     -0.000049      0.000039
     16.34180    -10.02200    -14.05221        -0.000668     -0.000000     -0.000036
     16.34180     -4.29514     -4.13300        -0.000643      0.000018     -0.000056
     16.34180     -7.15857     -9.09261        -0.000427      0.000026      0.000038
     16.34180    -15.74886    -14.05221        -0.000620     -0.000035      0.000016
     16.34180    -10.02200     -4.13300         0.000379     -0.000000      0.000152
     16.34180    -12.88543     -9.09261        -0.000427     -0.000026      0.000038
     16.34180    -21.47572    -14.05221        -0.000620      0.000035      0.000016
     16.34180    -15.74886     -4.13300        -0.000643     -0.000018     -0.000056
     16.34180    -18.61229     -9.09261        -0.000493     -0.000000      0.000045
     22.04000    -10.02200     -7.16000        -0.016662      0.000000     -3.953810
     22.04000    -10.02200     -6.06300        -0.016575     -0.000000      3.949578
 -----------------------------------------------------------------------------------
    total drift:                                0.075337      0.000112     -0.004203


--------------------------------------------------------------------------------------------------------



  FREE ENERGIE OF THE ION-ELECTRON SYSTEM (eV)
  ---------------------------------------------------
  free  energy   TOTEN  =      -935.76684454 eV

  energy  without entropy=     -935.71116687  energy(sigma->0) =     -935.73900571
 


--------------------------------------------------------------------------------------------------------


    POTLOK:  cpu time    1.0324: real time    1.0435


--------------------------------------------------------------------------------------------------------


     LOOP+:  cpu time  674.2322: real time  780.6763
    4ORBIT:  cpu time    0.0000: real time    0.0000

 total amount of memory used by VASP MPI-rank0   652076. kBytes
=======================================================================

   base      :      30000. kBytes
   nonlr-proj:      89855. kBytes
   fftplans  :      40601. kBytes
   grid      :      95147. kBytes
   one-center:       3950. kBytes
   wavefun   :     392523. kBytes
 
  
  
 General timing and accounting informations for this job:
 ========================================================
  
                  Total CPU time used (sec):      692.026
                            User time (sec):       97.475
                          System time (sec):      594.551
                         Elapsed time (sec):      801.869
  
                   Maximum memory used (kb):     1001512.
                   Average memory used (kb):           0.
  
                          Minor page faults:     25033032
                          Major page faults:           39
                 Voluntary context switches:        17753
