  254  254   40    1
  0.2268316E+02  0.1514622E-08  0.1514622E-08  0.2900000E-08  0.2000000E-15
  1.000000000000000E-004
  CAR 
 NiAl                                    
   2530      4   1518
