         262
 Energy:  -1284.0525276000001     
 X   0.00000000       0.00000000       0.00000000    
 X   0.00000000      -15.1462221       0.00000000    
 X   0.00000000      -7.57311106      -13.1170130    
 X   29.0000000       0.00000000       0.00000000    
 X   0.00000000      -22.7193336      -13.1170130    
 X   29.0000000      -15.1462221       0.00000000    
 X   29.0000000      -7.57311106      -13.1170130    
 X   29.0000000      -22.7193336      -13.1170130    
 Ni   15.1728001      -11.3977203      -8.03792000    
 Ni   15.0319004      -12.6774702      -5.79766989    
 Ni   15.0378399      -13.8943796      -3.62962008    
 Ni   15.0374098      -15.1472301      -1.45802999    
 Ni   15.0424099      -16.4127407      -3.64110994    
 Ni   15.0374098      -17.6705894      -5.82861996    
 Ni   15.0360003      -16.4175701      -8.01848030    
 Ni   15.0386200      -15.1496296      -10.2040901    
 Ni   15.0360003      -13.8908100      -12.3949604    
 Ni   15.0398397      -16.4097691      -12.3874998    
 Ni   15.0398397      -18.9314194      -12.3874998    
 Ni   15.0386200      -20.1915493      -10.2040901    
 Ni   15.0360003      -18.9236107      -8.01848030    
 Ni   13.0489502      -17.6705894      -8.74946022    
 Ni   13.0520802      -16.4079208      -10.9305696    
 Ni   11.0452995      -17.6705894      -11.6595697    
 Ni   11.0445404      -18.9349194      -9.47377968    
 Ni   9.03693008      -20.1953297      -10.2019100    
 Ni   9.03806973      -18.9327793      -12.3882904    
 Ni   9.03757954      -21.4567299      -12.3882504    
 Ni   11.0445404      -20.1956997      -11.6575203    
 Ni   13.0520802      -18.9332600      -10.9305696    
 Ni   15.0398397      -17.6705894      -10.2036896    
 Ni   15.0378399      -15.1635199      -5.82781982    
 Ni   13.0529203      -13.8884497      -6.55834007    
 Ni   13.0528698      -15.1493702      -4.37052011    
 Ni   11.0451002      -16.4079704      -5.10184002    
 Ni   11.0435305      -15.1449404      -7.28763008    
 Ni   9.03757954      -16.4085808      -8.01632977    
 Ni   9.03693008      -15.1458502      -10.2019100    
 Ni   7.03727007      -16.4085503      -10.9309196    
 Ni   7.03693008      -17.6705894      -8.74524021    
 Ni   5.03143978      -18.9338093      -9.47255993    
 Ni   5.03037024      -17.6705894      -11.6595697    
 Ni   3.03154993      -18.9330997      -12.3884697    
 Ni   3.03198004      -20.1956291      -10.2017403    
 Ni   3.03183007      -21.4576893      -12.3888502    
 Ni   5.03143978      -20.1961994      -11.6590996    
 Ni   7.03727007      -18.9326401      -10.9309196    
 Ni   9.03806973      -17.6705894      -10.2021198    
 Ni   11.0445404      -16.4062595      -9.47377968    
 Ni   13.0498400      -15.1426001      -8.74473000    
 Ni   11.0455303      -13.8815699      -9.47196960    
 Ni   13.0498400      -13.8822699      -10.9276800    
 Ni   13.0529203      -11.3617296      -10.9347496    
 Ni   15.0319004      -10.0974798      -10.2663403    
 Ni   15.0378399      -8.82835007      -12.4042501    
 Ni   15.0378399      -11.3666096      -12.4042501    
 Ni   15.0398197      -12.6305599      -10.2173204    
 Ni   13.0801601      -12.6093597      -8.73746014    
 Ni   15.0398197      -13.9015598      -8.01589966    
 Ni   9.03806973      -16.4084091      -12.3882904    
 Ni   9.03757954      -13.8844500      -12.3882504    
 Ni   11.0435305      -12.6215601      -11.6582603    
 Ni   11.0569897      -11.3594704      -9.47185040    
 Ni   11.0569897      -8.83549023      -9.47185040    
 Ni   11.0435305      -7.57340002      -11.6582603    
 Ni   13.0498400      -6.31268978      -10.9276800    
 Ni   13.0801601      -7.58559990      -8.73746014    
 Ni   15.1728001      -8.79724026      -8.03792000    
 Ni   15.0398197      -6.29340982      -8.01589966    
 Ni   15.0319004      -7.51749992      -5.79766989    
 Ni   15.0398197      -8.82649040      -3.62846994    
 Ni   15.0386200      -10.0974798      -1.45351005    
 Ni   13.0498400      -11.3578100      -2.18928003    
 Ni   13.0489502      -20.1908207      -13.1146202    
 Ni   11.0434704      -13.8827801     -0.727999985    
 Ni   11.0435305      -12.6208696      -2.91580009    
 Ni   9.03798962      -13.8839302      -3.64384007    
 Ni   9.04360962      -12.6202803      -5.83068991    
 Ni   7.03937006      -13.8829498      -6.55821991    
 Ni   7.04276991      -12.6191998      -8.74314976    
 Ni   5.03308010      -13.8819799      -9.47220993    
 Ni   5.03131008      -12.6205797      -11.6588602    
 Ni   7.03937006      -11.3588696      -10.9300404    
 Ni   9.04360962      -10.0974798      -10.2003098    
 Ni   9.03798008      -8.83543968      -12.3880901    
 Ni   9.03798962      -11.3595304      -12.3880901    
 Ni   11.0460501      -10.0974798      -11.6591101    
 Ni   13.0529203      -8.83323002      -10.9347496    
 Ni   15.0398197      -7.56440020      -10.2173204    
 Ni   9.03757954      -18.9326000      -8.01632977    
 Ni   9.03831005      -17.6705894      -5.83030987    
 Ni   9.03829002      -16.4081497      -3.64375997    
 Ni   9.03831005      -15.1457701      -1.45718002    
 Ni   7.03741980      -13.8832302      -2.18600011    
 Ni   7.03843021      -11.3593903      -2.18741012    
 Ni   7.04276991      -10.0974798      -4.37539005    
 Ni   5.03331995      -11.3595896      -5.10185003    
 Ni   5.03462982      -10.0974798      -7.28723001    
 Ni   3.03389001      -11.3596296      -8.01593018    
 Ni   3.03152990      -12.6215496      -5.82995987    
 Ni   3.03034997      -13.8842402      -3.64339995    
 Ni   5.03131008      -12.6218796      -2.91634011    
 Ni   5.03143978      -11.3598804     -0.730030000    
 Ni   5.03120995      -13.8849897     -0.729269981    
 Ni   7.03693008      -20.1944809      -13.1167297    
 Ni   9.03757954      -12.6216097      -1.45710003    
 Ni   9.03693008      -10.0974798      -1.45787001    
 Ni   11.0445404      -8.83670044     -0.730390012    
 Ni   13.0489502      -15.1503696      -13.1146202    
 Ni   13.0495701      -6.31282997      -2.18214989    
 Ni   13.0528698      -5.04558992      -4.37052011    
 Ni   13.0495701      -18.9302502      -6.56217003    
 Ni   11.0435305      -5.05002022      -7.28763008    
 Ni   11.0460501      -6.31131983      -5.10129023    
 Ni   9.04360962      -7.57467985      -5.83068991    
 Ni   9.04037952      -6.31325006      -8.01496029    
 Ni   7.04276991      -7.57575989      -8.74314976    
 Ni   7.03843021      -6.31186008      -10.9299898    
 Ni   5.03131008      -7.57437992      -11.6588602    
 Ni   5.03331995      -8.83594036      -9.47294044    
 Ni   3.03152990      -10.0974798      -10.2017698    
 Ni   3.03034997      -8.83520985      -12.3885698    
 Ni   3.03034997      -11.3597498      -12.3885698    
 Ni   3.03183007      -13.8834896      -12.3888502    
 Ni   3.03198004      -15.1455603      -10.2017403    
 Ni   3.03183007      -16.4086208      -8.01519966    
 Ni   5.03131008      -15.1449804      -7.28647995    
 Ni   7.03741980      -16.4081497      -6.55928993    
 Ni   5.03096008      -16.4081097      -5.10061979    
 Ni   7.03777981      -15.1456203      -4.37268019    
 Ni   5.03070021      -13.8837500      -5.10123014    
 Ni   7.03937006      -12.6215601      -4.37342978    
 Ni   9.04037952      -11.3593702      -3.64612007    
 Ni   11.0455303      -10.0974798      -2.91774011    
 Ni   9.04037952      -8.83559990      -3.64612007    
 Ni   11.0569897      -8.83654022      -5.10200024    
 Ni   13.0801601      -10.0974798      -4.38676023    
 Ni   13.0765400      -8.83333969      -6.55738020    
 Ni   11.0744896      -10.0974798      -7.28723001    
 Ni   9.05142975      -11.3567696      -8.01428032    
 Ni   9.05142975      -8.83819962      -8.01428032    
 Ni   7.04393005      -8.83623028      -6.55905008    
 Ni   7.03937006      -6.31201982      -6.55821991    
 Ni   7.03741980      -18.9330406      -6.55928993    
 Ni   7.03777981      -5.04933977      -4.37268019    
 Ni   5.03070021      -6.31121016      -5.10123014    
 Ni   5.03131008      -7.57309008      -2.91634011    
 Ni   5.03143978      -8.83508015     -0.730030000    
 Ni   7.03693008      -15.1467104      -13.1167297    
 Ni   7.03741980      -6.31172991      -2.18600011    
 Ni   9.03798962      -6.31102991      -3.64384007    
 Ni   9.03829002      -3.78681993      -3.64375997    
 Ni   11.0454597      -2.52436996      -2.91489005    
 Ni   13.0522499      -16.4083099      -2.18611002    
 Ni   13.0528698      -2.52436996      -3.64000001E-03
 Ni   11.0451002      -3.78701997     -0.727949977    
 Ni   9.03831005      -5.04919004      -1.45718002    
 Ni   11.0434704      -6.31219006     -0.727999985    
 Ni   11.0435305      -7.57410002      -2.91580009    
 Ni   13.0498400      -8.83714962      -2.18928003    
 Ni   15.0360003      -7.57072020      -1.44824004    
 Ni   15.0374098      -5.04772997      -1.45802999    
 Ni   15.0424099      -3.78221989      -3.64110994    
 Ni   15.0378399      -6.30058002      -3.62962008    
 Ni   15.0378399      -5.03143978      -5.82781982    
 Ni   13.0529203      -6.30651999      -6.55834007    
 Ni   13.0529203      -7.57075977      -4.36859989    
 Ni   7.04393005      -11.3587303      -6.55905008    
 Ni   9.05142975      -10.0974798      -5.83312988    
 Ni   11.0445404      -11.3582602     -0.730390012    
 Ni   13.0520802      -10.0974798      -5.60000015E-04
 Ni   13.0495701      -16.4109402      -6.56217003    
 Ni   11.0434704      -17.6705894      -7.28869009    
 Ni   3.03214002      -12.6218004      -10.2020798    
 Ni   5.03331995      -11.3590202      -9.47294044    
 Ni   7.04393005      -10.0974798      -8.74359989    
 Ni   7.03937006      -8.83609009      -10.9300404    
 Ni   9.04037952      -7.57512999      -10.2006102    
 Ni   11.0455303      -6.31338978      -9.47196960    
 Ni   13.0498400      -5.05236006      -8.74473000    
 Ni   3.03214002      -13.8839703      -8.01593018    
 Ni   5.03331995      -12.6211300      -7.28690004    
 Ni   5.03070021      -10.0974798      -11.6592398    
 Ni   3.03034997      -15.1464996      -5.82972002    
 Ni   3.03131008      -17.6705894      -5.82940006    
 Ni   3.03183007      -18.9325600      -8.01519966    
 Ni   5.03120995      -17.6705894      -7.28612995    
 Ni   5.03143978      -16.4073792      -9.47255993    
 Ni   7.03843021      -15.1450100      -8.74429035    
 Ni   9.04037952      -13.8817196      -8.01496029    
 Ni   11.0569897      -12.6204205      -7.28782988    
 Ni   13.0765400      -11.3616199      -6.55738020    
 Ni   11.0569897      -11.3584299      -5.10200024    
 Ni   11.0460501      -13.8836403      -5.10129023    
 Ni   13.0529203      -12.6241999      -4.36859989    
 Ni   15.0398197      -11.3684797      -3.62846994    
 Ni   15.0360003      -12.6242399      -1.44824004    
 Ni   13.0495701      -13.8821297      -2.18214989    
 Ni   11.0451002      -15.1453304      -2.91488004    
 Ni   3.03074002      -16.4087391      -3.64341998    
 Ni   3.03131008      -15.1465597      -1.45764005    
 Ni   5.03096008      -15.1464596      -2.91536999    
 Ni   7.03843021      -13.8830996      -10.9299898    
 Ni   9.04037952      -12.6198301      -10.2006102    
 Ni   3.03154993      -17.6705894      -10.2017498    
 Ni   3.03154993      -16.4080906      -12.3884697    
 Ni   5.03143978      -15.1449804      -11.6590996    
 Ni   3.03183007      -12.6226101      -1.45764005    
 Ni   3.03198004      -10.0974798      -1.45820999    
 Ni   3.03214002      -8.83530998      -3.64368010    
 Ni   3.03152990      -7.57341003      -5.82995987    
 Ni   3.03214002      -6.31098986      -8.01593018    
 Ni   5.03131008      -5.04998016      -7.28647995    
 Ni   5.03308010      -6.31299019      -9.47220993    
 Ni   7.03843021      -5.04995012      -8.74429035    
 Ni   3.03214002      -11.3596497      -3.64368010    
 Ni   5.03308010      -10.0974798      -2.91726995    
 Ni   7.03843021      -8.83557034      -2.18741012    
 Ni   9.03757954      -7.57334995      -1.45710003    
 Ni   5.03331995      -8.83537006      -5.10185003    
 Ni   7.03937006      -7.57341003      -4.37342978    
 Ni   3.03389001      -10.0974798      -5.82982016    
 Ni   3.03389001      -8.83533001      -8.01593018    
 Ni   5.03331995      -7.57383013      -7.28690004    
 Ni   3.03214002      -7.57316017      -10.2020798    
 Ni   7.03727007      -17.6705894      -13.1168499    
 Ni   9.03798962      -15.1459799      -5.82976007    
 Ni   9.03798962      -5.04898977      -5.82976007    
 Ni   11.0450897      -3.78698993      -5.10184002    
 Ni   13.0522404      -17.6705894      -4.37244987    
 Ni   13.0522404      -3.78663993      -2.18611002    
 Ni   15.0424004      -2.52435994      -1.46245003    
 Ni   11.0445404      -15.1454802      -11.6575203    
 Ni   11.0569897      -7.57454014      -7.28782988    
 Ni   11.0451002      -5.04964018      -2.91488004    
 Ni   13.0765400      -10.0974798      -8.74693012    
 Ni   13.0495701      -5.05318022      -3.60000005E-04
 Ni   15.1728001      -10.0974798      -5.78584003    
 Ni   3.03034997      -5.04846001      -5.82972002    
 Ni   3.03074002      -3.78622007      -3.64341998    
 Ni   5.03199005      -2.52436996      -2.91489005    
 Ni   7.03779984      -16.4077892      -2.18582010    
 Ni   7.03777981      -10.0974798      -13.1163197    
 Ni   5.03096008      -3.78603005     -0.728690028    
 Ni   3.03131008      -5.04839993      -1.45764005    
 Ni   5.03120995      -6.30996990     -0.729269981    
 Ni   7.03741980      -12.6224003      -13.1163902    
 Ni   7.03779984      -3.78716993      -2.18582010    
 Ni   9.03829002      -2.52436996      -1.45714998    
 Ni   11.0451002      -1.26172996     -0.727949977    
 Ni   13.0495701      -15.1417904      -3.60000005E-04
 Ni   3.03034997      -6.31072998      -3.64339995    
 Ni   5.03096008      -5.04851007      -2.91536999    
 Ni   5.03096008      -3.78684998      -5.10061979    
 Ni   7.03779984      -17.6705894      -4.37304020    
 Ni   3.03183007      -7.57235003      -1.45764005    
 Ni   3.03074002      -2.52436996      -1.45782995    
 Ni   5.03096008      -1.26270998     -0.728690028    
 Ni   7.03741980      -22.7187805      -13.1163902    
 Ni   15.0360003      -21.4503708      -12.3949604    
 N    13.4534903      -10.0974798      -7.28723001    
 N    13.9975204      -9.15258980      -7.43288994    
         262
 Energy:  -1290.3688182999999     
 X   0.00000000       0.00000000       0.00000000    
 X   0.00000000      -15.1462221       0.00000000    
 X   0.00000000      -7.57311106      -13.1170130    
 X   29.0000000       0.00000000       0.00000000    
 X   0.00000000      -22.7193336      -13.1170130    
 X   29.0000000      -15.1462221       0.00000000    
 X   29.0000000      -7.57311106      -13.1170130    
 X   29.0000000      -22.7193336      -13.1170130    
 Ni   15.1801100      -11.4116898      -8.04341984    
 Ni   15.0364199      -12.6745796      -5.79946995    
 Ni   15.0378399      -13.8943005      -3.62952995    
 Ni   15.0374002      -15.1472397      -1.45804000    
 Ni   15.0425100      -16.4126606      -3.64113998    
 Ni   15.0373697      -17.6705093      -5.82852983    
 Ni   15.0359402      -16.4172497      -8.01834965    
 Ni   15.0384903      -15.1497402      -10.2041597    
 Ni   15.0359001      -13.8904800      -12.3946896    
 Ni   15.0397701      -16.4099598      -12.3873100    
 Ni   15.0399704      -18.9313698      -12.3873997    
 Ni   15.0385199      -20.1919308      -10.2041502    
 Ni   15.0360403      -18.9242496      -8.01815033    
 Ni   13.0487700      -17.6706505      -8.74946976    
 Ni   13.0521898      -16.4080391      -10.9305601    
 Ni   11.0452099      -17.6706600      -11.6595802    
 Ni   11.0445004      -18.9348507      -9.47373009    
 Ni   9.03713036      -20.1952896      -10.2019300    
 Ni   9.03814983      -18.9326801      -12.3883495    
 Ni   9.03765965      -21.4568005      -12.3882704    
 Ni   11.0444498      -20.1955299      -11.6575899    
 Ni   13.0519304      -18.9334602      -10.9304304    
 Ni   15.0399399      -17.6706009      -10.2038803    
 Ni   15.0378599      -15.1634903      -5.82797003    
 Ni   13.0519104      -13.8902302      -6.55762005    
 Ni   13.0527000      -15.1491203      -4.37072992    
 Ni   11.0450697      -16.4080696      -5.10196018    
 Ni   11.0438204      -15.1449404      -7.28757000    
 Ni   9.03761005      -16.4085503      -8.01622963    
 Ni   9.03724957      -15.1456900      -10.2018404    
 Ni   7.03704023      -16.4085197      -10.9310102    
 Ni   7.03680992      -17.6705399      -8.74522018    
 Ni   5.03125000      -18.9336891      -9.47262001    
 Ni   5.03024006      -17.6707306      -11.6595497    
 Ni   3.03133988      -18.9330902      -12.3884296    
 Ni   3.03209996      -20.1956997      -10.2018099    
 Ni   3.03167009      -21.4576302      -12.3888397    
 Ni   5.03117990      -20.1960392      -11.6591702    
 Ni   7.03725004      -18.9323997      -10.9310303    
 Ni   9.03818035      -17.6705608      -10.2021704    
 Ni   11.0444403      -16.4064598      -9.47367001    
 Ni   13.0499601      -15.1428604      -8.74454975    
 Ni   11.0462399      -13.8805103      -9.47138023    
 Ni   13.0499601      -13.8819799      -10.9277296    
 Ni   13.0517197      -11.3625498      -10.9374304    
 Ni   15.0368996      -10.0986300      -10.2662897    
 Ni   15.0379400      -8.82826042      -12.4038897    
 Ni   15.0380602      -11.3662701      -12.4039297    
 Ni   15.0413599      -12.6297302      -10.2166901    
 Ni   13.0776100      -12.6172600      -8.74174976    
 Ni   15.0410500      -13.9008503      -8.01574039    
 Ni   9.03796005      -16.4084091      -12.3884096    
 Ni   9.03761959      -13.8844500      -12.3882999    
 Ni   11.0435896      -12.6213903      -11.6582403    
 Ni   11.0539904      -11.3612604      -9.47434044    
 Ni   11.0527401      -8.83355999      -9.47418976    
 Ni   11.0439396      -7.57339001      -11.6581697    
 Ni   13.0496998      -6.31256008      -10.9278803    
 Ni   13.0734501      -7.57023001      -8.74818993    
 Ni   15.5814104      -8.66798973      -8.24230957    
 Ni   15.0421696      -6.28589010      -8.01638985    
 Ni   15.0396099      -7.51329994      -5.79218006    
 Ni   15.0411100      -8.82658005      -3.62877011    
 Ni   15.0382700      -10.0975599      -1.45328999    
 Ni   13.0499401      -11.3582602      -2.18893003    
 Ni   13.0487804      -20.1909504      -13.1144505    
 Ni   11.0435696      -13.8825798     -0.728009999    
 Ni   11.0437498      -12.6208401      -2.91588998    
 Ni   9.03800964      -13.8836803      -3.64400005    
 Ni   9.04376030      -12.6201601      -5.83072996    
 Ni   7.03942013      -13.8830299      -6.55817986    
 Ni   7.04268980      -12.6192703      -8.74308968    
 Ni   5.03294992      -13.8820696      -9.47212029    
 Ni   5.03125000      -12.6204004      -11.6588697    
 Ni   7.03929996      -11.3588600      -10.9300804    
 Ni   9.04372978      -10.0976295      -10.2002497    
 Ni   9.03812027      -8.83541965      -12.3879995    
 Ni   9.03814983      -11.3595695      -12.3880100    
 Ni   11.0463800      -10.0974998      -11.6591902    
 Ni   13.0524397      -8.83240986      -10.9385996    
 Ni   15.0414000      -7.56266022      -10.2227402    
 Ni   9.03767014      -18.9326401      -8.01613045    
 Ni   9.03826046      -17.6706505      -5.83032990    
 Ni   9.03829002      -16.4081802      -3.64385009    
 Ni   9.03824043      -15.1457996      -1.45716000    
 Ni   7.03730011      -13.8831902      -2.18603992    
 Ni   7.03839016      -11.3592396      -2.18731999    
 Ni   7.04270983      -10.0975103      -4.37523985    
 Ni   5.03357983      -11.3595200      -5.10169983    
 Ni   5.03485012      -10.0972700      -7.28737020    
 Ni   3.03404999      -11.3594704      -8.01599026    
 Ni   3.03202009      -12.6216202      -5.82990980    
 Ni   3.03022003      -13.8843002      -3.64340997    
 Ni   5.03145981      -12.6217804      -2.91626000    
 Ni   5.03148985      -11.3598804     -0.730019987    
 Ni   5.03105021      -13.8847704     -0.729229987    
 Ni   7.03674984      -20.1943798      -13.1167498    
 Ni   9.03757954      -12.6214895      -1.45718002    
 Ni   9.03717995      -10.0974102      -1.45826006    
 Ni   11.0444002      -8.83679962     -0.730430007    
 Ni   13.0489902      -15.1503000      -13.1146297    
 Ni   13.0494404      -6.31233978      -2.18177009    
 Ni   13.0527296      -5.04578018      -4.37056017    
 Ni   13.0496101      -18.9297199      -6.56204987    
 Ni   11.0438299      -5.05003977      -7.28770018    
 Ni   11.0463800      -6.31143999      -5.10126019    
 Ni   9.04401970      -7.57490015      -5.83051014    
 Ni   9.03999043      -6.31300020      -8.01504040    
 Ni   7.04245996      -7.57575989      -8.74318981    
 Ni   7.03818989      -6.31191015      -10.9300098    
 Ni   5.03125000      -7.57442999      -11.6587400    
 Ni   5.03337002      -8.83594990      -9.47294044    
 Ni   3.03118992      -10.0973797      -10.2018003    
 Ni   3.03035998      -8.83522034      -12.3884296    
 Ni   3.03021002      -11.3596296      -12.3884897    
 Ni   3.03195000      -13.8835001      -12.3887701    
 Ni   3.03208995      -15.1456003      -10.2016602    
 Ni   3.03167009      -16.4086494      -8.01517010    
 Ni   5.03147984      -15.1450996      -7.28652000    
 Ni   7.03730011      -16.4082298      -6.55928993    
 Ni   5.03090000      -16.4081402      -5.10081005    
 Ni   7.03771019      -15.1456203      -4.37272978    
 Ni   5.03083992      -13.8838902      -5.10117006    
 Ni   7.03944016      -12.6215696      -4.37341976    
 Ni   9.03999043      -11.3592901      -3.64593005    
 Ni   11.0461597      -10.0973902      -2.91912007    
 Ni   9.03923035      -8.83576012      -3.64554000    
 Ni   11.0518303      -8.83526039      -5.09773016    
 Ni   13.0771399      -10.0988302      -4.37605000    
 Ni   12.5218000      -8.42597961      -5.95929003    
 Ni   11.0520000      -10.0984201      -7.28809977    
 Ni   9.05177975      -11.3567600      -8.01420975    
 Ni   9.05218983      -8.83829975      -8.01426983    
 Ni   7.04392004      -8.83625984      -6.55903006    
 Ni   7.03924990      -6.31190014      -6.55815983    
 Ni   7.03743982      -18.9329700      -6.55918980    
 Ni   7.03772020      -5.04933023      -4.37271023    
 Ni   5.03082991      -6.31132984      -5.10122013    
 Ni   5.03129005      -7.57305002      -2.91637993    
 Ni   5.03138018      -8.83533955     -0.730099976    
 Ni   7.03701019      -15.1468000      -13.1167202    
 Ni   7.03738022      -6.31174994      -2.18602991    
 Ni   9.03812981      -6.31116009      -3.64387989    
 Ni   9.03835011      -3.78695011      -3.64387012    
 Ni   11.0456200      -2.52453995      -2.91489005    
 Ni   13.0522804      -1.26222003      -2.18605995    
 Ni   13.0528402      -2.52446008      -3.37000005E-03
 Ni   11.0451403      -3.78704000     -0.728030026    
 Ni   9.03829002      -5.04929018      -1.45713997    
 Ni   11.0435400      -6.31201982     -0.728120029    
 Ni   11.0434704      -7.57409000      -2.91604996    
 Ni   13.0497103      -8.83697033      -2.18949008    
 Ni   15.0357904      -7.57067013      -1.44858003    
 Ni   15.0375204      -5.04763985      -1.45801997    
 Ni   15.0421200      -3.78238010      -3.64118004    
 Ni   15.0378704      -6.30085993      -3.63066006    
 Ni   15.0375099      -5.03185987      -5.82789993    
 Ni   13.0513401      -6.29931021      -6.55639982    
 Ni   13.0510397      -7.56820011      -4.36492014    
 Ni   7.04428005      -11.3587799      -6.55894995    
 Ni   9.05206966      -10.0975103      -5.83299017    
 Ni   11.0444002      -11.3583899     -0.730210006    
 Ni   13.0521202      -10.0975704      -4.19999997E-04
 Ni   13.0493498      -16.4115105      -6.56201982    
 Ni   11.0435896      -17.6705093      -7.28880978    
 Ni   3.03200006      -12.6217003      -10.2021198    
 Ni   5.03326988      -11.3587904      -9.47305965    
 Ni   7.04392004      -10.0974598      -8.74359989    
 Ni   7.03916979      -8.83609009      -10.9300699    
 Ni   9.04010010      -7.57490015      -10.2007198    
 Ni   11.0460997      -6.31431007      -9.47136974    
 Ni   13.0496998      -5.05189991      -8.74485970    
 Ni   3.03233004      -13.8841600      -8.01597023    
 Ni   5.03353024      -12.6211796      -7.28692007    
 Ni   5.03072977      -10.0974302      -11.6590700    
 Ni   3.03014994      -15.1465797      -5.82965994    
 Ni   3.03113008      -17.6705303      -5.82934999    
 Ni   3.03192997      -18.9324608      -8.01521015    
 Ni   5.03117990      -17.6704807      -7.28628016    
 Ni   5.03150988      -16.4075108      -9.47243977    
 Ni   7.03840017      -15.1451702      -8.74438000    
 Ni   9.03995991      -13.8818798      -8.01504993    
 Ni   11.0534000      -12.6235800      -7.28833008    
 Ni   13.0363703      -11.5440903      -6.45394993    
 Ni   11.0535402      -11.3593302      -5.09918022    
 Ni   11.0461798      -13.8835697      -5.10135984    
 Ni   13.0518303      -12.6253996      -4.36776018    
 Ni   15.0409498      -11.3682499      -3.62941003    
 Ni   15.0358105      -12.6242599      -1.44847000    
 Ni   13.0494604      -13.8825798      -2.18162990    
 Ni   11.0451002      -15.1453199      -2.91485000    
 Ni   3.03063989      -16.4087296      -3.64348006    
 Ni   3.03122997      -15.1465597      -1.45765996    
 Ni   5.03083992      -15.1464005      -2.91536999    
 Ni   7.03835011      -13.8833399      -10.9300804    
 Ni   9.03987980      -12.6201000      -10.2005501    
 Ni   3.03135991      -17.6706505      -10.2018499    
 Ni   3.03171992      -16.4082699      -12.3884296    
 Ni   5.03134012      -15.1451902      -11.6590300    
 Ni   3.03175998      -12.6225204      -1.45755005    
 Ni   3.03199005      -10.0975599      -1.45820999    
 Ni   3.03211999      -8.83530998      -3.64376998    
 Ni   3.03141999      -7.57345009      -5.82999992    
 Ni   3.03220010      -6.31116009      -8.01599026    
 Ni   5.03130007      -5.04998016      -7.28647995    
 Ni   5.03284979      -6.31310987      -9.47226048    
 Ni   7.03824997      -5.04986000      -8.74427986    
 Ni   3.03221989      -11.3596697      -3.64349008    
 Ni   5.03295994      -10.0976200      -2.91711998    
 Ni   7.03817987      -8.83565044      -2.18693995    
 Ni   9.03756046      -7.57335997      -1.45723999    
 Ni   5.03334999      -8.83532047      -5.10179996    
 Ni   7.03939009      -7.57341003      -4.37338018    
 Ni   3.03397012      -10.0973396      -5.82986021    
 Ni   3.03369999      -8.83522034      -8.01601982    
 Ni   5.03341007      -7.57391977      -7.28702021    
 Ni   3.03193998      -7.57320976      -10.2020302    
 Ni   7.03710985      -17.6704597      -13.1168604    
 Ni   9.03800964      -15.1458397      -5.82987022    
 Ni   9.03814030      -5.04894018      -5.82974005    
 Ni   11.0451002      -3.78708005      -5.10169983    
 Ni   13.0521898      -2.52443004      -4.37242985    
 Ni   13.0521803      -3.78669000      -2.18608999    
 Ni   15.0422497      -2.52435994      -1.46214998    
 Ni   11.0444298      -15.1455002      -11.6574497    
 Ni   11.0502796      -7.57030010      -7.28821993    
 Ni   11.0451298      -5.04959011      -2.91489005    
 Ni   12.9901505      -10.1327896      -9.02213955    
 Ni   13.0494699      -5.05310011      -8.50000011E-04
 Ni   15.1887903      -10.1060305      -5.76495981    
 Ni   3.03047991      -5.04847002      -5.82973003    
 Ni   3.03092003      -3.78612995      -3.64344001    
 Ni   5.03196001      -2.52442002      -2.91492009    
 Ni   7.03777981      -16.4078007      -2.18582010    
 Ni   7.03762007      -10.0974798      -13.1162500    
 Ni   5.03107977      -3.78609991     -0.728670001    
 Ni   3.03146005      -5.04825020      -1.45771003    
 Ni   5.03125000      -6.31007004     -0.729279995    
 Ni   7.03739023      -12.6224003      -13.1164503    
 Ni   7.03793001      -3.78713989      -2.18592000    
 Ni   9.03835011      -2.52444005      -1.45711005    
 Ni   11.0452299      -1.26196003     -0.727989972    
 Ni   13.0497799      -15.1417599      -7.60000024E-04
 Ni   3.03035998      -6.31072998      -3.64347005    
 Ni   5.03114986      -5.04853010      -2.91531992    
 Ni   5.03096008      -3.78676009      -5.10072994    
 Ni   7.03774977      -17.6706295      -4.37310982    
 Ni   3.03195000      -7.57250023      -1.45764005    
 Ni   3.03091002      -2.52433991      -1.45788002    
 Ni   5.03084993      -1.26266003     -0.728600025    
 Ni   7.03732014      -22.7188492      -13.1164303    
 Ni   15.0363197      -21.4507198      -12.3945198    
 N    13.3884497      -10.5236597      -7.23510981    
 N    14.3534698      -9.05175972      -7.71789980    
         262
 Energy:  -1295.2824462000001     
 X   0.00000000       0.00000000       0.00000000    
 X   0.00000000      -15.1462221       0.00000000    
 X   0.00000000      -7.57311106      -13.1170130    
 X   29.0000000       0.00000000       0.00000000    
 X   0.00000000      -22.7193336      -13.1170130    
 X   29.0000000      -15.1462221       0.00000000    
 X   29.0000000      -7.57311106      -13.1170130    
 X   29.0000000      -22.7193336      -13.1170130    
 Ni   15.1759701      -11.4037800      -8.04030991    
 Ni   15.0338602      -12.6762199      -5.79844999    
 Ni   15.0378399      -13.8943396      -3.62958002    
 Ni   15.0374002      -15.1472301      -1.45802999    
 Ni   15.0424500      -16.4127007      -3.64111996    
 Ni   15.0373898      -17.6705494      -5.82857990    
 Ni   15.0359802      -16.4174309      -8.01842022    
 Ni   15.0385599      -15.1496801      -10.2041197    
 Ni   15.0359497      -13.8906698      -12.3948402    
 Ni   15.0398102      -16.4098492      -12.3874197    
 Ni   15.0398998      -18.9314003      -12.3874598    