         262
 Energy:  -1300.9157158999999     
 X   0.00000000       0.00000000       0.00000000    
 X   0.00000000      -15.1462221       0.00000000    
 X   0.00000000      -7.57311106      -13.1170130    
 X   29.0000000       0.00000000       0.00000000    
 X   0.00000000      -22.7193336      -13.1170130    
 X   29.0000000      -15.1462221       0.00000000    
 X   29.0000000      -7.57311106      -13.1170130    
 X   29.0000000      -22.7193336      -13.1170130    
 Ni   15.1074696      -11.4018002      -8.03804016    
 Ni   15.0980597      -12.6879196      -5.79207993    
 Ni   15.0467501      -13.9001799      -3.62515998    
 Ni   15.0393295      -15.1470299      -1.45959997    
 Ni   15.0440397      -16.4120693      -3.64128995    
 Ni   15.0395899      -17.6693401      -5.82630014    
 Ni   15.0349197      -16.4160595      -8.01702976    
 Ni   15.0376101      -15.1491003      -10.2047596    
 Ni   15.0349703      -13.8887796      -12.3930998    
 Ni   15.0402298      -16.4103699      -12.3873396    
 Ni   15.0400600      -18.9308796      -12.3878403    
 Ni   15.0373096      -20.1896896      -10.2082100    
 Ni   15.0360899      -18.9229908      -8.01648998    
 Ni   13.0479803      -17.6700592      -8.74967957    
 Ni   13.0516901      -16.4093494      -10.9310198    
 Ni   11.0438700      -17.6703091      -11.6595802    
 Ni   11.0429201      -18.9335098      -9.47490978    
 Ni   9.03633976      -20.1939297      -10.2027597    
 Ni   9.03744030      -18.9324608      -12.3885603    
 Ni   9.03682995      -21.4572105      -12.3884001    
 Ni   11.0415201      -20.1928101      -11.6586905    
 Ni   13.0504103      -18.9326591      -10.9307899    
 Ni   15.0393200      -17.6700706      -10.2045698    
 Ni   15.0449200      -15.1685801      -5.82535982    
 Ni   13.0532503      -13.9926205      -6.55486012    
 Ni   13.0541601      -15.1563301      -4.36630011    
 Ni   11.0446901      -16.4083405      -5.10166979    
 Ni   11.0393496      -15.1534500      -7.29041004    
 Ni   9.03612041      -16.4086895      -8.01634026    
 Ni   9.03903961      -15.1455803      -10.2026501    
 Ni   7.03632021      -16.4081402      -10.9312401    
 Ni   7.03659010      -17.6710396      -8.74551010    
 Ni   5.03034019      -18.9334202      -9.47317982    
 Ni   5.03001022      -17.6710892      -11.6593304    
 Ni   3.03057003      -18.9325294      -12.3881197    
 Ni   3.03127003      -20.1962395      -10.2016497    
 Ni   3.03146005      -21.4580898      -12.3888702    
 Ni   5.03040981      -20.1951504      -11.6591101    
 Ni   7.03751993      -18.9316006      -10.9314899    
 Ni   9.03748035      -17.6700993      -10.2027302    
 Ni   11.0428801      -16.4083405      -9.47459984    
 Ni   13.0508003      -15.1491604      -8.74701977    
 Ni   11.0453100      -13.8850899      -9.47422981    
 Ni   13.0499496      -13.8874598      -10.9328299    
 Ni   13.0510998      -11.4142399      -11.0290003    
 Ni   15.0918398      -10.0981503      -10.2769098    
 Ni   15.0442104      -8.82793999      -12.4129896    
 Ni   15.0433102      -11.3659897      -12.4088297    
 Ni   15.0513697      -12.6240396      -10.2157001    
 Ni   13.0561800      -12.6552496      -8.76144981    
 Ni   15.0497904      -13.8992500      -8.01239967    
 Ni   9.03705978      -16.4080200      -12.3887596    
 Ni   9.03639030      -13.8853798      -12.3886604    
 Ni   11.0368500      -12.6285801      -11.6647100    
 Ni   11.0044403      -11.3995504      -9.49491978    
 Ni   11.0155001      -8.80652046      -9.48824978    
 Ni   11.0403404      -7.56749010      -11.6639700    
 Ni   13.0454502      -6.30727005      -10.9281101    
 Ni   13.1079197      -7.60997009      -8.70767975    
 Ni   15.6717300      -8.72155952      -8.23628998    
 Ni   15.0678396      -6.24176979      -8.02293968    
 Ni   15.0534201      -7.53023005      -5.80794001    
 Ni   15.0509901      -8.82952976      -3.63002992    
 Ni   15.0374403      -10.0979300      -1.45234001    
 Ni   13.0521097      -11.3623896      -2.17827010    
 Ni   13.0478601      -20.1913795      -13.1152296    
 Ni   11.0423203      -13.8815603     -0.728150010    
 Ni   11.0386105      -12.6232405      -2.90625000    
 Ni   9.03820992      -13.8836699      -3.64415002    
 Ni   9.03862953      -12.6211996      -5.83014011    
 Ni   7.03855991      -13.8832998      -6.55780983    
 Ni   7.04099989      -12.6196098      -8.74335003    
 Ni   5.03245020      -13.8818703      -9.47237015    
 Ni   5.03116989      -12.6200705      -11.6586905    
 Ni   7.03845978      -11.3592100      -10.9307098    
 Ni   9.03777981      -10.0977097      -10.2026596    
 Ni   9.03839016      -8.83500957      -12.3878803    
 Ni   9.03831959      -11.3599501      -12.3878403    
 Ni   11.0468102      -10.0971603      -11.6594496    
 Ni   13.0549402      -8.79279995      -11.0128298    
 Ni   15.0562296      -7.53677988      -10.2845001    
 Ni   9.03652000      -18.9325409      -8.01622963    
 Ni   9.03791046      -17.6708908      -5.83071995    
 Ni   9.03771019      -16.4085693      -3.64345002    
 Ni   9.03792953      -15.1459198      -1.45646000    
 Ni   7.03742981      -13.8837500      -2.18588996    
 Ni   7.03759003      -11.3589296      -2.18602991    
 Ni   7.03978014      -10.0978899      -4.37457991    
 Ni   5.03379011      -11.3591700      -5.10180998    
 Ni   5.03493023      -10.0968800      -7.28770018    
 Ni   3.03426003      -11.3592596      -8.01562023    
 Ni   3.03238010      -12.6218700      -5.82971001    
 Ni   3.02969003      -13.8843498      -3.64369011    
 Ni   5.03201008      -12.6217403      -2.91611004    
 Ni   5.03146982      -11.3599997     -0.729589999    
 Ni   5.03065014      -13.8839302     -0.729080021    
 Ni   7.03643990      -20.1948891      -13.1161804    
 Ni   9.03602982      -12.6214504      -1.45679998    
 Ni   9.03794003      -10.0971899      -1.45710003    
 Ni   11.0426302      -8.83710003     -0.727100015    
 Ni   13.0492601      -15.1505203      -13.1126804    
 Ni   13.0505199      -6.30030012      -2.16278005    
 Ni   13.0529404      -5.03258991      -4.36557007    
 Ni   13.0517101      -18.9223709      -6.56235981    
 Ni   11.0396004      -5.04038000      -7.29200983    
 Ni   11.0504398      -6.31763983      -5.10394001    
 Ni   9.02744007      -7.56919003      -5.83050013    
 Ni   9.02733994      -6.30394983      -8.02153015    
 Ni   7.04104996      -7.57529020      -8.74382019    
 Ni   7.03711987      -6.31152010      -10.9303904    
 Ni   5.03188992      -7.57402992      -11.6583996    
 Ni   5.03377008      -8.83633041      -9.47268963    
 Ni   3.03088999      -10.0974398      -10.2018299    
 Ni   3.03082991      -8.83551025      -12.3882103    
 Ni   3.02989006      -11.3594198      -12.3885803    
 Ni   3.03204989      -13.8834696      -12.3884401    
 Ni   3.03277993      -15.1453104      -10.2013903    
 Ni   3.03204012      -16.4083595      -8.01506996    
 Ni   5.03204012      -15.1448898      -7.28687000    
 Ni   7.03732014      -16.4085503      -6.55883980    
 Ni   5.03058004      -16.4081402      -5.10120010    
 Ni   7.03771019      -15.1458502      -4.37245989    
 Ni   5.03068018      -13.8838797      -5.10129976    
 Ni   7.03872013      -12.6220598      -4.37335014    
 Ni   9.03137970      -11.3587599      -3.64041996    
 Ni   11.0430899      -10.1027403      -2.90110993    
 Ni   9.00347042      -8.83568001      -3.61828995    
 Ni   10.9343204      -8.84327030      -4.99817991    
 Ni   13.0550404      -10.1054802      -4.31703997    
 Ni   12.8653898      -8.63399029      -6.27769995    
 Ni   11.0589199      -10.1003399      -7.28640985    
 Ni   9.04652977      -11.3563900      -8.01476955    
 Ni   9.04304028      -8.84088039      -8.01570034    
 Ni   7.03646994      -8.83660030      -6.55947018    
 Ni   7.03731012      -6.31090021      -6.55851984    
 Ni   7.03777981      -18.9326897      -6.55872011    
 Ni   7.03716993      -5.04939985      -4.37291002    
 Ni   5.03079987      -6.31188011      -5.10102987    
 Ni   5.03076982      -7.57266998      -2.91658998    
 Ni   5.03090000      -8.83537960     -0.729870021    
 Ni   7.03641987      -15.1465197      -13.1159201    
 Ni   7.03705978      -6.31159019      -2.18603992    
 Ni   9.03810024      -6.31143999      -3.64417005    
 Ni   9.03777981      -3.78697991      -3.64394999    
 Ni   11.0457201      -2.52449989      -2.91476011    
 Ni   13.0512104      -1.26238000      -2.18665004    
 Ni   13.0532398      -2.52425003      -1.09799998E-02
 Ni   11.0444298      -3.78698993     -0.728550017    
 Ni   9.03757000      -5.05007982      -1.45653999    
 Ni   11.0421696      -6.31217003     -0.726819992    
 Ni   11.0314798      -7.56937981      -2.89520001    
 Ni   13.0485401      -8.83891010      -2.17350006    
 Ni   15.0344105      -7.57096004      -1.45027995    
 Ni   15.0413599      -5.04650021      -1.45799994    
 Ni   15.0412903      -3.78120995      -3.64186001    
 Ni   15.0515699      -6.29489994      -3.63633990    
 Ni   15.0457897      -5.03078985      -5.82415009    
 Ni   13.0493498      -6.22417021      -6.55004978    
 Ni   13.0550900      -7.49876022      -4.23862982    
 Ni   7.04101992      -11.3596201      -6.55940008    
 Ni   9.03577042      -10.1043396      -5.83834982    
 Ni   11.0432997      -11.3593502     -0.726909995    
 Ni   13.0520496      -10.0975504       2.00999994E-03
 Ni   13.0492096      -16.4227905      -6.56001997    
 Ni   11.0424995      -17.6695805      -7.28986979    
 Ni   3.03103995      -12.6212301      -10.2019196    
 Ni   5.03273010      -11.3587904      -9.47327042    
 Ni   7.04004002      -10.0981398      -8.74407959    
 Ni   7.03871012      -8.83553982      -10.9302902    
 Ni   9.03376007      -7.56974983      -10.2030001    
 Ni   11.0476904      -6.31093979      -9.47601032    
 Ni   13.0466499      -5.04757023      -8.75164986    
 Ni   3.03231001      -13.8841400      -8.01574039    
 Ni   5.03394985      -12.6210699      -7.28736019    
 Ni   5.03099012      -10.0978699      -11.6587801    
 Ni   3.02983999      -15.1463804      -5.82930994    
 Ni   3.03115010      -17.6702595      -5.82904005    
 Ni   3.03172994      -18.9326096      -8.01484966    
 Ni   5.03096008      -17.6702995      -7.28739023    
 Ni   5.03132010      -16.4076595      -9.47243023    
 Ni   7.03778982      -15.1457796      -8.74555969    
 Ni   9.03217030      -13.8863096      -8.01856041    
 Ni   11.0166101      -12.6533899      -7.30674982    
 Ni   13.0367203      -11.6104698      -6.35213995    
 Ni   11.0090904      -11.3595104      -5.06007004    
 Ni   11.0467796      -13.8833904      -5.10192013    
 Ni   13.0504103      -12.6909704      -4.26667023    
 Ni   15.0520601      -11.3695898      -3.63456011    
 Ni   15.0354795      -12.6245003      -1.45074999    
 Ni   13.0497999      -13.8913002      -2.17076993    
 Ni   11.0445499      -15.1456404      -2.91452003    
 Ni   3.02989006      -16.4085999      -3.64355993    
 Ni   3.03102994      -15.1465998      -1.45801997    
 Ni   5.03043985      -15.1460800      -2.91510010    
 Ni   7.03732014      -13.8846302      -10.9306202    
 Ni   9.03199005      -12.6255903      -10.2024403    
 Ni   3.03069997      -17.6706200      -10.2027903    
 Ni   3.03237009      -16.4092293      -12.3876200    
 Ni   5.03078985      -15.1454000      -11.6590204    
 Ni   3.03241992      -12.6224699      -1.45762002    
 Ni   3.03256011      -10.0980797      -1.45886004    
 Ni   3.03114009      -8.83541012      -3.64457011    
 Ni   3.03091002      -7.57361984      -5.82989979    
 Ni   3.03239012      -6.31185007      -8.01597023    
 Ni   5.03174019      -5.05003977      -7.28694010    
 Ni   5.03267002      -6.31261015      -9.47210979    
 Ni   7.03641987      -5.04910994      -8.74466991    
 Ni   3.03223991      -11.3598804      -3.64370990    
 Ni   5.03222990      -10.0972300      -2.91667008    
 Ni   7.03451014      -8.83594036      -2.18300009    
 Ni   9.03509045      -7.57280016      -1.45492995    
 Ni   5.03220987      -8.83500957      -5.10171986    
 Ni   7.03702021      -7.57259989      -4.37275982    
 Ni   3.03437996      -10.0974798      -5.83023977    
 Ni   3.03396010      -8.83506012      -8.01609039    
 Ni   5.03357983      -7.57418013      -7.28695011    
 Ni   3.03224993      -7.57331991      -10.2016001    
 Ni   7.03624010      -17.6704998      -13.1162996    
 Ni   9.03800011      -15.1460304      -5.83004999    
 Ni   9.03882027      -5.04916000      -5.83002996    
 Ni   11.0447702      -3.78684998      -5.10131979    
 Ni   13.0516996      -2.52362990      -4.37182999    
 Ni   13.0523100      -3.78601003      -2.18600988    
 Ni   15.0415001      -2.52377009      -1.46167004    
 Ni   11.0433397      -15.1470699      -11.6576405    
 Ni   10.9856195      -7.53187990      -7.31656981    
 Ni   11.0448399      -5.04908991      -2.91471004    
 Ni   12.9900904      -10.1645498      -9.04638004    
 Ni   13.0489998      -5.05601978      -9.46000032E-03
 Ni   15.1474705      -10.1076097      -5.75722980    
 Ni   3.03110003      -5.04873991      -5.82958984    
 Ni   3.03099990      -3.78580999      -3.64316010    
 Ni   5.03197002      -2.52452993      -2.91455007    
 Ni   7.03747988      -16.4078808      -2.18552995    
 Ni   7.03737020      -10.0972996      -13.1157904    
 Ni   5.03174019      -3.78659010     -0.728929996    
 Ni   3.03160000      -5.04743004      -1.45785999    
 Ni   5.03099012      -6.31017017     -0.729089975    
 Ni   7.03730011      -12.6220703      -13.1164303    
 Ni   7.03854990      -3.78655005      -2.18629003    
 Ni   9.03759956      -2.52431989      -1.45709002    
 Ni   11.0448303      -1.26218998     -0.728950024    
 Ni   13.0505199      -15.1373100      -1.00499997E-02
 Ni   3.03003001      -6.31036997      -3.64353991    
 Ni   5.03190994      -5.04863024      -2.91489005    
 Ni   5.03074980      -3.78698993      -5.10097980    
 Ni   7.03751993      -17.6708508      -4.37291002    
 Ni   3.03193998      -7.57268000      -1.45763004    
 Ni   3.03101993      -2.52449989      -1.45799994    
 Ni   5.03063011      -1.26231003     -0.728420019    
 Ni   7.03763008      -22.7192593      -13.1169205    
 Ni   15.0371304      -21.4493198      -12.3980999    
 N    13.6060305      -10.2129202      -7.42653990    
 N    14.1513300      -8.92306042      -7.47386980    
