NiAl                                    
           1
     0.000000  -15.146222    0.000000
     0.000000   -7.573111  -13.117013
    29.000000    0.000000    0.000000
   Ni   N 
 252   2
Direct configuration=     1
   0.44611949  0.61278586  0.52320000
   0.61600733  0.44199621  0.51834138
   0.77899413  0.27671087  0.51854621
   0.94448875  0.11115564  0.51853138
   0.94482600  0.27758683  0.51870379
   0.94448866  0.44435574  0.51853138
   0.77828647  0.61130382  0.51848276
   0.61126115  0.77792788  0.51857310
   0.44463746  0.94495295  0.51848272
   0.61123128  0.94438423  0.51861517
   0.77771841  0.94438423  0.51861517
   0.94414420  0.77792781  0.51857310
   0.94374291  0.61130382  0.51848276
   0.83315088  0.66703144  0.44996379
   0.66664503  0.83331244  0.45007172
   0.72222210  0.88888912  0.38087241
   0.88901587  0.72225133  0.38084621
   0.94447693  0.77776161  0.31161828
   0.77777813  0.94444438  0.31165759
   0.94441857  0.94444133  0.31164069
   0.88901579  0.88873276  0.38084621
   0.83337582  0.83331237  0.45007172
   0.77771794  0.77789731  0.51861517
   0.77899471  0.44429476  0.51854621
   0.66696440  0.49998731  0.45010069
   0.83361047  0.33319476  0.45009897
   0.88883033  0.38894831  0.38086552
   0.72212232  0.55558610  0.38081138
   0.77777487  0.61113991  0.31164069
   0.61109468  0.77776169  0.31161828
   0.66667335  0.83333913  0.24266452
   0.83331173  0.66670972  0.24265279
   0.88898916  0.72215832  0.17349797
   0.72222210  0.88888912  0.17346107
   0.77779242  0.94445818  0.10453624
   0.94450322  0.77774865  0.10455107
   0.94445915  0.94448707  0.10454590
   0.88898860  0.88885329  0.17349797
   0.83332151  0.83333913  0.24266452
   0.77777775  0.77777770  0.31165759
   0.72206599  0.72225133  0.38084621
   0.66642546  0.66667084  0.44999445
   0.55544721  0.72211335  0.38088031
   0.50000397  0.83309212  0.44999445
   0.33332069  0.83363111  0.45010062
   0.27532967  0.78267370  0.51834131
   0.11004403  0.94566127  0.51854610
   0.27762774  0.94566127  0.51854614
   0.44443995  0.77893657  0.51861445
   0.49945027  0.66611668  0.45103997
   0.61226995  0.61110720  0.51861448
   0.61111138  0.94444445  0.31165759
   0.44447332  0.94444140  0.31164066
   0.38891953  0.88878925  0.38081134
   0.38893497  0.72210427  0.38127548
   0.22229407  0.72210427  0.38127545
   0.05562453  0.88878925  0.38081131
   0.00023705  0.83309220  0.44999441
   0.16776634  0.66611660  0.45103993
   0.27442779  0.61278594  0.52319993
   0.10995662  0.61110720  0.51861441
   0.27533025  0.44199629  0.51834131
   0.44444030  0.27662327  0.51861445
   0.61126102  0.11081113  0.51857307
   0.66642554  0.16690393  0.44999448
   0.83315103  0.99981787  0.44996383
   0.88883357  0.05550052  0.38080934
   0.72212283  0.22229154  0.38081138
   0.77776228  0.27779496  0.31165483
   0.61097293  0.44451356  0.31184859
   0.66660597  0.49997817  0.24273686
   0.49988321  0.66655039  0.24285407
   0.55546530  0.72213157  0.17355441
   0.38883213  0.88883492  0.17349334
   0.33331154  0.83327204  0.24273679
   0.27784676  0.77763978  0.31184848
   0.11112830  0.94442921  0.31165466
   0.27777642  0.94442928  0.31165469
   0.22223952  0.88885413  0.38089814
   0.16638123  0.83363127  0.45010052
   0.10995639  0.77893672  0.51861431
   0.94441841  0.61113991  0.31164072
   0.94442430  0.44448459  0.31166586
   0.94442201  0.27778886  0.31166517
   0.94442482  0.11109084  0.31166586
   0.83328658  0.16665380  0.24266966
   0.66660124  0.16676129  0.24270445
   0.49988367  0.33356596  0.24285410
   0.55552059  0.38894900  0.17356272
   0.38888896  0.55555553  0.17360786
   0.44444307  0.61110934  0.10461686
   0.61108465  0.44445783  0.10453548
   0.77779956  0.27776134  0.10449483
   0.72216907  0.22233256  0.17349345
   0.72218661  0.05565513  0.17349793
   0.88893115  0.05559719  0.17349000
   0.83331232  0.99997858  0.24265276
   0.77777512  0.11108467  0.31164069
   0.61109497  0.11114337  0.31161824
   0.55558477  0.05568265  0.38084617
   0.50036504  0.99981779  0.44996376
   0.33361232  0.16636029  0.44998514
   0.16652801  0.33319476  0.45009890
   0.99969368  0.50027930  0.44998510
   0.05562482  0.55558610  0.38081131
   0.22223957  0.38890638  0.38089821
   0.27784689  0.44451356  0.31184855
   0.11130246  0.61103546  0.31173717
   0.16689984  0.66655039  0.24285407
   0.00009437  0.83326823  0.24270441
   0.05566643  0.88883499  0.17349338
   0.22228234  0.72218729  0.17356269
   0.27779128  0.77775101  0.10453548
   0.11109495  0.94446580  0.10449476
   0.27777276  0.94446580  0.10449479
   0.44438720  0.94448715  0.10454586
   0.61108214  0.77774873  0.10455103
   0.77782065  0.61105376  0.10454586
   0.72216893  0.55549843  0.17349345
   0.83328663  0.50005974  0.24266966
   0.88888621  0.38885530  0.17348138
   0.83328062  0.33335944  0.24268207
   0.72219697  0.38890181  0.17347241
   0.66660581  0.33341669  0.24273690
   0.61099608  0.27796885  0.31173724
   0.55544693  0.22243944  0.38088034
   0.44436904  0.27796885  0.31173721
   0.38893517  0.38896059  0.38127548
   0.49945009  0.33443300  0.45103997
   0.33324705  0.49991428  0.45091510
   0.38888875  0.55555568  0.38187890
   0.44431699  0.61098370  0.31211821
   0.27803328  0.61098370  0.31211821
   0.33337430  0.50004152  0.24289407
   0.16674986  0.49997824  0.24273679
   0.99998763  0.50005981  0.24266955
   0.16669322  0.33335951  0.24268197
   0.22223466  0.38890181  0.17347234
   0.38883237  0.22233263  0.17349338
   0.55549154  0.05565520  0.17349790
   0.50004293  0.99997873  0.24265269
   0.33339290  0.16665387  0.24266959
   0.27777606  0.27779511  0.31165476
   0.11112296  0.27778901  0.31166507
   0.05555549  0.22222232  0.38087783
   0.99999574  0.16666249  0.45007748
   0.16652765  0.00027773  0.45009886
   0.22228221  0.05549678  0.38086545
   0.27781755  0.11109092  0.31166579
   0.38899981  0.05550052  0.38080924
   0.38891953  0.22229154  0.38081131
   0.50000371  0.16690393  0.44999441
   0.44463736  0.11040944  0.51848269
   0.27768861  0.11115587  0.51853131
   0.11092017  0.27758706  0.51870369
   0.27762803  0.27671102  0.51854610
   0.11004360  0.44429498  0.51854607
   0.16638212  0.49998747  0.45010055
   0.33332055  0.33304847  0.45010059
   0.49991746  0.50004144  0.24289407
   0.44431680  0.44469957  0.31211821
   0.72206593  0.05568257  0.38084621
   0.66664528  0.00004262  0.45007172
   0.83336093  0.50027930  0.44998517
   0.88883308  0.55566691  0.38080931
   0.44444281  0.77777465  0.10455652
   0.38886388  0.72218729  0.17356272
   0.33337444  0.66658470  0.24289410
   0.16674987  0.83327204  0.24273686
   0.11130222  0.77766258  0.31173721
   0.05577293  0.72211327  0.38088031
   0.00023707  0.66667084  0.44999441
   0.61110776  0.61110941  0.10455652
   0.55552061  0.55553045  0.17356272
   0.22223474  0.88886396  0.17347238
   0.77779877  0.44443961  0.10449479
   0.94445912  0.44441521  0.10452790
   0.94445898  0.61105376  0.10454583
   0.88893086  0.55547175  0.17348997
   0.72218650  0.72215832  0.17349790
   0.66660148  0.66663730  0.24270445
   0.61099616  0.61103539  0.31173721
   0.55543832  0.55560127  0.38127548
   0.50017210  0.49991405  0.45091514
   0.55543829  0.38896043  0.38127548
   0.72218742  0.38890638  0.38089824
   0.66696437  0.33304831  0.45010066
   0.61227048  0.27662312  0.51861445
   0.77828652  0.11040928  0.51848272
   0.83336081  0.16636021  0.44998514
   0.88883063  0.22222125  0.38086552
   0.94447405  0.27776294  0.10450828
   0.94445957  0.11112591  0.10452793
   0.88888648  0.22225876  0.17348138
   0.49997085  0.83326823  0.24270445
   0.44436875  0.77766250  0.31173721
   0.77779192  0.77774949  0.10453617
   0.61108345  0.94445818  0.10453621
   0.55549150  0.88885329  0.17349793
   0.77782063  0.11112583  0.10454586
   0.61108208  0.11116929  0.10455103
   0.44444305  0.27778268  0.10455655
   0.27779097  0.44445783  0.10453552
   0.11111637  0.61110934  0.10455655
   0.05566605  0.55549835  0.17349345
   0.05573724  0.72213157  0.17355448
   0.00009468  0.66663715  0.24270448
   0.61110771  0.27778268  0.10455655
   0.55546493  0.22240346  0.17355448
   0.49997088  0.16676122  0.24270448
   0.44447352  0.11108467  0.31164069
   0.38886385  0.38894900  0.17356276
   0.33331161  0.33341654  0.24273690
   0.44444314  0.44444715  0.10461690
   0.27778104  0.61110934  0.10461690
   0.22228242  0.55553037  0.17356276
   0.11111609  0.77777457  0.10455655
   0.66667286  0.99998773  0.24266448
   0.77776280  0.44444273  0.31165486
   0.11112833  0.44444281  0.31165469
   0.05555426  0.38894847  0.38086534
   0.99999525  0.33334213  0.45007738
   0.16667461  0.16666234  0.45007741
   0.11091963  0.11149284  0.51870359
   0.55558467  0.88873284  0.38084617
   0.22229354  0.55560150  0.38127541
   0.22228205  0.22222133  0.38086541
   0.33324716  0.66683872  0.45091510
   0.33361254  0.00002752  0.44998507
   0.44611953  0.44109426  0.52319997
   0.11109518  0.44443953  0.10449483
   0.11109645  0.27776294  0.10450828
   0.05555567  0.22222209  0.17351690
   0.99997275  0.16664008  0.24268279
   0.16669302  0.99994740  0.24268210
   0.22218885  0.05555304  0.17348138
   0.27774789  0.11112591  0.10452793
   0.38880500  0.05559726  0.17348997
   0.33339337  0.99995273  0.24266966
   0.16672063  0.16664015  0.24268276
   0.11112246  0.11108863  0.31166521
   0.05555509  0.05549678  0.38086559
   0.99969332  0.00002760  0.44998524
   0.27777314  0.27776134  0.10449483
   0.22218894  0.22225861  0.17348138
   0.05559193  0.38885530  0.17348138
   0.99997334  0.33338688  0.24268276
   0.44438691  0.11112583  0.10454586
   0.11109641  0.11114047  0.10450828
   0.05559145  0.05555320  0.17348141
   0.99998731  0.99995289  0.24266969
   0.94374282  0.94495288  0.51848279
   0.38888879  0.55555561  0.46391345
   0.32095219  0.56666012  0.48267324
Direct configuration=     2
   0.44683234  0.61320506  0.52345193
   0.61574822  0.44213320  0.51849731
   0.77899223  0.27670378  0.51854608
   0.94448892  0.11115630  0.51853094
   0.94481929  0.27758937  0.51870721
   0.94448657  0.44434884  0.51853003
   0.77827027  0.61129359  0.51848083
   0.61126581  0.77793342  0.51856851
   0.44462628  0.94493206  0.51847922
   0.61125129  0.94436962  0.51861260
   0.77771883  0.94437636  0.51861967
   0.94416664  0.77793241  0.51856952
   0.94379753  0.61127890  0.51848397
   0.83315464  0.66703185  0.44995774
   0.66665320  0.83331166  0.45007563
   0.72222615  0.88888967  0.38086925
   0.88901309  0.72224781  0.38084495
   0.94447342  0.77776329  0.31162523
   0.77776887  0.94444914  0.31166031
   0.94442204  0.94444314  0.31164358
   0.88900210  0.88873795  0.38084326
   0.83339437  0.83330205  0.45006639
   0.77771152  0.77791178  0.51861864
   0.77898721  0.44430613  0.51854681
   0.66710949  0.49993259  0.45006598
   0.83358596  0.33321046  0.45009302
   0.88883220  0.38895747  0.38086458
   0.72212508  0.55558120  0.38082150
   0.77777637  0.61113217  0.31164156
   0.61108650  0.77775662  0.31162934
   0.66666812  0.83334590  0.24265670
   0.83330943  0.66670786  0.24264849
   0.88897859  0.72216317  0.17349141
   0.72223232  0.88888751  0.17345640
   0.77779312  0.94445544  0.10452898
   0.94450524  0.77775372  0.10455508
   0.94445537  0.94448633  0.10454025
   0.88897500  0.88885848  0.17348904
   0.83330144  0.83334754  0.24266373
   0.77777390  0.77778163  0.31166133
   0.72208329  0.72224260  0.38084263
   0.66644912  0.66665749  0.44999860
   0.55539974  0.72206869  0.38090477
   0.49998303  0.83309619  0.44999857
   0.33327302  0.83383530  0.45005921
   0.27540742  0.78266971  0.51851390
   0.11005173  0.94563408  0.51854959
   0.27761737  0.94563664  0.51855380
   0.44440893  0.77888863  0.51866743
   0.49980800  0.66644390  0.45095202
   0.61222914  0.61109483  0.51865686
   0.61110670  0.94445322  0.31165370
   0.44447170  0.94444505  0.31164211
   0.38890874  0.88878800  0.38081328
   0.38895842  0.72229416  0.38117203
   0.22207777  0.72228223  0.38112885
   0.05562732  0.88878243  0.38082568
   0.00022106  0.83310752  0.44998981
   0.16634226  0.66693473  0.45080853
   0.25810353  0.62836764  0.53728989
   0.10944144  0.61114474  0.51869550
   0.27526223  0.44157744  0.51860729
   0.44443522  0.27664594  0.51865892
   0.61127471  0.11079424  0.51856096
   0.66646837  0.16687740  0.44999806
   0.83316607  0.99980479  0.44995792
   0.88881983  0.05550155  0.38081271
   0.72211701  0.22229850  0.38081899
   0.77773962  0.27780692  0.31165543
   0.61096322  0.44451678  0.31185372
   0.66661252  0.49997486  0.24273860
   0.49988973  0.66654604  0.24285148
   0.55547458  0.72212500  0.17354988
   0.38881932  0.88883609  0.17349129
   0.33330956  0.83327476  0.24273435
   0.27785893  0.77763506  0.31185268
   0.11113016  0.94442253  0.31165927
   0.27778238  0.94442306  0.31166031
   0.22223760  0.88886052  0.38090962
   0.16618012  0.83392489  0.45008397
   0.10963526  0.77934985  0.51866881
   0.94442822  0.61112493  0.31164368
   0.94442709  0.44448645  0.31166406
   0.94442060  0.27779588  0.31166517
   0.94442736  0.11108962  0.31166348
   0.83328266  0.16665664  0.24266554
   0.66659465  0.16675416  0.24270326
   0.49989112  0.33355446  0.24285213
   0.55552160  0.38893768  0.17357160
   0.38886974  0.55556628  0.17361558
   0.44442993  0.61111363  0.10462234
   0.61109080  0.44445388  0.10455233
   0.77780255  0.27776250  0.10449020
   0.72216507  0.22232673  0.17349874
   0.72218678  0.05565430  0.17349979
   0.88891839  0.05559384  0.17348460
   0.83330488  0.99998010  0.24264664
   0.77776422  0.11109102  0.31164054
   0.61107579  0.11117287  0.31162690
   0.55558934  0.05568595  0.38084121
   0.50036011  0.99981855  0.44996504
   0.33359456  0.16633100  0.44998068
   0.16653873  0.33319766  0.45009416
   0.99966329  0.50027000  0.44998659
   0.05562337  0.55559144  0.38082164
   0.22224862  0.38890392  0.38090960
   0.27786798  0.44450018  0.31186264
   0.11128277  0.61104193  0.31172381
   0.16689818  0.66655316  0.24284344
   0.00009696  0.83326965  0.24269612
   0.05567424  0.88882585  0.17349139
   0.22228285  0.72218755  0.17356445
   0.27778318  0.77775316  0.10452362
   0.11110063  0.94445501  0.10449513
   0.27776821  0.94445937  0.10448989
   0.44439062  0.94448089  0.10454991
   0.61108768  0.77774256  0.10455487
   0.77782343  0.61105148  0.10454024
   0.72217518  0.55550150  0.17349935
   0.83329162  0.50005950  0.24266552
   0.88888073  0.38886980  0.17347916
   0.83327862  0.33336323  0.24267951
   0.72220810  0.38889751  0.17347726
   0.66660662  0.33341603  0.24273947
   0.61099792  0.27795397  0.31172363
   0.55538852  0.22254488  0.38090192
   0.44440195  0.27792454  0.31169772
   0.38901328  0.38863490  0.38109765
   0.49994784  0.33361611  0.45093573
   0.32914986  0.45431775  0.43178612
   0.38891744  0.55562214  0.38110344
   0.44431947  0.61097794  0.31213019
   0.27804012  0.61098261  0.31214451
   0.33337715  0.50003976  0.24289371
   0.16674383  0.49997396  0.24273280
   0.99998660  0.50005209  0.24267036
   0.16669158  0.33336175  0.24267984
   0.22224294  0.38890131  0.17347677
   0.38882788  0.22233578  0.17349283
   0.55550583  0.05566063  0.17349585
   0.50004912  0.99997804  0.24265557
   0.33339269  0.16665629  0.24266834
   0.27778322  0.27779773  0.31165958
   0.11112742  0.27779723  0.31166736
   0.05556680  0.22222244  0.38088344
   0.00000600  0.16665871  0.45007849
   0.16654427  0.00025658  0.45009793
   0.22228055  0.05550266  0.38086700
   0.27782570  0.11108786  0.31166502
   0.38898385  0.05550986  0.38081182
   0.38890923  0.22231061  0.38080923
   0.49998399  0.16691977  0.44999001
   0.44462151  0.11043529  0.51847567
   0.27768316  0.11115495  0.51853529
   0.11092821  0.27759236  0.51869396
   0.27760678  0.27679000  0.51854713
   0.11006797  0.44430121  0.51853493
   0.16597975  0.49983945  0.45004626
   0.33329162  0.33276782  0.45003588
   0.49992460  0.50003388  0.24290612
   0.44432418  0.44468923  0.31214025
   0.72208127  0.05566863  0.38084140
   0.66665652  0.00003187  0.45007309
   0.83340429  0.50026813  0.44997746
   0.88882329  0.55567600  0.38081346
   0.44443471  0.77777738  0.10455176
   0.38884391  0.72219657  0.17356089
   0.33337270  0.66658481  0.24289377
   0.16674860  0.83327398  0.24272990
   0.11128258  0.77767065  0.31172752
   0.05585651  0.72206727  0.38089988
   0.00020204  0.66668042  0.44998955
   0.61111856  0.61111240  0.10456322
   0.55552324  0.55553167  0.17357017
   0.22223745  0.88885123  0.17347328
   0.77780596  0.44443477  0.10448786
   0.94445674  0.44441141  0.10452175
   0.94445195  0.61105416  0.10454928
   0.88891762  0.55548306  0.17348912
   0.72219950  0.72214930  0.17350026
   0.66660870  0.66664425  0.24270336
   0.61100330  0.61104206  0.31172259
   0.55562788  0.55563932  0.38115173
   0.51616190  0.49202876  0.44952994
   0.55560515  0.38874545  0.38115639
   0.72217966  0.38891185  0.38090278
   0.66707548  0.33298412  0.45006323
   0.61221929  0.27669479  0.51865338
   0.77827878  0.11042713  0.51847605
   0.83341047  0.16632064  0.44998141
   0.88883118  0.22221872  0.38086565
   0.94447093  0.27776741  0.10450477
   0.94445855  0.11112773  0.10452513
   0.88888207  0.22225899  0.17347722
   0.49998295  0.83327485  0.24270186
   0.44438858  0.77765794  0.31172003
   0.77779203  0.77775690  0.10452959
   0.61109643  0.94445535  0.10454205
   0.55550813  0.88884812  0.17349463
   0.77781831  0.11111888  0.10454336
   0.61108721  0.11116969  0.10455126
   0.44443940  0.27778942  0.10455599
   0.27779190  0.44446066  0.10453187
   0.11112517  0.61111385  0.10455870
   0.05566585  0.55549828  0.17349321
   0.05574304  0.72213532  0.17354662
   0.00008892  0.66663658  0.24269838
   0.61111602  0.27776809  0.10455936
   0.55547968  0.22239182  0.17355040
   0.49999379  0.16672576  0.24269579
   0.44446875  0.11109556  0.31164003
   0.38886207  0.38894540  0.17356367
   0.33331298  0.33341306  0.24273775
   0.44443196  0.44445054  0.10461960
   0.27777026  0.61111641  0.10461028
   0.22228341  0.55553985  0.17356601
   0.11112105  0.77777101  0.10454978
   0.66666371  0.99998865  0.24265903
   0.77774942  0.44445104  0.31165548
   0.11112569  0.44444144  0.31165991
   0.05556578  0.38893735  0.38086543
   0.00000044  0.33334002  0.45007535
   0.16667865  0.16666099  0.45007524
   0.11093129  0.11146999  0.51869821
   0.55558819  0.88872787  0.38084237
   0.22199894  0.55563143  0.38104403
   0.22227866  0.22222212  0.38086653
   0.32508778  0.68781992  0.44793631
   0.33358862  0.00006511  0.44998170
   0.44747984  0.43950279  0.52375151
   0.11109508  0.44444035  0.10449928
   0.11108942  0.27776447  0.10451439
   0.05555796  0.22222412  0.17351573
   0.99997349  0.16663990  0.24268205
   0.16669558  0.99994220  0.24267641
   0.22219417  0.05555140  0.17348548
   0.27773569  0.11113111  0.10453304
   0.38881128  0.05559808  0.17349151
   0.33339077  0.99995720  0.24266855
   0.16671462  0.16664773  0.24268722
   0.11112869  0.11108519  0.31166719
   0.05556854  0.05549974  0.38086984
   0.99967635  0.00005782  0.44999228
   0.27777004  0.27776682  0.10449527
   0.22219225  0.22225498  0.17348779
   0.05558135  0.38886373  0.17348128
   0.99997296  0.33339242  0.24268113
   0.44439653  0.11112574  0.10454985
   0.11109280  0.11114405  0.10451416
   0.05559146  0.05554583  0.17347769
   0.99999024  0.99995574  0.24266612
   0.94378285  0.94491908  0.51849363
   0.41901287  0.55158239  0.46167084
   0.30343080  0.58838817  0.49494731
Direct configuration=     3
   0.44642887  0.61296779  0.52330934
   0.61589488  0.44205567  0.51840905
   0.77899331  0.27670779  0.51854615
   0.94448882  0.11115593  0.51853119
   0.94482309  0.27758793  0.51870528
   0.94448775  0.44435275  0.51853080
   0.77827944  0.61129938  0.51848192
   0.61126317  0.77793028  0.51857111
   0.44463261  0.94494389  0.51848120
   0.61123997  0.94437789  0.51861406
   0.77771859  0.94438081  0.51861712
   0.94415394  0.77792981  0.51857155
   0.94376661  0.61129300  0.51848329
   0.83315251  0.66703162  0.44996117
   0.66664857  0.83331210  0.45007342
   0.72222386  0.88888936  0.38087104
   0.88901467  0.72224981  0.38084566
   0.94447541  0.77776234  0.31162129
   0.77777411  0.94444645  0.31165877
   0.94442008  0.94444212  0.31164195
   0.88900985  0.88873501  0.38084493
   0.83338388  0.83330789  0.45006941
   0.77771516  0.77790359  0.51861668
   0.77899145  0.44429969  0.51854647
   0.66702736  0.49996356  0.45008563
   0.83359983  0.33320158  0.45009638
   0.88883114  0.38895229  0.38086511
   0.72212352  0.55558397  0.38081577
   0.77777552  0.61113655  0.31164107
   0.61109113  0.77775949  0.31162308
   0.66667108  0.83334207  0.24266112
   0.83331073  0.66670892  0.24265093
   0.88898457  0.72216043  0.17349512
   0.72222654  0.88888842  0.17345904
   0.77779273  0.94445699  0.10453309
   0.94450410  0.77775085  0.10455281
   0.94445751  0.94448675  0.10454344
   0.88898270  0.88885554  0.17349409
   0.83331280  0.83334278  0.24266417
   0.77777608  0.77777941  0.31165921
   0.72207350  0.72224754  0.38084466
   0.66643573  0.66666505  0.44999625
   0.55542660  0.72209397  0.38089093
   0.49999488  0.83309388  0.44999624
   0.33330000  0.83371973  0.45008265
   0.27536341  0.78267197  0.51841621
   0.11004737  0.94564947  0.51854762
   0.27762324  0.94565058  0.51854946
   0.44442649  0.77891576  0.51863744
   0.49960552  0.66625869  0.45100180
   0.61225224  0.61110183  0.51863287
   0.61110935  0.94444826  0.31165590
   0.44447262  0.94444299  0.31164129
   0.38891485  0.88878871  0.38081219
   0.38894515  0.72218668  0.38123058
   0.22220020  0.72218150  0.38121182
   0.05562574  0.88878629  0.38081755
   0.00023011  0.83309885  0.44999241
   0.16714829  0.66647167  0.45093950
   0.26734310  0.61954836  0.52931494
   0.10973304  0.61112349  0.51864960
   0.27530073  0.44181451  0.51845675
   0.44443809  0.27663311  0.51863375
   0.61126697  0.11080380  0.51856781
   0.66644413  0.16689242  0.44999604
   0.83315756  0.99981219  0.44996126
   0.88882761  0.05550096  0.38081081
   0.72212030  0.22229456  0.38081468
   0.77775245  0.27780015  0.31165509
   0.61096872  0.44451496  0.31185081
   0.66660882  0.49997673  0.24273762
   0.49988604  0.66654850  0.24285295
   0.55546933  0.72212872  0.17355245
   0.38882657  0.88883542  0.17349245
   0.33331068  0.83327322  0.24273573
   0.27785205  0.77763773  0.31185030
   0.11112911  0.94442631  0.31165666
   0.27777901  0.94442658  0.31165713
   0.22223869  0.88885690  0.38090312
   0.16629395  0.83375870  0.45009333
   0.10981702  0.77911602  0.51863796
   0.94442267  0.61113341  0.31164200
   0.94442551  0.44448539  0.31166508
   0.94442140  0.27779191  0.31166517
   0.94442592  0.11109031  0.31166483
   0.83328488  0.16665503  0.24266787
   0.66659838  0.16675820  0.24270393
   0.49988691  0.33356097  0.24285325
   0.55552103  0.38894409  0.17356658
   0.38888062  0.55556019  0.17361121
   0.44443737  0.61111120  0.10461924
   0.61108732  0.44445611  0.10454279
   0.77780086  0.27776184  0.10449282
   0.72216733  0.22233003  0.17349574
   0.72218668  0.05565477  0.17349874
   0.88892562  0.05559574  0.17348766
   0.83330909  0.99997924  0.24265010
   0.77777039  0.11108742  0.31164062
   0.61108665  0.11115617  0.31162200
   0.55558675  0.05568408  0.38084402
   0.50036290  0.99981812  0.44996432
   0.33360461  0.16634758  0.44998320
   0.16653266  0.33319602  0.45009684
   0.99968049  0.50027526  0.44998575
   0.05562419  0.55558842  0.38081579
   0.22224350  0.38890531  0.38090315
   0.27785604  0.44450775  0.31185467
   0.11129391  0.61103827  0.31173137
   0.16689912  0.66655159  0.24284945
   0.00009549  0.83326885  0.24270081
   0.05566982  0.88883103  0.17349251
   0.22228256  0.72218740  0.17356345
   0.27778777  0.77775195  0.10453034
   0.11109742  0.94446112  0.10449492
   0.27777078  0.94446301  0.10449267
   0.44438869  0.94448443  0.10454762
   0.61108455  0.77774605  0.10455270
   0.77782186  0.61105277  0.10454342
   0.72217165  0.55549976  0.17349601
   0.83328880  0.50005963  0.24266786
   0.88888383  0.38886160  0.17348042
   0.83327975  0.33336108  0.24268096
   0.72220180  0.38889994  0.17347452
   0.66660616  0.33341640  0.24273801
   0.61099687  0.27796239  0.31173133
   0.55542158  0.22248520  0.38088971
   0.44438333  0.27794962  0.31172007
   0.38896907  0.38881924  0.38119831
   0.49966611  0.33407847  0.45099473
   0.33146888  0.48012550  0.44261318
   0.38890120  0.55558452  0.38154235
   0.44431807  0.61098120  0.31212341
   0.27803625  0.61098322  0.31212962
   0.33337554  0.50004076  0.24289391
   0.16674724  0.49997638  0.24273506
   0.99998718  0.50005646  0.24266990
   0.16669251  0.33336048  0.24268104
   0.22223825  0.38890159  0.17347427
   0.38883042  0.22233400  0.17349314
   0.55549774  0.05565756  0.17349701
   0.50004562  0.99997843  0.24265394
   0.33339281  0.16665492  0.24266905
   0.27777917  0.27779625  0.31165685
   0.11112490  0.27779258  0.31166606
   0.05556040  0.22222237  0.38088026
   0.00000019  0.16666085  0.45007792
   0.16653486  0.00026855  0.45009846
   0.22228149  0.05549933  0.38086612
   0.27782109  0.11108959  0.31166546
   0.38899288  0.05550457  0.38081036
   0.38891506  0.22229982  0.38081041
   0.49999515  0.16691081  0.44999250
   0.44463048  0.11042066  0.51847964
   0.27768624  0.11115547  0.51853304
   0.11092366  0.27758936  0.51869947
   0.27761881  0.27674530  0.51854655
   0.11005418  0.44429769  0.51854124
   0.16620749  0.49992323  0.45007699
   0.33330800  0.33292666  0.45007250
   0.49992056  0.50003816  0.24289930
   0.44432001  0.44469508  0.31212777
   0.72207259  0.05567652  0.38084412
   0.66665016  0.00003795  0.45007232
   0.83337975  0.50027445  0.44998182
   0.88882883  0.55567086  0.38081111
   0.44443930  0.77777583  0.10455445
   0.38885521  0.72219132  0.17356193
   0.33337368  0.66658475  0.24289396
   0.16674932  0.83327288  0.24273384
   0.11129369  0.77766608  0.31173300
   0.05580920  0.72209330  0.38088880
   0.00022187  0.66667500  0.44999230
   0.61111245  0.61111071  0.10455943
   0.55552175  0.55553098  0.17356595
   0.22223592  0.88885844  0.17347277
   0.77780189  0.44443751  0.10449179
   0.94445809  0.44441356  0.10452523
   0.94445593  0.61105393  0.10454733
   0.88892511  0.55547665  0.17348960
   0.72219214  0.72215441  0.17349892
   0.66660461  0.66664032  0.24270398
   0.61099926  0.61103828  0.31173086
   0.55552059  0.55561778  0.38122177
   0.50711163  0.49649186  0.45031397
   0.55551070  0.38886713  0.38122380
   0.72218406  0.38890876  0.38090021
   0.66701259  0.33302045  0.45008441
   0.61224826  0.27665423  0.51863134
   0.77828316  0.11041703  0.51847983
   0.83338237  0.16634303  0.44998352
   0.88883087  0.22222015  0.38086557
   0.94447270  0.27776488  0.10450675
   0.94445913  0.11112670  0.10452672
   0.88888457  0.22225886  0.17347958
   0.49997610  0.83327110  0.24270332
   0.44437736  0.77766052  0.31172975
   0.77779197  0.77775271  0.10453332
   0.61108909  0.94445695  0.10453874
   0.55549872  0.88885105  0.17349650
   0.77781962  0.11112282  0.10454478
   0.61108430  0.11116947  0.10455113
   0.44444146  0.27778561  0.10455631
   0.27779137  0.44445905  0.10453393
   0.11112019  0.61111129  0.10455748
   0.05566597  0.55549832  0.17349334
   0.05573976  0.72213319  0.17355107
   0.00009218  0.66663690  0.24270183
   0.61111132  0.27777635  0.10455777
   0.55547133  0.22239841  0.17355271
   0.49998082  0.16674583  0.24270071
   0.44447145  0.11108939  0.31164040
   0.38886308  0.38894744  0.17356316
   0.33331221  0.33341503  0.24273727
   0.44443829  0.44444862  0.10461807
   0.27777636  0.61111241  0.10461402
   0.22228285  0.55553448  0.17356417
   0.11111824  0.77777302  0.10455361
   0.66666889  0.99998813  0.24266212
   0.77775699  0.44444634  0.31165513
   0.11112718  0.44444221  0.31165696
   0.05555926  0.38894364  0.38086538
  -0.00000250  0.33334121  0.45007650
   0.16667637  0.16666175  0.45007647
   0.11092469  0.11148292  0.51870125
   0.55558620  0.88873068  0.38084452
   0.22216568  0.55561449  0.38117499
   0.22228058  0.22222167  0.38086590
   0.32970602  0.67594451  0.44962231
   0.33360216  0.00004383  0.44998361
   0.44670990  0.44040356  0.52343933
   0.11109514  0.44443989  0.10449676
   0.11109340  0.27776360  0.10451093
   0.05555666  0.22222297  0.17351639
   0.99997307  0.16664000  0.24268247
   0.16669413  0.99994514  0.24267963
   0.22219116  0.05555233  0.17348316
   0.27774260  0.11112817  0.10453015
   0.38880772  0.05559762  0.17349064
   0.33339224  0.99995467  0.24266917
   0.16671802  0.16664344  0.24268469
   0.11112517  0.11108714  0.31166607
   0.05556093  0.05549806  0.38086743
   0.99968596  0.00004071  0.44998829
   0.27777180  0.27776371  0.10449502
   0.22219037  0.22225703  0.17348416
   0.05558734  0.38885896  0.17348134
   0.99997317  0.33338928  0.24268205
   0.44439109  0.11112579  0.10454759
   0.11109484  0.11114203  0.10451083
   0.05559146  0.05555000  0.17347980
   0.99998858  0.99995413  0.24266814
   0.94376020  0.94493821  0.51848749
   0.40196256  0.55383124  0.46294016
   0.31334795  0.57609003  0.48800016
Direct configuration=     4
   0.44695201  0.61327655  0.52339617
   0.61578392  0.44210313  0.51863539
   0.77900563  0.27669219  0.51855772
   0.94448047  0.11116645  0.51853532
   0.94481299  0.27758327  0.51870868
   0.94449213  0.44432581  0.51853035
   0.77826277  0.61128369  0.51847199
   0.61125737  0.77794842  0.51856166
   0.44461977  0.94492664  0.51847404
   0.61125492  0.94437528  0.51861515
   0.77772248  0.94437458  0.51861795
   0.94416905  0.77794959  0.51856986
   0.94381586  0.61127145  0.51848482
   0.83315495  0.66703760  0.44995067
   0.66664987  0.83332915  0.45007080
   0.72222101  0.88888943  0.38086493
   0.88900609  0.72225619  0.38084196
   0.94447255  0.77776448  0.31162786
   0.77777054  0.94444425  0.31166222