LAMMPS (24 Mar 2022)
OMP_NUM_THREADS environment is not set. Defaulting to 1 thread. (src/comm.cpp:98)
  using 1 OpenMP thread(s) per MPI task
Reading data file ...
  triclinic box = (0 0 0) to (17.180573 14.878813 30) with tilt (8.5902867 0 0)
  1 by 1 by 1 MPI processor grid
  reading atoms ...
  252 atoms
  read_data CPU = 0.001 seconds
WARNING: Using 'neigh_modify every 1 delay 0 check yes' setting during minimization (src/min.cpp:187)
Neighbor list info ...
  update every 1 steps, delay 0 steps, check yes
  max neighbors/atom: 2000, page size: 100000
  master list distance cutoff = 8.28721
  ghost atom cutoff = 8.28721
  binsize = 4.143605, bins = 7 4 8
  1 neighbor lists, perpetual/occasional/extra = 1 0 0
  (1) pair eam/alloy, perpetual
      attributes: half, newton on
      pair build: half/bin/newton/tri
      stencil: half/bin/3d/tri
      bin: standard
Setting up cg style minimization ...
  Unit style    : metal
  Current step  : 0
Per MPI rank memory allocation (min/avg/max) = 4.505 | 4.505 | 4.505 Mbytes
   Step          Temp          E_pair         E_mol          TotEng         Press     
         0   0             -818.70997      0             -818.70997     -3021.3832    
Loop time of 3.238e-06 on 1 procs for 0 steps with 252 atoms

92.6% CPU use with 1 MPI tasks x 1 OpenMP threads

Minimization stats:
  Stopping criterion = max iterations
  Energy initial, next-to-last, final = 
      -818.70997090237                  0   -818.70997090237
  Force two-norm initial, final = 1.6142043 1.6142043
  Force max component initial, final = 0.40707333 0.40707333
  Final line search alpha, max atom move = 0 0
  Iterations, force evaluations = 0 0

MPI task timing breakdown:
Section |  min time  |  avg time  |  max time  |%varavg| %total
---------------------------------------------------------------
Pair    | 0          | 0          | 0          |   0.0 |  0.00
Neigh   | 0          | 0          | 0          |   0.0 |  0.00
Comm    | 0          | 0          | 0          |   0.0 |  0.00
Output  | 0          | 0          | 0          |   0.0 |  0.00
Modify  | 0          | 0          | 0          |   0.0 |  0.00
Other   |            | 3.238e-06  |            |       |100.00

Nlocal:            252 ave         252 max         252 min
Histogram: 1 0 0 0 0 0 0 0 0 0
Nghost:           1431 ave        1431 max        1431 min
Histogram: 1 0 0 0 0 0 0 0 0 0
Neighs:          14400 ave       14400 max       14400 min
Histogram: 1 0 0 0 0 0 0 0 0 0

Total # of neighbors = 14400
Ave neighs/atom = 57.142857
Neighbor list builds = 0
Dangerous builds = 0
Setting up Verlet run ...
  Unit style    : metal
  Current step  : 0
  Time step     : 0.01
Per MPI rank memory allocation (min/avg/max) = 4.39 | 4.39 | 4.39 Mbytes
   Step          Temp          E_pair         E_mol          TotEng         Press     
         0   300           -818.70997      0             -808.97668     -1665.7209    
       100   158.37506     -813.91531      0             -808.77694      449.77272    
       200   151.97328     -813.70332      0             -808.77266      71.094223    
       300   165.29954     -814.14403      0             -808.781       -1761.6112    
       400   144.76974     -813.4537       0             -808.75674     -3339.7113    
       500   165.20531     -814.14653      0             -808.78656     -5092.4721    
       600   155.67036     -813.83537      0             -808.78476     -6532.2242    
       700   143.77147     -813.43076      0             -808.76619     -6415.0757    
       800   153.31099     -813.75146      0             -808.77739     -5468.9491    
       900   158.74169     -813.936        0             -808.78574     -4752.5032    
      1000   163.43065     -814.08357      0             -808.78118     -2955.3857    
      1100   159.11211     -813.94938      0             -808.7871      -1122.649     
      1200   150.21288     -813.65537      0             -808.78182     -6.3904189    
      1300   147.90475     -813.57496      0             -808.77629     -752.33618    
      1400   158.51688     -813.93055      0             -808.78758     -1750.6339    
      1500   148.20993     -813.58057      0             -808.772       -3298.9836    
      1600   150.84512     -813.66421      0             -808.77014     -5095.9321    
      1700   145.28503     -813.48619      0             -808.77252     -5900.9597    
      1800   152.37513     -813.72156      0             -808.77786     -6238.2977    
      1900   145.9533      -813.51366      0             -808.77831     -5621.8009    
      2000   145.67539     -813.49722      0             -808.77088     -4713.2216    
      2100   152.97032     -813.75297      0             -808.78995     -3087.739     
      2200   156.4149      -813.86246      0             -808.78769     -1420.9113    
      2300   144.37228     -813.46378      0             -808.77972     -631.09077    
      2400   151.50372     -813.69846      0             -808.78303     -881.84033    
      2500   163.8234      -814.10485      0             -808.78972     -1643.9606    
      2600   150.10208     -813.64619      0             -808.77623     -2815.0858    
      2700   157.18309     -813.88662      0             -808.78693     -3878.1121    
      2800   151.03518     -813.674        0             -808.77377     -4471.8991    
      2900   153.39513     -813.7561       0             -808.7793      -4969.3068    
      3000   158.54973     -813.92732      0             -808.78329     -5034.3107    
      3100   153.67247     -813.75779      0             -808.77199     -4287.9352    
      3200   158.31678     -813.93122      0             -808.79475     -3260.389     
      3300   149.42872     -813.62247      0             -808.77436     -2025.6971    
      3400   158.8812      -813.94311      0             -808.78832     -1022.9661    
      3500   147.13132     -813.54558      0             -808.77201     -962.07609    
      3600   150.68246     -813.6636       0             -808.77482     -1455.7264    
      3700   163.40436     -814.09857      0             -808.79704     -2545.851     
      3800   144.65892     -813.46492      0             -808.77157     -3148.8568    
      3900   152.11792     -813.72228      0             -808.78692     -4184.9922    
      4000   156.62904     -813.86104      0             -808.77932     -4577.2113    
      4100   147.38638     -813.54433      0             -808.76248     -4363.6677    
      4200   150.64423     -813.65596      0             -808.76841     -3694.6997    
      4300   150.73528     -813.67565      0             -808.78515     -3225.4125    
      4400   164.11933     -814.11917      0             -808.79443     -2825.9081    
      4500   157.34204     -813.88402      0             -808.77916     -2318.0362    
      4600   149.35361     -813.62061      0             -808.77494     -1728.2604    
      4700   141.21382     -813.33347      0             -808.75189     -1967.4408    
      4800   154.1908      -813.78289      0             -808.78028     -2430.0277    
      4900   153.74976     -813.76618      0             -808.77788     -2879.9444    
      5000   154.42048     -813.78417      0             -808.7741      -3500.5878    
      5100   144.78422     -813.47274      0             -808.77531     -3960.9069    
      5200   156.12608     -813.85257      0             -808.78717     -4142.2521    
      5300   157.34369     -813.89024      0             -808.78533     -3857.3655    
      5400   161.22827     -814.01635      0             -808.78541     -3493.6026    
      5500   153.50704     -813.75746      0             -808.77703     -3323.4972    
      5600   153.97507     -813.77713      0             -808.78152     -2636.6989    
      5700   150.79169     -813.66393      0             -808.7716      -2034.495     
      5800   156.05516     -813.84902      0             -808.78592     -1422.7896    
      5900   153.96981     -813.77411      0             -808.77867     -1886.7236    
      6000   145.32187     -813.48062      0             -808.76575     -2505.4229    
      6100   148.46191     -813.58552      0             -808.76878     -3074.5413    
      6200   158.0881      -813.91445      0             -808.78539     -3894.2441    
      6300   148.69445     -813.59303      0             -808.76874     -4799.7096    
      6400   147.91436     -813.56845      0             -808.76948     -4740.3408    
      6500   152.79043     -813.72855      0             -808.77137     -4152.2957    
      6600   151.19081     -813.67883      0             -808.77355     -3179.6921    
      6700   155.0209      -813.80686      0             -808.77732     -2347.3575    
      6800   155.38158     -813.81361      0             -808.77236     -1529.153     
      6900   163.61345     -814.1031       0             -808.79478     -1446.5831    
      7000   152.99995     -813.74352      0             -808.77955     -1332.151     
      7100   154.26314     -813.77599      0             -808.77103     -2242.3964    
      7200   156.68232     -813.8594       0             -808.77595     -2902.4379    
      7300   159.27804     -813.94948      0             -808.78181     -3700.1784    
      7400   147.02031     -813.53565      0             -808.76568     -3977.7164    
      7500   145.78488     -813.50369      0             -808.7738      -4666.3327    
      7600   155.60167     -813.81519      0             -808.7668      -4195.6532    
      7700   153.05377     -813.73739      0             -808.77167     -3814.1619    
      7800   147.8808      -813.56069      0             -808.7628      -3438.2527    
      7900   154.14753     -813.78321      0             -808.782       -3296.0475    
      8000   152.83923     -813.72475      0             -808.76598     -2348.3387    
      8100   160.33412     -813.96985      0             -808.76793     -2159.647     
      8200   163.03832     -814.07098      0             -808.78131     -1937.245     
      8300   155.84646     -813.82628      0             -808.76995     -2186.8       
      8400   156.3432      -813.84242      0             -808.76998     -2038.0594    
      8500   161.81096     -814.02626      0             -808.77642     -2678.4321    
      8600   158.36344     -813.91258      0             -808.77459     -3057.0304    
      8700   138.63876     -813.24071      0             -808.74268     -3080.3733    
      8800   156.41849     -813.84575      0             -808.77086     -3160.4357    
      8900   157.88894     -813.8984       0             -808.7758      -3198.0734    
      9000   155.83152     -813.83356      0             -808.77772     -3046.7667    
      9100   156.46445     -813.85186      0             -808.77548     -2511.6463    
      9200   146.07386     -813.50968      0             -808.77041     -2594.0994    
      9300   158.77046     -813.93313      0             -808.78194     -2382.1284    
      9400   160.57392     -813.97711      0             -808.76741     -2559.9342    
      9500   155.3278      -813.80643      0             -808.76693     -2985.7405    
      9600   159.18829     -813.94192      0             -808.77716     -3340.4238    
      9700   160.30634     -813.98981      0             -808.78878     -4160.2375    
      9800   158.23701     -813.91204      0             -808.77815     -4347.2149    
      9900   158.24117     -813.90471      0             -808.77069     -4380.8622    
     10000   153.88912     -813.75774      0             -808.76492     -4297.0966    
Loop time of 4.9535 on 1 procs for 10000 steps with 252 atoms

Performance: 1744.221 ns/day, 0.014 hours/ns, 2018.775 timesteps/s
99.7% CPU use with 1 MPI tasks x 1 OpenMP threads

MPI task timing breakdown:
Section |  min time  |  avg time  |  max time  |%varavg| %total
---------------------------------------------------------------
Pair    | 4.6631     | 4.6631     | 4.6631     |   0.0 | 94.14
Neigh   | 0          | 0          | 0          |   0.0 |  0.00
Comm    | 0.059326   | 0.059326   | 0.059326   |   0.0 |  1.20
Output  | 0.18987    | 0.18987    | 0.18987    |   0.0 |  3.83
Modify  | 0.02265    | 0.02265    | 0.02265    |   0.0 |  0.46
Other   |            | 0.01857    |            |       |  0.37

Nlocal:            252 ave         252 max         252 min
Histogram: 1 0 0 0 0 0 0 0 0 0
Nghost:           1431 ave        1431 max        1431 min
Histogram: 1 0 0 0 0 0 0 0 0 0
Neighs:          14400 ave       14400 max       14400 min
Histogram: 1 0 0 0 0 0 0 0 0 0

Total # of neighbors = 14400
Ave neighs/atom = 57.142857
Neighbor list builds = 0
Dangerous builds = 0
System init for write_restart ...
Total wall time: 0:00:04
