   4   4   0   0
  0.7621562E+03  0.1450000E-08  0.1450000E-08  0.1450000E-08  0.5000000E-15
  1.000000000000000E-004
  CAR 
 NiAl                                    
      2.41343869    -37.02950826  301     -4.78286901      1.00000000
    -37.030  0.0000E+00  0.0000E+00
    -36.898  0.0000E+00  0.0000E+00
    -36.767  0.0000E+00  0.0000E+00
    -36.635  0.0000E+00  0.0000E+00
    -36.504  0.0000E+00  0.0000E+00
    -36.372  0.0000E+00  0.0000E+00
    -36.241  0.0000E+00  0.0000E+00
    -36.109  0.0000E+00  0.0000E+00
    -35.978  0.0000E+00  0.0000E+00
    -35.846  0.0000E+00  0.0000E+00
    -35.715  0.0000E+00  0.0000E+00
    -35.583  0.0000E+00  0.0000E+00
    -35.452  0.8851E-08  0.1164E-08
    -35.320  0.1366E+00  0.1796E-01
    -35.189  0.1373E+02  0.1824E+01
    -35.057  0.1341E+01  0.2000E+01
    -34.926  0.3010E-05  0.2000E+01
    -34.794  0.0000E+00  0.2000E+01
    -34.663  0.0000E+00  0.2000E+01
    -34.531  0.0000E+00  0.2000E+01
    -34.400  0.0000E+00  0.2000E+01
    -34.269  0.0000E+00  0.2000E+01
    -34.137  0.0000E+00  0.2000E+01
    -34.006  0.0000E+00  0.2000E+01
    -33.874  0.0000E+00  0.2000E+01
    -33.743  0.0000E+00  0.2000E+01
    -33.611  0.0000E+00  0.2000E+01
    -33.480  0.0000E+00  0.2000E+01
    -33.348  0.0000E+00  0.2000E+01
    -33.217  0.0000E+00  0.2000E+01
    -33.085  0.0000E+00  0.2000E+01
    -32.954  0.0000E+00  0.2000E+01
    -32.822  0.0000E+00  0.2000E+01
    -32.691  0.0000E+00  0.2000E+01
    -32.559  0.0000E+00  0.2000E+01
    -32.428  0.0000E+00  0.2000E+01
    -32.296  0.0000E+00  0.2000E+01
    -32.165  0.0000E+00  0.2000E+01
    -32.033  0.0000E+00  0.2000E+01
    -31.902  0.0000E+00  0.2000E+01
    -31.770  0.0000E+00  0.2000E+01
    -31.639  0.0000E+00  0.2000E+01
    -31.507  0.0000E+00  0.2000E+01
    -31.376  0.0000E+00  0.2000E+01
    -31.245  0.0000E+00  0.2000E+01
    -31.113  0.0000E+00  0.2000E+01
    -30.982  0.0000E+00  0.2000E+01
    -30.850  0.0000E+00  0.2000E+01
    -30.719  0.0000E+00  0.2000E+01
    -30.587  0.0000E+00  0.2000E+01
    -30.456  0.0000E+00  0.2000E+01
    -30.324  0.0000E+00  0.2000E+01
    -30.193  0.0000E+00  0.2000E+01
    -30.061  0.0000E+00  0.2000E+01
    -29.930  0.0000E+00  0.2000E+01
    -29.798  0.0000E+00  0.2000E+01
    -29.667  0.0000E+00  0.2000E+01
    -29.535  0.0000E+00  0.2000E+01
    -29.404  0.0000E+00  0.2000E+01
    -29.272  0.0000E+00  0.2000E+01
    -29.141  0.0000E+00  0.2000E+01
    -29.009  0.0000E+00  0.2000E+01
    -28.878  0.0000E+00  0.2000E+01
    -28.746  0.5067E-14  0.2000E+01
    -28.615  0.1008E-03  0.2000E+01
    -28.484  0.3986E+01  0.2524E+01
    -28.352  0.1121E+02  0.3998E+01
    -28.221  0.1566E-01  0.4000E+01
    -28.089  0.7937E-10  0.4000E+01
    -27.958  0.0000E+00  0.4000E+01
    -27.826  0.0000E+00  0.4000E+01
    -27.695  0.0000E+00  0.4000E+01
    -27.563  0.0000E+00  0.4000E+01
    -27.432  0.0000E+00  0.4000E+01
    -27.300  0.0000E+00  0.4000E+01
    -27.169  0.0000E+00  0.4000E+01
    -27.037  0.3884E-13  0.4000E+01
    -26.906  0.3076E-03  0.4000E+01
    -26.774  0.5319E+01  0.4699E+01
    -26.643  0.9886E+01  0.5999E+01
    -26.511  0.6547E-02  0.6000E+01
    -26.380  0.1349E-10  0.6000E+01
    -26.248  0.0000E+00  0.6000E+01
    -26.117  0.0000E+00  0.6000E+01
    -25.985  0.0000E+00  0.6000E+01
    -25.854  0.0000E+00  0.6000E+01
    -25.723  0.0000E+00  0.6000E+01
    -25.591  0.0000E+00  0.6000E+01
    -25.460  0.0000E+00  0.6000E+01
    -25.328  0.0000E+00  0.6000E+01
    -25.197  0.0000E+00  0.6000E+01
    -25.065  0.0000E+00  0.6000E+01
    -24.934  0.0000E+00  0.6000E+01
    -24.802  0.0000E+00  0.6000E+01
    -24.671  0.0000E+00  0.6000E+01
    -24.539  0.0000E+00  0.6000E+01
    -24.408  0.0000E+00  0.6000E+01
    -24.276  0.0000E+00  0.6000E+01
    -24.145  0.0000E+00  0.6000E+01
    -24.013  0.0000E+00  0.6000E+01
    -23.882  0.0000E+00  0.6000E+01
    -23.750  0.0000E+00  0.6000E+01
    -23.619  0.0000E+00  0.6000E+01
    -23.487  0.0000E+00  0.6000E+01
    -23.356  0.0000E+00  0.6000E+01
    -23.224  0.0000E+00  0.6000E+01
    -23.093  0.0000E+00  0.6000E+01
    -22.962  0.0000E+00  0.6000E+01
    -22.830  0.0000E+00  0.6000E+01
    -22.699  0.0000E+00  0.6000E+01
    -22.567  0.0000E+00  0.6000E+01
    -22.436  0.0000E+00  0.6000E+01
    -22.304  0.0000E+00  0.6000E+01
    -22.173  0.0000E+00  0.6000E+01
    -22.041  0.0000E+00  0.6000E+01
    -21.910  0.0000E+00  0.6000E+01
    -21.778  0.0000E+00  0.6000E+01
    -21.647  0.0000E+00  0.6000E+01
    -21.515  0.0000E+00  0.6000E+01
    -21.384  0.0000E+00  0.6000E+01
    -21.252  0.0000E+00  0.6000E+01
    -21.121  0.0000E+00  0.6000E+01
    -20.989  0.0000E+00  0.6000E+01
    -20.858  0.0000E+00  0.6000E+01
    -20.726  0.0000E+00  0.6000E+01
    -20.595  0.0000E+00  0.6000E+01
    -20.463  0.0000E+00  0.6000E+01
    -20.332  0.0000E+00  0.6000E+01
    -20.201  0.0000E+00  0.6000E+01
    -20.069  0.0000E+00  0.6000E+01
    -19.938  0.0000E+00  0.6000E+01
    -19.806  0.0000E+00  0.6000E+01
    -19.675  0.0000E+00  0.6000E+01
    -19.543  0.0000E+00  0.6000E+01
    -19.412  0.0000E+00  0.6000E+01
    -19.280  0.0000E+00  0.6000E+01
    -19.149  0.0000E+00  0.6000E+01
    -19.017  0.0000E+00  0.6000E+01
    -18.886  0.0000E+00  0.6000E+01
    -18.754  0.0000E+00  0.6000E+01
    -18.623  0.0000E+00  0.6000E+01
    -18.491  0.0000E+00  0.6000E+01
    -18.360  0.1302E-07  0.6000E+01
    -18.228  0.2390E+00  0.6031E+01
    -18.097  0.2726E+02  0.9615E+01
    -17.965  0.2928E+01  0.1000E+02
    -17.834  0.7783E-05  0.1000E+02
    -17.702  0.0000E+00  0.1000E+02
    -17.571  0.0000E+00  0.1000E+02
    -17.440  0.0000E+00  0.1000E+02
    -17.308  0.0000E+00  0.1000E+02
    -17.177  0.0000E+00  0.1000E+02
    -17.045  0.0000E+00  0.1000E+02
    -16.914  0.0000E+00  0.1000E+02
    -16.782  0.0000E+00  0.1000E+02
    -16.651  0.0000E+00  0.1000E+02
    -16.519  0.0000E+00  0.1000E+02
    -16.388  0.0000E+00  0.1000E+02
    -16.256  0.0000E+00  0.1000E+02
    -16.125  0.0000E+00  0.1000E+02
    -15.993  0.0000E+00  0.1000E+02
    -15.862  0.0000E+00  0.1000E+02
    -15.730  0.0000E+00  0.1000E+02
    -15.599  0.0000E+00  0.1000E+02
    -15.467  0.0000E+00  0.1000E+02
    -15.336  0.0000E+00  0.1000E+02
    -15.204  0.0000E+00  0.1000E+02
    -15.073  0.0000E+00  0.1000E+02
    -14.941  0.0000E+00  0.1000E+02
    -14.810  0.0000E+00  0.1000E+02
    -14.679  0.0000E+00  0.1000E+02
    -14.547  0.0000E+00  0.1000E+02
    -14.416  0.0000E+00  0.1000E+02
    -14.284  0.0000E+00  0.1000E+02
    -14.153  0.0000E+00  0.1000E+02
    -14.021  0.0000E+00  0.1000E+02
    -13.890  0.0000E+00  0.1000E+02
    -13.758  0.0000E+00  0.1000E+02
    -13.627  0.0000E+00  0.1000E+02
    -13.495  0.0000E+00  0.1000E+02
    -13.364  0.0000E+00  0.1000E+02
    -13.232  0.0000E+00  0.1000E+02
    -13.101  0.0000E+00  0.1000E+02
    -12.969  0.0000E+00  0.1000E+02
    -12.838  0.0000E+00  0.1000E+02
    -12.706  0.0000E+00  0.1000E+02
    -12.575  0.0000E+00  0.1000E+02
    -12.443  0.0000E+00  0.1000E+02
    -12.312  0.0000E+00  0.1000E+02
    -12.180  0.0000E+00  0.1000E+02
    -12.049  0.0000E+00  0.1000E+02
    -11.917  0.0000E+00  0.1000E+02
    -11.786  0.0000E+00  0.1000E+02
    -11.655  0.0000E+00  0.1000E+02
    -11.523  0.0000E+00  0.1000E+02
    -11.392  0.0000E+00  0.1000E+02
    -11.260  0.0000E+00  0.1000E+02
    -11.129  0.0000E+00  0.1000E+02
    -10.997  0.7541E-12  0.1000E+02
    -10.866  0.1495E-02  0.1000E+02
    -10.734  0.7576E+01  0.1100E+02
    -10.603  0.7670E+01  0.1200E+02
    -10.471  0.1239E+02  0.1363E+02
    -10.340  0.2784E+01  0.1400E+02
    -10.208  0.2883E-04  0.1400E+02
    -10.077  0.1131E-05  0.1400E+02
     -9.945  0.1469E+01  0.1419E+02
     -9.814  0.2835E+02  0.1792E+02
     -9.682  0.6036E+00  0.1800E+02
     -9.551  0.1165E-06  0.1800E+02
     -9.419  0.0000E+00  0.1800E+02
     -9.288  0.0000E+00  0.1800E+02
     -9.156  0.0000E+00  0.1800E+02
     -9.025  0.0000E+00  0.1800E+02
     -8.894  0.0000E+00  0.1800E+02
     -8.762  0.0000E+00  0.1800E+02
     -8.631  0.0000E+00  0.1800E+02
     -8.499  0.0000E+00  0.1800E+02
     -8.368  0.0000E+00  0.1800E+02
     -8.236  0.0000E+00  0.1800E+02
     -8.105  0.0000E+00  0.1800E+02
     -7.973  0.0000E+00  0.1800E+02
     -7.842  0.0000E+00  0.1800E+02
     -7.710  0.0000E+00  0.1800E+02
     -7.579  0.0000E+00  0.1800E+02
     -7.447  0.0000E+00  0.1800E+02
     -7.316  0.0000E+00  0.1800E+02
     -7.184  0.0000E+00  0.1800E+02
     -7.053  0.0000E+00  0.1800E+02
     -6.921  0.0000E+00  0.1800E+02
     -6.790  0.0000E+00  0.1800E+02
     -6.658  0.0000E+00  0.1800E+02
     -6.527  0.0000E+00  0.1800E+02
     -6.395  0.0000E+00  0.1800E+02
     -6.264  0.0000E+00  0.1800E+02
     -6.133  0.0000E+00  0.1800E+02
     -6.001  0.0000E+00  0.1800E+02
     -5.870  0.0000E+00  0.1800E+02
     -5.738  0.0000E+00  0.1800E+02
     -5.607  0.0000E+00  0.1800E+02
     -5.475  0.0000E+00  0.1800E+02
     -5.344  0.0000E+00  0.1800E+02
     -5.212  0.0000E+00  0.1800E+02
     -5.081  0.0000E+00  0.1800E+02
     -4.949  0.3846E-04  0.1800E+02
     -4.818  0.4922E+01  0.1865E+02
     -4.686  0.2541E+02  0.2199E+02
     -4.555  0.9587E-01  0.2200E+02
     -4.423  0.1698E-08  0.2200E+02
     -4.292  0.0000E+00  0.2200E+02
     -4.160  0.0000E+00  0.2200E+02
     -4.029  0.0000E+00  0.2200E+02
     -3.897  0.0000E+00  0.2200E+02
     -3.766  0.0000E+00  0.2200E+02
     -3.634  0.0000E+00  0.2200E+02
     -3.503  0.0000E+00  0.2200E+02
     -3.372  0.0000E+00  0.2200E+02
     -3.240  0.0000E+00  0.2200E+02
     -3.109  0.0000E+00  0.2200E+02
     -2.977  0.0000E+00  0.2200E+02
     -2.846  0.0000E+00  0.2200E+02
     -2.714  0.0000E+00  0.2200E+02
     -2.583  0.0000E+00  0.2200E+02
     -2.451  0.0000E+00  0.2200E+02
     -2.320  0.0000E+00  0.2200E+02
     -2.188  0.0000E+00  0.2200E+02
     -2.057  0.0000E+00  0.2200E+02
     -1.925  0.0000E+00  0.2200E+02
     -1.794  0.0000E+00  0.2200E+02
     -1.662  0.0000E+00  0.2200E+02
     -1.531  0.0000E+00  0.2200E+02
     -1.399  0.0000E+00  0.2200E+02
     -1.268  0.0000E+00  0.2200E+02
     -1.136  0.0000E+00  0.2200E+02
     -1.005  0.2482E-08  0.2200E+02
     -0.873  0.7802E-01  0.2201E+02
     -0.742  0.1324E+02  0.2375E+02
     -0.611  0.1897E+01  0.2400E+02
     -0.479  0.8471E-05  0.2400E+02
     -0.348  0.0000E+00  0.2400E+02
     -0.216  0.0000E+00  0.2400E+02
     -0.085  0.3042E-08  0.2400E+02
      0.047  0.8545E-01  0.2401E+02
      0.178  0.1333E+02  0.2576E+02
      0.310  0.1230E+02  0.2738E+02
      0.441  0.2120E+02  0.3017E+02
      0.573  0.2769E+02  0.3381E+02
      0.704  0.1654E+02  0.3598E+02
      0.836  0.1366E+00  0.3600E+02
      0.967  0.8851E-08  0.3600E+02
      1.099  0.0000E+00  0.3600E+02
      1.230  0.0000E+00  0.3600E+02
      1.362  0.0000E+00  0.3600E+02
      1.493  0.0000E+00  0.3600E+02
      1.625  0.0000E+00  0.3600E+02
      1.756  0.0000E+00  0.3600E+02
      1.888  0.0000E+00  0.3600E+02
      2.019  0.0000E+00  0.3600E+02
      2.150  0.0000E+00  0.3600E+02
      2.282  0.0000E+00  0.3600E+02
      2.413  0.0000E+00  0.3600E+02
