    4    4    1    1
  0.7621562E+03  0.1450000E-08  0.1450000E-08  0.1450000E-08  0.5000000E-15
  1.000000000000000E-004
  CAR 
 NiAl                                    
     20      1     18
 
  0.0000000E+00  0.0000000E+00  0.0000000E+00  0.1000000E+01
    1      -35.236647   1.000000
    2      -28.461013   1.000000
    3      -26.760687   1.000000
    4      -18.142968   1.000000
    5      -18.142968   1.000000
    6      -10.734046   1.000000
    7      -10.503214   1.000000
    8       -9.886602   1.000000
    9       -9.886602   1.000000
   10       -4.782869   0.500000
   11       -4.782869   0.500000
   12       -0.782715   0.000000
   13        0.136499   0.000000
   14        0.323916   0.000000
   15        0.323917   0.000000
   16        0.490470   0.000000
   17        0.539610   0.000000
   18        0.620577   0.000000
