       N       E                     dE             d eps       ncg     rms          rms(c)
DAV:   1     0.135889269619E+03    0.13589E+03   -0.45573E+03    60   0.378E+02
DAV:   2     0.129305260745E+02   -0.12296E+03   -0.12175E+03    54   0.146E+02
DAV:   3    -0.188398830939E+02   -0.31770E+02   -0.31732E+02    72   0.587E+01
DAV:   4    -0.201860185741E+02   -0.13461E+01   -0.13044E+01    42   0.105E+01
DAV:   5    -0.202297765821E+02   -0.43758E-01   -0.43139E-01    54   0.169E+00    0.157E+01
DAV:   6    -0.168312753704E+02    0.33985E+01   -0.45774E+00    42   0.129E+01    0.987E+00
DAV:   7    -0.159664304679E+02    0.86484E+00   -0.35453E+00    36   0.110E+01    0.326E+00
DAV:   8    -0.159262875045E+02    0.40143E-01   -0.31052E-01    42   0.327E+00    0.443E-01
DAV:   9    -0.159294328868E+02   -0.31454E-02   -0.14768E-02    36   0.640E-01    0.225E-01
DAV:  10    -0.159421512108E+02   -0.12718E-01   -0.53647E-03    36   0.357E-01    0.123E-01
DAV:  11    -0.159460707445E+02   -0.39195E-02   -0.11483E-03    42   0.181E-01    0.451E-02
DAV:  12    -0.159524354207E+02   -0.63647E-02   -0.24377E-03    36   0.185E-01    0.388E-02
DAV:  13    -0.159535394502E+02   -0.11040E-02   -0.49215E-04    42   0.859E-02    0.170E-02
DAV:  14    -0.159540107577E+02   -0.47131E-03   -0.13997E-04    42   0.379E-02    0.145E-02
DAV:  15    -0.159542660808E+02   -0.25532E-03   -0.33773E-05    42   0.241E-02    0.510E-03
DAV:  16    -0.159545040644E+02   -0.23798E-03   -0.23876E-05    42   0.180E-02    0.485E-03
DAV:  17    -0.159545846490E+02   -0.80585E-04   -0.71106E-06    42   0.115E-02    0.158E-03
DAV:  18    -0.159546299269E+02   -0.45278E-04   -0.25234E-06    36   0.613E-03    0.982E-04
DAV:  19    -0.159546522826E+02   -0.22356E-04   -0.10074E-06    36   0.370E-03    0.483E-04
DAV:  20    -0.159546613293E+02   -0.90468E-05   -0.19581E-07    36   0.186E-03    0.350E-04
DAV:  21    -0.159546681498E+02   -0.68204E-05   -0.74909E-08    42   0.165E-03    0.167E-04
DAV:  22    -0.159546721331E+02   -0.39833E-05   -0.37785E-08    36   0.123E-03
   1 F= -.15954672E+02 E0= -.15926463E+02  d E =-.564190E-01
