NiAl                                    
           1
    14.500000    0.000000    0.000000
     0.000000   14.500000    0.000000
     0.000000    0.000000   14.500000
   N 
   4
Direct configuration=     1
   0.00000000  0.00000000  0.00000000
   0.07586207  0.00000000  0.00000000
   0.13793103  0.00000000  0.00000000
   0.21379310  0.00000000  0.00000000
