 254 254   0   0
  0.3019211E+02  0.1718057E-08  0.1718057E-08  0.3000000E-08  0.5000000E-15
  1.000000000000000E-004
  CAR 
 NiAl                                    
      5.67044717    -26.93939769  301      1.83327964      1.00000000
    -26.939  0.0000E+00  0.0000E+00
    -26.831  0.0000E+00  0.0000E+00
    -26.722  0.0000E+00  0.0000E+00
    -26.613  0.0000E+00  0.0000E+00
    -26.505  0.0000E+00  0.0000E+00
    -26.396  0.0000E+00  0.0000E+00
    -26.287  0.0000E+00  0.0000E+00
    -26.179  0.0000E+00  0.0000E+00
    -26.070  0.0000E+00  0.0000E+00
    -25.961  0.0000E+00  0.0000E+00
    -25.852  0.0000E+00  0.0000E+00
    -25.744  0.5107E-14  0.5551E-15
    -25.635  0.4447E-05  0.4834E-06
    -25.526  0.4618E+00  0.5019E-01
    -25.418  0.1551E+02  0.1736E+01
    -25.309  0.2432E+01  0.2000E+01
    -25.200  0.2559E-03  0.2000E+01
    -25.092  0.3428E-11  0.2000E+01
    -24.983  0.0000E+00  0.2000E+01
    -24.874  0.0000E+00  0.2000E+01
    -24.765  0.0000E+00  0.2000E+01
    -24.657  0.0000E+00  0.2000E+01
    -24.548  0.0000E+00  0.2000E+01
    -24.439  0.0000E+00  0.2000E+01
    -24.331  0.0000E+00  0.2000E+01
    -24.222  0.0000E+00  0.2000E+01
    -24.113  0.0000E+00  0.2000E+01
    -24.005  0.0000E+00  0.2000E+01
    -23.896  0.0000E+00  0.2000E+01
    -23.787  0.0000E+00  0.2000E+01
    -23.678  0.0000E+00  0.2000E+01
    -23.570  0.0000E+00  0.2000E+01
    -23.461  0.0000E+00  0.2000E+01
    -23.352  0.0000E+00  0.2000E+01
    -23.244  0.0000E+00  0.2000E+01
    -23.135  0.0000E+00  0.2000E+01
    -23.026  0.0000E+00  0.2000E+01
    -22.918  0.0000E+00  0.2000E+01
    -22.809  0.0000E+00  0.2000E+01
    -22.700  0.0000E+00  0.2000E+01
    -22.591  0.0000E+00  0.2000E+01
    -22.483  0.0000E+00  0.2000E+01
    -22.374  0.0000E+00  0.2000E+01
    -22.265  0.0000E+00  0.2000E+01
    -22.157  0.0000E+00  0.2000E+01
    -22.048  0.0000E+00  0.2000E+01
    -21.939  0.0000E+00  0.2000E+01
    -21.831  0.0000E+00  0.2000E+01
    -21.722  0.0000E+00  0.2000E+01
    -21.613  0.0000E+00  0.2000E+01
    -21.504  0.0000E+00  0.2000E+01
    -21.396  0.0000E+00  0.2000E+01
    -21.287  0.0000E+00  0.2000E+01
    -21.178  0.0000E+00  0.2000E+01
    -21.070  0.0000E+00  0.2000E+01
    -20.961  0.0000E+00  0.2000E+01
    -20.852  0.0000E+00  0.2000E+01
    -20.744  0.0000E+00  0.2000E+01
    -20.635  0.0000E+00  0.2000E+01
    -20.526  0.0000E+00  0.2000E+01
    -20.417  0.0000E+00  0.2000E+01
    -20.309  0.0000E+00  0.2000E+01
    -20.200  0.0000E+00  0.2000E+01
    -20.091  0.0000E+00  0.2000E+01
    -19.983  0.0000E+00  0.2000E+01
    -19.874  0.0000E+00  0.2000E+01
    -19.765  0.0000E+00  0.2000E+01
    -19.657  0.0000E+00  0.2000E+01
    -19.548  0.0000E+00  0.2000E+01
    -19.439  0.0000E+00  0.2000E+01
    -19.330  0.0000E+00  0.2000E+01
    -19.222  0.0000E+00  0.2000E+01
    -19.113  0.0000E+00  0.2000E+01
    -19.004  0.0000E+00  0.2000E+01
    -18.896  0.0000E+00  0.2000E+01
    -18.787  0.0000E+00  0.2000E+01
    -18.678  0.0000E+00  0.2000E+01
    -18.570  0.0000E+00  0.2000E+01
    -18.461  0.0000E+00  0.2000E+01
    -18.352  0.0000E+00  0.2000E+01
    -18.243  0.0000E+00  0.2000E+01
    -18.135  0.0000E+00  0.2000E+01
    -18.026  0.0000E+00  0.2000E+01
    -17.917  0.0000E+00  0.2000E+01
    -17.809  0.0000E+00  0.2000E+01
    -17.700  0.0000E+00  0.2000E+01
    -17.591  0.0000E+00  0.2000E+01
    -17.483  0.0000E+00  0.2000E+01
    -17.374  0.0000E+00  0.2000E+01
    -17.265  0.0000E+00  0.2000E+01
    -17.156  0.0000E+00  0.2000E+01
    -17.048  0.0000E+00  0.2000E+01
    -16.939  0.0000E+00  0.2000E+01
    -16.830  0.0000E+00  0.2000E+01
    -16.722  0.0000E+00  0.2000E+01
    -16.613  0.0000E+00  0.2000E+01
    -16.504  0.0000E+00  0.2000E+01
    -16.396  0.0000E+00  0.2000E+01
    -16.287  0.0000E+00  0.2000E+01
    -16.178  0.0000E+00  0.2000E+01
    -16.069  0.0000E+00  0.2000E+01
    -15.961  0.0000E+00  0.2000E+01
    -15.852  0.0000E+00  0.2000E+01
    -15.743  0.0000E+00  0.2000E+01
    -15.635  0.0000E+00  0.2000E+01
    -15.526  0.0000E+00  0.2000E+01
    -15.417  0.0000E+00  0.2000E+01
    -15.309  0.0000E+00  0.2000E+01
    -15.200  0.0000E+00  0.2000E+01
    -15.091  0.0000E+00  0.2000E+01
    -14.982  0.0000E+00  0.2000E+01
    -14.874  0.0000E+00  0.2000E+01
    -14.765  0.0000E+00  0.2000E+01
    -14.656  0.0000E+00  0.2000E+01
    -14.548  0.0000E+00  0.2000E+01
    -14.439  0.0000E+00  0.2000E+01
    -14.330  0.0000E+00  0.2000E+01
    -14.222  0.0000E+00  0.2000E+01
    -14.113  0.0000E+00  0.2000E+01
    -14.004  0.0000E+00  0.2000E+01
    -13.895  0.0000E+00  0.2000E+01
    -13.787  0.0000E+00  0.2000E+01
    -13.678  0.0000E+00  0.2000E+01
    -13.569  0.0000E+00  0.2000E+01
    -13.461  0.0000E+00  0.2000E+01
    -13.352  0.0000E+00  0.2000E+01
    -13.243  0.0000E+00  0.2000E+01
    -13.135  0.0000E+00  0.2000E+01
    -13.026  0.0000E+00  0.2000E+01
    -12.917  0.0000E+00  0.2000E+01
    -12.808  0.0000E+00  0.2000E+01
    -12.700  0.0000E+00  0.2000E+01
    -12.591  0.0000E+00  0.2000E+01
    -12.482  0.0000E+00  0.2000E+01
    -12.374  0.0000E+00  0.2000E+01
    -12.265  0.0000E+00  0.2000E+01
    -12.156  0.0000E+00  0.2000E+01
    -12.048  0.0000E+00  0.2000E+01
    -11.939  0.0000E+00  0.2000E+01
    -11.830  0.0000E+00  0.2000E+01
    -11.721  0.0000E+00  0.2000E+01
    -11.613  0.0000E+00  0.2000E+01
    -11.504  0.0000E+00  0.2000E+01
    -11.395  0.0000E+00  0.2000E+01
    -11.287  0.2709E-07  0.2000E+01
    -11.178  0.3896E-01  0.2004E+01
    -11.069  0.1072E+02  0.3170E+01
    -10.961  0.7629E+01  0.3999E+01
    -10.852  0.9255E-02  0.4000E+01
    -10.743  0.1816E-08  0.4000E+01
    -10.634  0.0000E+00  0.4000E+01
    -10.526  0.0000E+00  0.4000E+01
    -10.417  0.1609E-13  0.4000E+01
    -10.308  0.9582E-05  0.4000E+01
    -10.200  0.6479E+00  0.4070E+01
    -10.091  0.1586E+02  0.5794E+01
     -9.982  0.1893E+01  0.6000E+01
     -9.874  0.1312E-03  0.6000E+01
     -9.765  0.1126E-11  0.6000E+01
     -9.656  0.0000E+00  0.6000E+01
     -9.547  0.3788E-06  0.6000E+01
     -9.439  0.1442E+00  0.6016E+01
     -9.330  0.1353E+02  0.7487E+01
     -9.221  0.4721E+01  0.8000E+01
     -9.113  0.5906E+00  0.8064E+01
     -9.004  0.4105E+01  0.8510E+01
     -8.895  0.1922E+02  0.1060E+02
     -8.787  0.8349E+01  0.1151E+02
     -8.678  0.3937E+01  0.1194E+02
     -8.569  0.2894E+02  0.1508E+02
     -8.460  0.3021E+02  0.1836E+02
     -8.352  0.2339E+02  0.2091E+02
     -8.243  0.9126E+01  0.2190E+02
     -8.134  0.2024E+02  0.2410E+02
     -8.026  0.2455E+02  0.2677E+02
     -7.917  0.4822E+02  0.3201E+02
     -7.808  0.4060E+02  0.3642E+02
     -7.700  0.7876E+00  0.3651E+02
     -7.591  0.3990E+02  0.4085E+02
     -7.482  0.6799E+02  0.4824E+02
     -7.373  0.2565E+02  0.5102E+02
     -7.265  0.2027E+02  0.5323E+02
     -7.156  0.3199E+02  0.5671E+02
     -7.047  0.4044E+02  0.6110E+02
     -6.939  0.5565E+02  0.6715E+02
     -6.830  0.6900E+02  0.7465E+02
     -6.721  0.3685E+02  0.7866E+02
     -6.613  0.4311E+02  0.8334E+02
     -6.504  0.7639E+02  0.9165E+02
     -6.395  0.3573E+02  0.9553E+02
     -6.286  0.4327E+01  0.9600E+02
     -6.178  0.3902E+01  0.9642E+02
     -6.069  0.8553E+02  0.1057E+03
     -5.960  0.7970E+02  0.1144E+03
     -5.852  0.7936E+02  0.1230E+03
     -5.743  0.2782E+02  0.1260E+03
     -5.634  0.5639E+02  0.1322E+03
     -5.526  0.9727E+02  0.1427E+03
     -5.417  0.3413E+02  0.1464E+03
     -5.308  0.2477E+02  0.1491E+03
     -5.200  0.6219E+02  0.1559E+03
     -5.091  0.5480E+02  0.1619E+03
     -4.982  0.7765E+02  0.1703E+03
     -4.873  0.6326E+02  0.1772E+03
     -4.765  0.2127E+02  0.1795E+03
     -4.656  0.7193E+02  0.1873E+03
     -4.547  0.1001E+03  0.1982E+03
     -4.439  0.6356E+02  0.2051E+03
     -4.330  0.3043E+02  0.2084E+03
     -4.221  0.6926E+02  0.2159E+03
     -4.113  0.1069E+03  0.2276E+03
     -4.004  0.9367E+02  0.2377E+03
     -3.895  0.5627E+02  0.2439E+03
     -3.786  0.6128E+02  0.2505E+03
     -3.678  0.6995E+02  0.2581E+03
     -3.569  0.8158E+02  0.2670E+03
     -3.460  0.5845E+02  0.2733E+03
     -3.352  0.3237E+02  0.2769E+03
     -3.243  0.2114E+02  0.2792E+03
     -3.134  0.8613E+02  0.2885E+03
     -3.026  0.1016E+03  0.2996E+03
     -2.917  0.8640E+02  0.3090E+03
     -2.808  0.1226E+03  0.3223E+03
     -2.699  0.1698E+03  0.3407E+03
     -2.591  0.6221E+02  0.3475E+03
     -2.482  0.1544E+02  0.3492E+03
     -2.373  0.4458E+02  0.3540E+03
     -2.265  0.9545E+02  0.3644E+03
     -2.156  0.9254E+02  0.3745E+03
     -2.047  0.1015E+03  0.3855E+03
     -1.939  0.4717E+02  0.3906E+03
     -1.830  0.8435E+02  0.3998E+03
     -1.721  0.1400E+03  0.4150E+03
     -1.612  0.6522E+02  0.4221E+03
     -1.504  0.6080E+02  0.4287E+03
     -1.395  0.7485E+02  0.4368E+03
     -1.286  0.1408E+03  0.4521E+03
     -1.178  0.1104E+03  0.4642E+03
     -1.069  0.1047E+03  0.4755E+03
     -0.960  0.7219E+02  0.4834E+03
     -0.852  0.9482E+02  0.4937E+03
     -0.743  0.1166E+03  0.5064E+03
     -0.634  0.7120E+02  0.5141E+03
     -0.525  0.5117E+02  0.5197E+03
     -0.417  0.1175E+03  0.5324E+03
     -0.308  0.1593E+03  0.5497E+03
     -0.199  0.1172E+03  0.5625E+03
     -0.091  0.7057E+02  0.5702E+03
      0.018  0.4705E+02  0.5753E+03
      0.127  0.1056E+03  0.5868E+03
      0.235  0.7472E+02  0.5949E+03
      0.344  0.9653E+02  0.6054E+03
      0.453  0.7646E+02  0.6137E+03
      0.562  0.1339E+03  0.6282E+03
      0.670  0.7031E+02  0.6359E+03
      0.779  0.5961E+02  0.6423E+03
      0.888  0.5761E+02  0.6486E+03
      0.996  0.1576E+03  0.6657E+03
      1.105  0.1927E+03  0.6867E+03
      1.214  0.1070E+03  0.6983E+03
      1.322  0.7870E+02  0.7069E+03
      1.431  0.7551E+02  0.7151E+03
      1.540  0.9700E+02  0.7256E+03
      1.649  0.1514E+03  0.7421E+03
      1.757  0.1601E+03  0.7595E+03
      1.866  0.7486E+02  0.7676E+03
      1.975  0.7695E+02  0.7760E+03
      2.083  0.1417E+03  0.7914E+03
      2.192  0.8439E+02  0.8006E+03
      2.301  0.8004E+02  0.8093E+03
      2.409  0.7545E+02  0.8175E+03
      2.518  0.9919E+02  0.8282E+03
      2.627  0.1117E+03  0.8404E+03
      2.736  0.1118E+03  0.8525E+03
      2.844  0.8718E+02  0.8620E+03
      2.953  0.1680E+03  0.8803E+03
      3.062  0.2355E+03  0.9059E+03
      3.170  0.9522E+02  0.9162E+03
      3.279  0.8103E+02  0.9250E+03
      3.388  0.1255E+03  0.9387E+03
      3.496  0.1302E+03  0.9528E+03
      3.605  0.1050E+03  0.9642E+03
      3.714  0.9636E+02  0.9747E+03
      3.823  0.8685E+02  0.9842E+03
      3.931  0.9926E+02  0.9949E+03
      4.040  0.1627E+03  0.1013E+04
      4.149  0.1353E+03  0.1027E+04
      4.257  0.4249E+02  0.1032E+04
      4.366  0.4044E+00  0.1032E+04
      4.475  0.2558E-05  0.1032E+04
      4.583  0.1532E-14  0.1032E+04
      4.692  0.0000E+00  0.1032E+04
      4.801  0.0000E+00  0.1032E+04
      4.910  0.0000E+00  0.1032E+04
      5.018  0.0000E+00  0.1032E+04
      5.127  0.0000E+00  0.1032E+04
      5.236  0.0000E+00  0.1032E+04
      5.344  0.0000E+00  0.1032E+04
      5.453  0.0000E+00  0.1032E+04
      5.562  0.0000E+00  0.1032E+04
      5.670  0.0000E+00  0.1032E+04
