 vasp.5.4.4.18Apr17-6-g9f103f2a35 (build May 02 2017 15:33:50) complex          
  
 executed on Intel-16.0.3.210-OMP date 2018.08.08  20:20:32
 running on    6 total cores
 distrk:  each k-point on    6 cores,    1 groups
 distr:  one band on NCORES_PER_BAND=   1 cores,    6 groups


--------------------------------------------------------------------------------------------------------


 INCAR:
 POTCAR:    PAW Al_GW 19Mar2012                   
 POTCAR:    PAW_PBE N 08Apr2002                   

 ----------------------------------------------------------------------------- 
|                                                                             |
|           W    W    AA    RRRRR   N    N  II  N    N   GGGG   !!!           |
|           W    W   A  A   R    R  NN   N  II  NN   N  G    G  !!!           |
|           W    W  A    A  R    R  N N  N  II  N N  N  G       !!!           |
|           W WW W  AAAAAA  RRRRR   N  N N  II  N  N N  G  GGG   !            |
|           WW  WW  A    A  R   R   N   NN  II  N   NN  G    G                |
|           W    W  A    A  R    R  N    N  II  N    N   GGGG   !!!           |
|                                                                             |
|      For optimal performance we recommend to set                            |
|        NCORE= 4 - approx SQRT( number of cores)                             |
|      NCORE specifies how many cores store one orbital (NPAR=cpu/NCORE).     |
|      This setting can  greatly improve the performance of VASP for DFT.     |
|      The default,   NCORE=1            might be grossly inefficient         |
|      on modern multi-core architectures or massively parallel machines.     |
|      Do your own testing !!!!                                               |
|      Unfortunately you need to use the default for GW and RPA calculations. |
|      (for HF NCORE is supported but not extensively tested yet)             |
|                                                                             |
 ----------------------------------------------------------------------------- 

 POTCAR:    PAW Al_GW 19Mar2012                   
   VRHFIN =Al: s2p1                                                             
   LEXCH  = PE                                                                  
   EATOM  =    53.5387 eV,    3.9350 Ry                                         
                                                                                
   TITEL  = PAW Al_GW 19Mar2012                                                 
   LULTRA =        F    use ultrasoft PP ?                                      
   IUNSCR =        1    unscreen: 0-lin 1-nonlin 2-no                           
   RPACOR =    1.500    partial core radius                                     
   POMASS =   26.982; ZVAL   =    3.000    mass and valenz                      
   RCORE  =    2.000    outmost cutoff radius                                   
   RWIGS  =    2.000; RWIGS  =    1.058    wigner-seitz radius (au A)           
   ENMAX  =  240.300; ENMIN  =  180.225 eV                                      
   ICORE  =        3    local potential                                         
   LCOR   =        T    correct aug charges                                     
   LPAW   =        T    paw PP                                                  
   EAUG   =  482.059                                                            
   DEXC   =    0.000                                                            
   RMAX   =    2.051    core radius for proj-oper                               
   RAUG   =    1.300    factor for augmentation sphere                          
   RDEP   =    2.096    radius for radial grids                                 
   RDEPT  =    1.856    core radius for aug-charge                              
                                                                                
   Atomic configuration                                                         
    7 entries                                                                   
     n  l   j            E        occ.                                          
     1  0  0.50     -1511.1048   2.0000                                         
     2  0  0.50      -108.1629   2.0000                                         
     2  1  1.50       -69.6402   6.0000                                         
     3  0  0.50        -7.7528   2.0000                                         
     3  1  1.50        -2.7121   1.0000                                         
     3  2  2.50        -2.7212   0.0000                                         
     4  3  2.50        -2.7212   0.0000                                         
   Description                                                                  
     l       E           TYP  RCUT    TYP  RCUT                                 
     0     -7.7528455     23  1.900                                             
     0     68.0291300     23  1.900                                             
     1     -2.7120682     23  1.900                                             
     1     68.0291300     23  1.900                                             
     2     -1.3605826     23  1.900                                             
     2     81.6349560     23  1.900                                             
     3     74.8320430     23  2.000                                             
  local pseudopotential read in
  partial core-charges read in
  partial kinetic energy density read in
  kinetic energy density of atom read in
  atomic valenz-charges read in
  non local Contribution for L=           0  read in
    real space projection operators read in
  non local Contribution for L=           0  read in
    real space projection operators read in
  non local Contribution for L=           1  read in
    real space projection operators read in
  non local Contribution for L=           1  read in
    real space projection operators read in
  non local Contribution for L=           2  read in
    real space projection operators read in
  non local Contribution for L=           2  read in
    real space projection operators read in
    PAW grid and wavefunctions read in
 
   number of l-projection  operators is LMAX  =           6
   number of lm-projection operators is LMMAX =          18
 
 POTCAR:    PAW_PBE N 08Apr2002                   
   VRHFIN =N: s2p3                                                              
   LEXCH  = PE                                                                  
   EATOM  =   264.5486 eV,   19.4438 Ry                                         
                                                                                
   TITEL  = PAW_PBE N 08Apr2002                                                 
   LULTRA =        F    use ultrasoft PP ?                                      
   IUNSCR =        1    unscreen: 0-lin 1-nonlin 2-no                           
   RPACOR =    1.200    partial core radius                                     
   POMASS =   14.001; ZVAL   =    5.000    mass and valenz                      
   RCORE  =    1.500    outmost cutoff radius                                   
   RWIGS  =    1.400; RWIGS  =    0.741    wigner-seitz radius (au A)           
   ENMAX  =  400.000; ENMIN  =  300.000 eV                                      
   ICORE  =        2    local potential                                         
   LCOR   =        T    correct aug charges                                     
   LPAW   =        T    paw PP                                                  
   EAUG   =  627.112                                                            
   DEXC   =    0.000                                                            
   RMAX   =    1.529    core radius for proj-oper                               
   RAUG   =    1.300    factor for augmentation sphere                          
   RDEP   =    1.514    radius for radial grids                                 
   RDEPT  =    1.338    core radius for aug-charge                              
                                                                                
   Atomic configuration                                                         
    4 entries                                                                   
     n  l   j            E        occ.                                          
     1  0  0.50      -384.7179   2.0000                                         
     2  0  0.50       -18.5828   2.0000                                         
     2  1  0.50        -7.0898   3.0000                                         
     3  2  1.50        -6.8029   0.0000                                         
   Description                                                                  
     l       E           TYP  RCUT    TYP  RCUT                                 
     0    -18.5828119     23  1.200                                             
     0    -13.5018863     23  1.200                                             
     1     -7.0897853     23  1.500                                             
     1      9.5240782     23  1.500                                             
     2     -6.8029130      7  1.500                                             
  local pseudopotential read in
  partial core-charges read in
  partial kinetic energy density read in
  atomic valenz-charges read in
  non local Contribution for L=           0  read in
    real space projection operators read in
  non local Contribution for L=           0  read in
    real space projection operators read in
  non local Contribution for L=           1  read in
    real space projection operators read in
  non local Contribution for L=           1  read in
    real space projection operators read in
    PAW grid and wavefunctions read in
 
   number of l-projection  operators is LMAX  =           4
   number of lm-projection operators is LMMAX =           8
 
 Optimization of the real space projectors (new method)

 maximal supplied QI-value         = 18.90
 optimisation between [QCUT,QGAM] = [  8.69, 17.57] = [ 21.16, 86.49] Ry 
 Optimized for a Real-space Cutoff    1.59 Angstroem

   l    n(q)    QCUT    max X(q) W(low)/X(q) W(high)/X(q)  e(spline) 
   0      8     8.693    11.519    0.12E-03    0.31E-04    0.21E-06
   0      8     8.693     5.834    0.89E-04    0.32E-04    0.16E-06
   1      8     8.693    10.132    0.25E-03    0.39E-03    0.25E-06
   1      8     8.693     3.004    0.16E-03    0.27E-03    0.22E-06
   2      7     8.693     3.169    0.39E-03    0.93E-03    0.44E-06
   2      7     8.693     1.605    0.70E-04    0.91E-04    0.19E-06
 Optimization of the real space projectors (new method)

 maximal supplied QI-value         = 25.13
 optimisation between [QCUT,QGAM] = [  8.80, 17.59] = [ 21.67, 86.68] Ry 
 Optimized for a Real-space Cutoff    2.14 Angstroem

   l    n(q)    QCUT    max X(q) W(low)/X(q) W(high)/X(q)  e(spline) 
   0     11     8.797    79.467    0.70E-04    0.19E-04    0.19E-05
   0     11     8.797    66.151    0.68E-04    0.18E-04    0.19E-05
   1     11     8.797     6.738    0.26E-03    0.11E-02    0.73E-05
   1     11     8.797     5.013    0.25E-03    0.11E-02    0.72E-05
  PAW Al_GW 19Mar2012                   :
 energy of atom  1       EATOM=  -53.5387
 kinetic energy error for atom=    0.0011 (will be added to EATOM!!)
  PAW_PBE N 08Apr2002                   :
 energy of atom  2       EATOM= -264.5486
 kinetic energy error for atom=    0.6882 (will be added to EATOM!!)
 
 
 POSCAR: New structure                           
  positions in cartesian coordinates
  No initial velocities read in
 exchange correlation table for  LEXCH =        8
   RHO(1)=    0.500       N(1)  =     2000
   RHO(2)=  100.500       N(2)  =     4000
 


--------------------------------------------------------------------------------------------------------


 ion  position               nearest neighbor table
   1  0.444  0.444  0.079-
   2  0.444  0.778  0.079-
   3  0.444  0.111  0.079-
   4  0.778  0.444  0.079-
   5  0.778  0.778  0.079-
   6  0.778  0.111  0.079-
   7  0.111  0.444  0.079-
   8  0.111  0.778  0.079-
   9  0.111  0.111  0.079-
  10  0.556  0.556  0.157-
  11  0.556  0.889  0.157-
  12  0.556  0.222  0.157-
  13  0.889  0.556  0.157-
  14  0.889  0.889  0.157-
  15  0.889  0.222  0.157-
  16  0.222  0.556  0.157-
  17  0.222  0.889  0.157-
  18  0.222  0.222  0.157-
  19  0.667  0.667  0.234-
  20  0.667  0.000  0.234-
  21  0.667  0.333  0.234-
  22  0.000  0.667  0.234-
  23  0.000  0.000  0.234-
  24  0.000  0.333  0.234-
  25  0.333  0.667  0.234-
  26  0.333  0.000  0.234-
  27  0.333  0.333  0.234-
  28  0.778  0.778  0.312-
  29  0.778  0.111  0.312-
  30  0.778  0.444  0.312-
  31  0.111  0.778  0.312-
  32  0.111  0.111  0.312-
  33  0.111  0.444  0.312-
  34  0.444  0.778  0.312-
  35  0.444  0.111  0.312-
  36  0.444  0.444  0.312-
  37  0.889  0.889  0.390-
  38  0.889  0.222  0.390-
  39  0.889  0.556  0.390-
  40  0.222  0.889  0.390-
  41  0.222  0.222  0.390-
  42  0.222  0.556  0.390-
  43  0.556  0.889  0.390-
  44  0.556  0.222  0.390-
  45  0.556  0.556  0.390-
  46  0.000  0.000  0.466-
  47  0.000  0.333  0.466-
  48  0.000  0.667  0.466-
  49  0.333  0.000  0.466-
  50  0.333  0.333  0.466-
  51  0.333  0.667  0.466-
  52  0.667  0.000  0.466-
  53  0.667  0.333  0.466-
  54  0.667  0.667  0.466-
  55  0.111  0.111  0.545-
  56  0.111  0.444  0.545-
  57  0.111  0.778  0.545-
  58  0.444  0.111  0.545-
  59  0.444  0.444  0.545- 253 1.68 254 1.69
  60  0.444  0.778  0.545-
  61  0.778  0.111  0.545-
  62  0.778  0.444  0.545-
  63  0.778  0.778  0.545-
  64  0.278  0.278  0.079-
  65  0.278  0.611  0.079-
  66  0.278  0.944  0.079-
  67  0.611  0.278  0.079-
  68  0.611  0.611  0.079-
  69  0.611  0.944  0.079-
  70  0.944  0.278  0.079-
  71  0.944  0.611  0.079-
  72  0.944  0.944  0.079-
  73  0.389  0.389  0.157-
  74  0.389  0.722  0.157-
  75  0.389  0.056  0.157-
  76  0.722  0.389  0.157-
  77  0.722  0.722  0.157-
  78  0.722  0.056  0.157-
  79  0.056  0.389  0.157-
  80  0.056  0.722  0.157-
  81  0.056  0.056  0.157-
  82  0.500  0.500  0.234-
  83  0.500  0.833  0.234-
  84  0.500  0.167  0.234-
  85  0.833  0.500  0.234-
  86  0.833  0.833  0.234-
  87  0.833  0.167  0.234-
  88  0.167  0.500  0.234-
  89  0.167  0.833  0.234-
  90  0.167  0.167  0.234-
  91  0.611  0.611  0.312-
  92  0.611  0.944  0.312-
  93  0.611  0.278  0.312-
  94  0.944  0.611  0.312-
  95  0.944  0.944  0.312-
  96  0.944  0.278  0.312-
  97  0.278  0.611  0.312-
  98  0.278  0.944  0.312-
  99  0.278  0.278  0.312-
 100  0.722  0.722  0.390-
 101  0.722  0.056  0.390-
 102  0.722  0.389  0.390-
 103  0.056  0.722  0.390-
 104  0.056  0.056  0.390-
 105  0.056  0.389  0.390-
 106  0.389  0.722  0.390-
 107  0.389  0.056  0.390-
 108  0.389  0.389  0.390-
 109  0.833  0.833  0.466-
 110  0.833  0.167  0.466-
 111  0.833  0.500  0.466-
 112  0.167  0.833  0.466-
 113  0.167  0.167  0.466-
 114  0.167  0.500  0.466-
 115  0.500  0.833  0.466-
 116  0.500  0.167  0.466-
 117  0.500  0.500  0.466-
 118  0.944  0.944  0.545-
 119  0.944  0.278  0.545-
 120  0.944  0.611  0.545-
 121  0.278  0.944  0.545-
 122  0.278  0.278  0.545-
 123  0.278  0.611  0.545- 253 2.05
 124  0.611  0.944  0.545-
 125  0.611  0.278  0.545-
 126  0.611  0.611  0.545-
 127  0.278  0.444  0.079-
 128  0.278  0.778  0.079-
 129  0.278  0.111  0.079-
 130  0.611  0.444  0.079-
 131  0.611  0.778  0.079-
 132  0.611  0.111  0.079-
 133  0.944  0.444  0.079-
 134  0.944  0.778  0.079-
 135  0.944  0.111  0.079-
 136  0.389  0.556  0.157-
 137  0.389  0.889  0.157-
 138  0.389  0.222  0.157-
 139  0.722  0.556  0.157-
 140  0.722  0.889  0.157-
 141  0.722  0.222  0.157-
 142  0.056  0.556  0.157-
 143  0.056  0.889  0.157-
 144  0.056  0.222  0.157-
 145  0.500  0.667  0.234-
 146  0.500  0.000  0.234-
 147  0.500  0.333  0.234-
 148  0.833  0.667  0.234-
 149  0.833  0.000  0.234-
 150  0.833  0.333  0.234-
 151  0.167  0.667  0.234-
 152  0.167  0.000  0.234-
 153  0.167  0.333  0.234-
 154  0.611  0.778  0.312-
 155  0.611  0.111  0.312-
 156  0.611  0.444  0.312-
 157  0.944  0.778  0.312-
 158  0.944  0.111  0.312-
 159  0.944  0.444  0.312-
 160  0.278  0.778  0.312-
 161  0.278  0.111  0.312-
 162  0.278  0.444  0.312-
 163  0.722  0.889  0.390-
 164  0.722  0.222  0.390-
 165  0.722  0.556  0.390-
 166  0.056  0.889  0.390-
 167  0.056  0.222  0.390-
 168  0.056  0.556  0.390-
 169  0.389  0.889  0.390-
 170  0.389  0.222  0.390-
 171  0.389  0.556  0.390-
 172  0.833  0.000  0.466-
 173  0.833  0.333  0.466-
 174  0.833  0.667  0.466-
 175  0.167  0.000  0.466-
 176  0.167  0.333  0.466-
 177  0.167  0.667  0.466-
 178  0.500  0.000  0.466-
 179  0.500  0.333  0.466-
 180  0.500  0.667  0.466-
 181  0.944  0.111  0.545-
 182  0.944  0.444  0.545-
 183  0.944  0.778  0.545-
 184  0.278  0.111  0.545-
 185  0.278  0.444  0.545- 253 1.68 254 1.69
 186  0.278  0.778  0.545-
 187  0.611  0.111  0.545-
 188  0.611  0.444  0.545-
 189  0.611  0.778  0.545-
 190  0.444  0.278  0.079-
 191  0.444  0.611  0.079-
 192  0.444  0.944  0.079-
 193  0.778  0.278  0.079-
 194  0.778  0.611  0.079-
 195  0.778  0.944  0.079-
 196  0.111  0.278  0.079-
 197  0.111  0.611  0.079-
 198  0.111  0.944  0.079-
 199  0.556  0.389  0.157-
 200  0.556  0.722  0.157-
 201  0.556  0.056  0.157-
 202  0.889  0.389  0.157-
 203  0.889  0.722  0.157-
 204  0.889  0.056  0.157-
 205  0.222  0.389  0.157-
 206  0.222  0.722  0.157-
 207  0.222  0.056  0.157-
 208  0.667  0.500  0.234-
 209  0.667  0.833  0.234-
 210  0.667  0.167  0.234-
 211  1.000  0.500  0.234-
 212  1.000  0.833  0.234-
 213  1.000  0.167  0.234-
 214  0.333  0.500  0.234-
 215  0.333  0.833  0.234-
 216  0.333  0.167  0.234-
 217  0.778  0.611  0.312-
 218  0.778  0.944  0.312-
 219  0.778  0.278  0.312-
 220  0.111  0.611  0.312-
 221  0.111  0.944  0.312-
 222  0.111  0.278  0.312-
 223  0.444  0.611  0.312-
 224  0.444  0.944  0.312-
 225  0.444  0.278  0.312-
 226  0.889  0.722  0.390-
 227  0.889  0.056  0.390-
 228  0.889  0.389  0.390-
 229  0.222  0.722  0.390-
 230  0.222  0.056  0.390-
 231  0.222  0.389  0.390-
 232  0.556  0.722  0.390-
 233  0.556  0.056  0.390-
 234  0.556  0.389  0.390-
 235  1.000  0.833  0.466-
 236  1.000  0.167  0.466-
 237  1.000  0.500  0.466-
 238  0.333  0.833  0.466-
 239  0.333  0.167  0.466-
 240  0.333  0.500  0.466-
 241  0.667  0.833  0.466-
 242  0.667  0.167  0.466-
 243  0.667  0.500  0.466-
 244  0.111  0.944  0.545-
 245  0.111  0.278  0.545-
 246  0.111  0.611  0.545-
 247  0.444  0.944  0.545-
 248  0.444  0.278  0.545- 254 2.05
 249  0.444  0.611  0.545-
 250  0.778  0.944  0.545-
 251  0.778  0.278  0.545-
 252  0.778  0.611  0.545-
 253  0.343  0.481  0.568- 254 1.10 185 1.68  59 1.68 123 2.05
 254  0.380  0.407  0.568- 253 1.10 185 1.69  59 1.69 248 2.05
 
  LATTYP: Found a hexagonal cell.
 ALAT       =    17.1805734625
 C/A-ratio  =     1.7461582447
  
  Lattice vectors:
  
 A1 = (   0.0000000000,  -8.5902867312,  14.8788130701)
 A2 = (   0.0000000000,  17.1805734625,   0.0000000000)
 A3 = ( -30.0000000000,   0.0000000000,   0.0000000000)


Analysis of symmetry for initial positions (statically):
=====================================================================
 Subroutine PRICEL returns:
 Original cell was already a primitive cell.
 

 Routine SETGRP: Setting up the symmetry group for a 
 hexagonal supercell.


 Subroutine GETGRP returns: Found  2 space group operations
 (whereof  1 operations were pure point group operations)
 out of a pool of 24 trial point group operations.


The static configuration has the point symmetry C_1 .
 The point group associated with its full space group is C_1h.


Analysis of symmetry for dynamics (positions and initial velocities):
=====================================================================
 Subroutine PRICEL returns:
 Original cell was already a primitive cell.
 

 Routine SETGRP: Setting up the symmetry group for a 
 hexagonal supercell.


 Subroutine GETGRP returns: Found  2 space group operations
 (whereof  1 operations were pure point group operations)
 out of a pool of 24 trial point group operations.


The dynamic configuration has the point symmetry C_1 .
 The point group associated with its full space group is C_1h.


 Subroutine INISYM returns: Found  2 space group operations
 (whereof  1 operations are pure point group operations),
 and found     1 'primitive' translations

 
 
 KPOINTS: Automatic generation                    

Automatic generation of k-mesh.
Space group operators:
 irot       det(A)        alpha          n_x          n_y          n_z        tau_x        tau_y        tau_z
    1     1.000000     0.000000     1.000000     0.000000     0.000000     0.000000     0.000000     0.000000
    2    -1.000000   180.000000     0.000000     1.000000     0.000000    -0.833333     0.000000     0.000000
 
 Subroutine IBZKPT returns following result:
 ===========================================
 
 Found      3 irreducible k-points:
 
 Following reciprocal coordinates:
            Coordinates               Weight
  0.000000  0.000000  0.000000      1.000000
  0.500000  0.000000  0.000000      2.000000
  0.000000  0.500000  0.000000      1.000000
 
 Following cartesian coordinates:
            Coordinates               Weight
  0.000000  0.000000  0.000000      1.000000
  0.000000 -0.029103  0.016802      2.000000
  0.000000  0.000000 -0.033605      1.000000
 


--------------------------------------------------------------------------------------------------------




 Dimension of arrays:
   k-points           NKPTS =      3   k-points in BZ     NKDIM =      3   number of bands    NBANDS=    516
   number of dos      NEDOS =    301   number of ions     NIONS =    254
   non local maximal  LDIM  =      6   non local SUM 2l+1 LMDIM =     18
   total plane-waves  NPLWV = 819200
   max r-space proj   IRMAX =   4449   max aug-charges    IRDMAX=   4357
   dimension x,y,z NGX =    80 NGY =   80 NGZ =  128
   dimension x,y,z NGXF=   160 NGYF=  160 NGZF=  256
   support grid    NGXF=   160 NGYF=  160 NGZF=  256
   ions per type =             252   2
   NGX,Y,Z   is equivalent  to a cutoff of   7.74,  7.74,  7.09 a.u.
   NGXF,Y,Z  is equivalent  to a cutoff of  15.48, 15.48, 14.19 a.u.

 SYSTEM =  NiAl                                    
 POSCAR =  New structure                           

 Startparameter for this run:
   NWRITE =      2    write-flag & timer
   PREC   = normal    normal or accurate (medium, high low for compatibility)
   ISTART =      0    job   : 0-new  1-cont  2-samecut
   ICHARG =      2    charge: 1-file 2-atom 10-const
   ISPIN  =      1    spin polarized calculation?
   LNONCOLLINEAR =      F non collinear calculations
   LSORBIT =      F    spin-orbit coupling
   INIWAV =      1    electr: 0-lowe 1-rand  2-diag
   LASPH  =      F    aspherical Exc in radial PAW
   METAGGA=      F    non-selfconsistent MetaGGA calc.

 Electronic Relaxation 1
   ENCUT  =  300.0 eV  22.05 Ry    4.70 a.u.  24.26 24.26 42.37*2*pi/ulx,y,z
   ENINI  =  300.0     initial cutoff
   ENAUG  =  627.1 eV  augmentation charge cutoff
   NELM   =     60;   NELMIN=  6; NELMDL= -5     # of ELM steps 
   EDIFF  = 0.5E-05   stopping-criterion for ELM
   LREAL  =      T    real-space projection
   NLSPLINE    = F    spline interpolate recip. space projectors
   LCOMPAT=      F    compatible to vasp.4.4
   GGA_COMPAT  = T    GGA compatible to vasp.4.4-vasp.4.6
   LMAXPAW     = -100 max onsite density
   LMAXMIX     =    2 max onsite mixed and CHGCAR
   VOSKOWN=      0    Vosko Wilk Nusair interpolation
   ROPT   =   -0.00050  -0.00050
 Ionic relaxation
   EDIFFG = 0.5E-04   stopping-criterion for IOM
   NSW    =      0    number of steps for IOM
   NBLOCK =      1;   KBLOCK =      1    inner block; outer block 
   IBRION =     -1    ionic relax: 0-MD 1-quasi-New 2-CG
   NFREE  =      0    steps in history (QN), initial steepest desc. (CG)
   ISIF   =      0    stress and relaxation
   IWAVPR =     10    prediction:  0-non 1-charg 2-wave 3-comb
   ISYM   =      2    0-nonsym 1-usesym 2-fastsym
   LCORR  =      T    Harris-Foulkes like correction to forces

   POTIM  = 0.5000    time-step for ionic-motion
   TEIN   =    0.0    initial temperature
   TEBEG  =    0.0;   TEEND  =   0.0 temperature during run
   SMASS  =  -3.00    Nose mass-parameter (am)
   estimated Nose-frequenzy (Omega)   =  0.10E-29 period in steps =****** mass=  -0.675E-26a.u.
   SCALEE = 1.0000    scale energy and forces
   NPACO  =    256;   APACO  = 16.0  distance and # of slots for P.C.
   PSTRESS=    0.0 pullay stress

  Mass of Ions in am
   POMASS =  26.98 14.00
  Ionic Valenz
   ZVAL   =   3.00  5.00
  Atomic Wigner-Seitz radii
   RWIGS  =  -1.00 -1.00
  virtual crystal weights 
   VCA    =   1.00  1.00
   NELECT =     766.0000    total number of electrons
   NUPDOWN=      -1.0000    fix difference up-down

 DOS related values:
   EMIN   =  10.00;   EMAX   =-10.00  energy-range for DOS
   EFERMI =   0.00
   ISMEAR =     0;   SIGMA  =   0.05  broadening in eV -4-tet -1-fermi 0-gaus

 Electronic relaxation 2 (details)
   IALGO  =     38    algorithm
   LDIAG  =      T    sub-space diagonalisation (order eigenvalues)
   LSUBROT=      F    optimize rotation matrix (better conditioning)
   TURBO    =      0    0=normal 1=particle mesh
   IRESTART =      0    0=no restart 2=restart with 2 vectors
   NREBOOT  =      0    no. of reboots
   NMIN     =      0    reboot dimension
   EREF     =   0.00    reference energy to select bands
   IMIX   =      4    mixing-type and parameters
     AMIX     =   0.40;   BMIX     =  1.00
     AMIX_MAG =   1.60;   BMIX_MAG =  1.00
     AMIN     =   0.10
     WC   =   100.;   INIMIX=   1;  MIXPRE=   1;  MAXMIX= -45

 Intra band minimization:
   WEIMIN = 0.0000     energy-eigenvalue tresh-hold
   EBREAK =  0.24E-08  absolut break condition
   DEPER  =   0.30     relativ break condition  

   TIME   =   0.40     timestep for ELM

  volume/ion in A,a.u.               =      30.19       203.75
  Fermi-wavevector in a.u.,A,eV,Ry     =   0.759583  1.435404  7.850108  0.576967
  Thomas-Fermi vector in A             =   1.858410
 
 Write flags
   LWAVE        =      F    write WAVECAR
   LDOWNSAMPLE  =      F    k-point downsampling of WAVECAR
   LCHARG       =      F    write CHGCAR
   LVTOT        =      F    write LOCPOT, total local potential
   LVHAR        =      F    write LOCPOT, Hartree potential only
   LELF         =      F    write electronic localiz. function (ELF)
   LORBIT       =      0    0 simple, 1 ext, 2 COOP (PROOUT), +10 PAW based schemes


 Dipole corrections
   LMONO  =      F    monopole corrections only (constant potential shift)
   LDIPOL =      F    correct potential (dipole corrections)
   IDIPOL =      0    1-x, 2-y, 3-z, 4-all directions 
   EPSILON=  1.0000000 bulk dielectric constant

 Exchange correlation treatment:
   GGA     =    --    GGA type
   LEXCH   =     8    internal setting for exchange type
   VOSKOWN=      0    Vosko Wilk Nusair interpolation
   LHFCALC =     F    Hartree Fock is set to
   LHFONE  =     F    Hartree Fock one center treatment
   AEXX    =    0.0000 exact exchange contribution

 Linear response parameters
   LEPSILON=     F    determine dielectric tensor
   LRPA    =     F    only Hartree local field effects (RPA)
   LNABLA  =     F    use nabla operator in PAW spheres
   LVEL    =     F    velocity operator in full k-point grid
   LINTERFAST=   F  fast interpolation
   KINTER  =     0    interpolate to denser k-point grid
   CSHIFT  =0.1000    complex shift for real part using Kramers Kronig
   OMEGAMAX=  -1.0    maximum frequency
   DEG_THRESHOLD= 0.2000000E-02 threshold for treating states as degnerate
   RTIME   =   -0.100 relaxation time in fs
  (WPLASMAI=    0.000 imaginary part of plasma frequency in eV, 0.658/RTIME)
   DFIELD  = 0.0000000 0.0000000 0.0000000 field for delta impulse in time
 
 Orbital magnetization related:
   ORBITALMAG=     F  switch on orbital magnetization
   LCHIMAG   =     F  perturbation theory with respect to B field
   DQ        =  0.001000  dq finite difference perturbation B field
   LLRAUG    =     F  two centre corrections for induced B field



--------------------------------------------------------------------------------------------------------


 Static calculation
 charge density and potential will be updated during run
 non-spin polarized calculation
 Variant of blocked Davidson
 Davidson routine will perform the subspace rotation
 perform sub-space diagonalisation
    after iterative eigenvector-optimisation
 modified Broyden-mixing scheme, WC =      100.0
 initial mixing is a Kerker type mixing with AMIX =  0.4000 and BMIX =      1.0000
 Hartree-type preconditioning will be used
 using additional bands          133
 real space projection scheme for non local part
 use partial core corrections
 calculate Harris-corrections to forces 
   (improved forces if not selfconsistent)
 use gradient corrections 
 use of overlap-Matrix (Vanderbilt PP)
 Gauss-broadening in eV      SIGMA  =   0.05


--------------------------------------------------------------------------------------------------------


  energy-cutoff  :      300.00
  volume of cell :     7668.80
      direct lattice vectors                 reciprocal lattice vectors
     0.000000000-17.180573462  0.000000000     0.000000000 -0.058205275  0.033604831
     0.000000000 -8.590286731-14.878813070     0.000000000  0.000000000 -0.067209662
    30.000000000  0.000000000  0.000000000     0.033333333  0.000000000  0.000000000

  length of vectors
    17.180573462 17.180573462 30.000000000     0.067209662  0.067209662  0.033333333


 
 k-points in units of 2pi/SCALE and weight: Automatic generation                    
   0.00000000  0.00000000  0.00000000       0.250
   0.00000000 -0.02910264  0.01680242       0.500
   0.00000000  0.00000000 -0.03360483       0.250
 
 k-points in reciprocal lattice and weights: Automatic generation                    
   0.00000000  0.00000000  0.00000000       0.250
   0.50000000  0.00000000  0.00000000       0.500
   0.00000000  0.50000000  0.00000000       0.250
 
 position of ions in fractional coordinates (direct lattice) 
   0.44444456  0.44444473  0.07873467
   0.44444419  0.77777777  0.07873467
   0.44444468  0.11111101  0.07873467
   0.77777744  0.44444473  0.07873467
   0.77777765  0.77777777  0.07873467
   0.77777756  0.11111101  0.07873467
   0.11111110  0.44444473  0.07873467
   0.11111131  0.77777777  0.07873467
   0.11111122  0.11111101  0.07873467
   0.55555520  0.55555574  0.15702600
   0.55555541  0.88888878  0.15702600
   0.55555591  0.22222203  0.15702600
   0.88888866  0.55555574  0.15702600
   0.88888887  0.88888878  0.15702600
   0.88888878  0.22222203  0.15702600
   0.22222232  0.55555574  0.15702600
   0.22222253  0.88888878  0.15702600
   0.22222245  0.22222203  0.15702600
   0.66666642  0.66666675  0.23375733
   0.66666692  0.00000000  0.23375733
   0.66666655  0.33333304  0.23375733
   0.00000008  0.66666675  0.23375733
   0.00000000  0.00000000  0.23375733
   0.00000021  0.33333304  0.23375733
   0.33333354  0.66666675  0.23375733
   0.33333346  0.00000000  0.23375733
   0.33333367  0.33333304  0.23375733
   0.77777765  0.77777777  0.31173067
   0.77777756  0.11111101  0.31173067
   0.77777744  0.44444473  0.31173067
   0.11111131  0.77777777  0.31173067
   0.11111122  0.11111101  0.31173067
   0.11111110  0.44444473  0.31173067
   0.44444419  0.77777777  0.31173067
   0.44444468  0.11111101  0.31173067
   0.44444456  0.44444473  0.31173067
   0.88888887  0.88888878  0.38970400
   0.88888878  0.22222203  0.38970400
   0.88888866  0.55555574  0.38970400
   0.22222253  0.88888878  0.38970400
   0.22222245  0.22222203  0.38970400
   0.22222232  0.55555574  0.38970400
   0.55555541  0.88888878  0.38970400
   0.55555591  0.22222203  0.38970400
   0.55555520  0.55555574  0.38970400
   0.00000000  0.00000000  0.46643533
   0.00000021  0.33333304  0.46643533
   0.00000008  0.66666675  0.46643533
   0.33333346  0.00000000  0.46643533
   0.33333367  0.33333304  0.46643533
   0.33333354  0.66666675  0.46643533
   0.66666692  0.00000000  0.46643533
   0.66666655  0.33333304  0.46643533
   0.66666642  0.66666675  0.46643533
   0.11111122  0.11111101  0.54472667
   0.11111110  0.44444473  0.54472667
   0.11111131  0.77777777  0.54472667
   0.44444468  0.11111101  0.54472667
   0.44444456  0.44444473  0.54472667
   0.44444419  0.77777777  0.54472667
   0.77777756  0.11111101  0.54472667
   0.77777744  0.44444473  0.54472667
   0.77777765  0.77777777  0.54472667
   0.27777777  0.27777753  0.07873467
   0.27777764  0.61111125  0.07873467
   0.27777785  0.94444429  0.07873467
   0.61111123  0.27777753  0.07873467
   0.61111110  0.61111125  0.07873467
   0.61111131  0.94444429  0.07873467
   0.94444469  0.27777753  0.07873467
   0.94444456  0.61111125  0.07873467
   0.94444477  0.94444429  0.07873467
   0.38888865  0.38888922  0.15702600
   0.38888886  0.72222226  0.15702600
   0.38888878  0.05555551  0.15702600
   0.72222211  0.38888922  0.15702600
   0.72222232  0.72222226  0.15702600
   0.72222224  0.05555551  0.15702600
   0.05555519  0.38888922  0.15702600
   0.05555540  0.72222226  0.15702600
   0.05555532  0.05555551  0.15702600
   0.49999988  0.50000023  0.23375733
   0.50000009  0.83333327  0.23375733
   0.50000000  0.16666652  0.23375733
   0.83333334  0.50000023  0.23375733
   0.83333355  0.83333327  0.23375733
   0.83333346  0.16666652  0.23375733
   0.16666642  0.50000023  0.23375733
   0.16666663  0.83333327  0.23375733
   0.16666654  0.16666652  0.23375733
   0.61111110  0.61111125  0.31173067
   0.61111131  0.94444429  0.31173067
   0.61111123  0.27777753  0.31173067
   0.94444456  0.61111125  0.31173067
   0.94444477  0.94444429  0.31173067
   0.94444469  0.27777753  0.31173067
   0.27777764  0.61111125  0.31173067
   0.27777785  0.94444429  0.31173067
   0.27777777  0.27777753  0.31173067
   0.72222232  0.72222226  0.38970400
   0.72222224  0.05555551  0.38970400
   0.72222211  0.38888922  0.38970400
   0.05555540  0.72222226  0.38970400
   0.05555532  0.05555551  0.38970400
   0.05555519  0.38888922  0.38970400
   0.38888886  0.72222226  0.38970400
   0.38888878  0.05555551  0.38970400
   0.38888865  0.38888922  0.38970400
   0.83333355  0.83333327  0.46643533
   0.83333346  0.16666652  0.46643533
   0.83333334  0.50000023  0.46643533
   0.16666663  0.83333327  0.46643533
   0.16666654  0.16666652  0.46643533
   0.16666642  0.50000023  0.46643533
   0.50000009  0.83333327  0.46643533
   0.50000000  0.16666652  0.46643533
   0.49999988  0.50000023  0.46643533
   0.94444477  0.94444429  0.54472667
   0.94444469  0.27777753  0.54472667
   0.94444456  0.61111125  0.54472667
   0.27777785  0.94444429  0.54472667
   0.27777777  0.27777753  0.54472667
   0.27777764  0.61111125  0.54472667
   0.61111131  0.94444429  0.54472667
   0.61111123  0.27777753  0.54472667
   0.61111110  0.61111125  0.54472667
   0.27777783  0.44444473  0.07873467
   0.27777804  0.77777777  0.07873467
   0.27777795  0.11111101  0.07873467
   0.61111071  0.44444473  0.07873467
   0.61111092  0.77777777  0.07873467
   0.61111141  0.11111101  0.07873467
   0.94444417  0.44444473  0.07873467
   0.94444438  0.77777777  0.07873467
   0.94444429  0.11111101  0.07873467
   0.38888905  0.55555574  0.15702600
   0.38888868  0.88888878  0.15702600
   0.38888918  0.22222203  0.15702600
   0.72222193  0.55555574  0.15702600
   0.72222214  0.88888878  0.15702600
   0.72222205  0.22222203  0.15702600
   0.05555559  0.55555574  0.15702600
   0.05555580  0.88888878  0.15702600
   0.05555572  0.22222203  0.15702600
   0.49999969  0.66666675  0.23375733
   0.50000019  0.00000000  0.23375733
   0.50000040  0.33333304  0.23375733
   0.83333315  0.66666675  0.23375733
   0.83333307  0.00000000  0.23375733
   0.83333328  0.33333304  0.23375733
   0.16666681  0.66666675  0.23375733
   0.16666673  0.00000000  0.23375733
   0.16666694  0.33333304  0.23375733
   0.61111092  0.77777777  0.31173067
   0.61111141  0.11111101  0.31173067
   0.61111071  0.44444473  0.31173067
   0.94444438  0.77777777  0.31173067
   0.94444429  0.11111101  0.31173067
   0.94444417  0.44444473  0.31173067
   0.27777804  0.77777777  0.31173067
   0.27777795  0.11111101  0.31173067
   0.27777783  0.44444473  0.31173067
   0.72222214  0.88888878  0.38970400
   0.72222205  0.22222203  0.38970400
   0.72222193  0.55555574  0.38970400
   0.05555580  0.88888878  0.38970400
   0.05555572  0.22222203  0.38970400
   0.05555559  0.55555574  0.38970400
   0.38888868  0.88888878  0.38970400
   0.38888918  0.22222203  0.38970400
   0.38888905  0.55555574  0.38970400
   0.83333307  0.00000000  0.46643533
   0.83333328  0.33333304  0.46643533
   0.83333315  0.66666675  0.46643533
   0.16666673  0.00000000  0.46643533
   0.16666694  0.33333304  0.46643533
   0.16666681  0.66666675  0.46643533
   0.50000019  0.00000000  0.46643533
   0.50000040  0.33333304  0.46643533
   0.49999969  0.66666675  0.46643533
   0.94444429  0.11111101  0.54472667
   0.94444417  0.44444473  0.54472667
   0.94444438  0.77777777  0.54472667
   0.27777795  0.11111101  0.54472667
   0.27777783  0.44444473  0.54472667
   0.27777804  0.77777777  0.54472667
   0.61111141  0.11111101  0.54472667
   0.61111071  0.44444473  0.54472667
   0.61111092  0.77777777  0.54472667
   0.44444450  0.27777753  0.07873467
   0.44444437  0.61111125  0.07873467
   0.44444458  0.94444429  0.07873467
   0.77777796  0.27777753  0.07873467
   0.77777783  0.61111125  0.07873467
   0.77777804  0.94444429  0.07873467
   0.11111104  0.27777753  0.07873467
   0.11111091  0.61111125  0.07873467
   0.11111112  0.94444429  0.07873467
   0.55555538  0.38888922  0.15702600
   0.55555559  0.72222226  0.15702600
   0.55555551  0.05555551  0.15702600
   0.88888884  0.38888922  0.15702600
   0.88888905  0.72222226  0.15702600
   0.88888897  0.05555551  0.15702600
   0.22222192  0.38888922  0.15702600
   0.22222213  0.72222226  0.15702600
   0.22222205  0.05555551  0.15702600
   0.66666661  0.50000023  0.23375733
   0.66666682  0.83333327  0.23375733
   0.66666673  0.16666652  0.23375733
   0.99999969  0.50000023  0.23375733
   0.99999990  0.83333327  0.23375733
   0.99999981  0.16666652  0.23375733
   0.33333315  0.50000023  0.23375733
   0.33333336  0.83333327  0.23375733
   0.33333327  0.16666652  0.23375733
   0.77777783  0.61111125  0.31173067
   0.77777804  0.94444429  0.31173067
   0.77777796  0.27777753  0.31173067
   0.11111091  0.61111125  0.31173067
   0.11111112  0.94444429  0.31173067
   0.11111104  0.27777753  0.31173067
   0.44444437  0.61111125  0.31173067
   0.44444458  0.94444429  0.31173067
   0.44444450  0.27777753  0.31173067
   0.88888905  0.72222226  0.38970400
   0.88888897  0.05555551  0.38970400
   0.88888884  0.38888922  0.38970400
   0.22222213  0.72222226  0.38970400
   0.22222205  0.05555551  0.38970400
   0.22222192  0.38888922  0.38970400
   0.55555559  0.72222226  0.38970400
   0.55555551  0.05555551  0.38970400
   0.55555538  0.38888922  0.38970400
   0.99999990  0.83333327  0.46643533
   0.99999981  0.16666652  0.46643533
   0.99999969  0.50000023  0.46643533
   0.33333336  0.83333327  0.46643533
   0.33333327  0.16666652  0.46643533
   0.33333315  0.50000023  0.46643533
   0.66666682  0.83333327  0.46643533
   0.66666673  0.16666652  0.46643533
   0.66666661  0.50000023  0.46643533
   0.11111112  0.94444429  0.54472667
   0.11111104  0.27777753  0.54472667
   0.11111091  0.61111125  0.54472667
   0.44444458  0.94444429  0.54472667
   0.44444450  0.27777753  0.54472667
   0.44444437  0.61111125  0.54472667
   0.77777804  0.94444429  0.54472667
   0.77777796  0.27777753  0.54472667
   0.77777783  0.61111125  0.54472667
   0.34272267  0.48122118  0.56800000
   0.37958737  0.40749218  0.56800000
 
 position of ions in cartesian coordinates  (Angst):
   2.36204000-11.45372000 -6.61281000
   2.36204000-14.31714000-11.57241000
   2.36204000 -8.59029000 -1.65320000
   2.36204000-17.18057000 -6.61281000
   2.36204000-20.04400000-11.57241000
   2.36204000-14.31714000 -1.65320000
   2.36204000 -5.72686000 -6.61281000
   2.36204000 -8.59029000-11.57241000
   2.36204000 -2.86343000 -1.65320000
   4.71078000-14.31714000 -8.26601000
   4.71078000-17.18057000-13.22561000
   4.71078000-11.45372000 -3.30640000
   4.71078000-20.04400000 -8.26601000
   4.71078000-22.90743000-13.22561000
   4.71078000-17.18057000 -3.30640000
   4.71078000 -8.59029000 -8.26601000
   4.71078000-11.45372000-13.22561000
   4.71078000 -5.72686000 -3.30640000
   7.01272000-17.18057000 -9.91921000
   7.01272000-11.45372000  0.00000000
   7.01272000-14.31714000 -4.95960000
   7.01272000 -5.72686000 -9.91921000
   7.01272000  0.00000000  0.00000000
   7.01272000 -2.86343000 -4.95960000
   7.01272000-11.45372000 -9.91921000
   7.01272000 -5.72686000  0.00000000
   7.01272000 -8.59029000 -4.95960000
   9.35192000-20.04400000-11.57241000
   9.35192000-14.31714000 -1.65320000
   9.35192000-17.18057000 -6.61281000
   9.35192000 -8.59029000-11.57241000
   9.35192000 -2.86343000 -1.65320000
   9.35192000 -5.72686000 -6.61281000
   9.35192000-14.31714000-11.57241000
   9.35192000 -8.59029000 -1.65320000
   9.35192000-11.45372000 -6.61281000
  11.69112000-22.90743000-13.22561000
  11.69112000-17.18057000 -3.30640000
  11.69112000-20.04400000 -8.26601000
  11.69112000-11.45372000-13.22561000
  11.69112000 -5.72686000 -3.30640000
  11.69112000 -8.59029000 -8.26601000
  11.69112000-17.18057000-13.22561000
  11.69112000-11.45372000 -3.30640000
  11.69112000-14.31714000 -8.26601000
  13.99306000  0.00000000  0.00000000
  13.99306000 -2.86343000 -4.95960000
  13.99306000 -5.72686000 -9.91921000
  13.99306000 -5.72686000  0.00000000
  13.99306000 -8.59029000 -4.95960000
  13.99306000-11.45372000 -9.91921000
  13.99306000-11.45372000  0.00000000
  13.99306000-14.31714000 -4.95960000
  13.99306000-17.18057000 -9.91921000
  16.34180000 -2.86343000 -1.65320000
  16.34180000 -5.72686000 -6.61281000
  16.34180000 -8.59029000-11.57241000
  16.34180000 -8.59029000 -1.65320000
  16.34180000-11.45372000 -6.61281000
  16.34180000-14.31714000-11.57241000
  16.34180000-14.31714000 -1.65320000
  16.34180000-17.18057000 -6.61281000
  16.34180000-20.04400000-11.57241000
   2.36204000 -7.15857000 -4.13300000
   2.36204000-10.02200000 -9.09261000
   2.36204000-12.88543000-14.05221000
   2.36204000-12.88543000 -4.13300000
   2.36204000-15.74886000 -9.09261000
   2.36204000-18.61229000-14.05221000
   2.36204000-18.61229000 -4.13300000
   2.36204000-21.47572000 -9.09261000
   2.36204000-24.33915000-14.05221000
   4.71078000-10.02200000 -5.78621000
   4.71078000-12.88543000-10.74581000
   4.71078000 -7.15857000 -0.82660000
   4.71078000-15.74886000 -5.78621000
   4.71078000-18.61229000-10.74581000
   4.71078000-12.88543000 -0.82660000
   4.71078000 -4.29514000 -5.78621000
   4.71078000 -7.15857000-10.74581000
   4.71078000 -1.43171000 -0.82660000
   7.01272000-12.88543000 -7.43941000
   7.01272000-15.74886000-12.39901000
   7.01272000-10.02200000 -2.47980000
   7.01272000-18.61229000 -7.43941000
   7.01272000-21.47572000-12.39901000
   7.01272000-15.74886000 -2.47980000
   7.01272000 -7.15857000 -7.43941000
   7.01272000-10.02200000-12.39901000
   7.01272000 -4.29514000 -2.47980000
   9.35192000-15.74886000 -9.09261000
   9.35192000-18.61229000-14.05221000
   9.35192000-12.88543000 -4.13300000
   9.35192000-21.47572000 -9.09261000
   9.35192000-24.33915000-14.05221000
   9.35192000-18.61229000 -4.13300000
   9.35192000-10.02200000 -9.09261000
   9.35192000-12.88543000-14.05221000
   9.35192000 -7.15857000 -4.13300000
  11.69112000-18.61229000-10.74581000
  11.69112000-12.88543000 -0.82660000
  11.69112000-15.74886000 -5.78621000
  11.69112000 -7.15857000-10.74581000
  11.69112000 -1.43171000 -0.82660000
  11.69112000 -4.29514000 -5.78621000
  11.69112000-12.88543000-10.74581000
  11.69112000 -7.15857000 -0.82660000
  11.69112000-10.02200000 -5.78621000
  13.99306000-21.47572000-12.39901000
  13.99306000-15.74886000 -2.47980000
  13.99306000-18.61229000 -7.43941000
  13.99306000-10.02200000-12.39901000
  13.99306000 -4.29514000 -2.47980000
  13.99306000 -7.15857000 -7.43941000
  13.99306000-15.74886000-12.39901000
  13.99306000-10.02200000 -2.47980000
  13.99306000-12.88543000 -7.43941000
  16.34180000-24.33915000-14.05221000
  16.34180000-18.61229000 -4.13300000
  16.34180000-21.47572000 -9.09261000
  16.34180000-12.88543000-14.05221000
  16.34180000 -7.15857000 -4.13300000
  16.34180000-10.02200000 -9.09261000
  16.34180000-18.61229000-14.05221000
  16.34180000-12.88543000 -4.13300000
  16.34180000-15.74886000 -9.09261000
   2.36204000 -8.59029000 -6.61281000
   2.36204000-11.45372000-11.57241000
   2.36204000 -5.72686000 -1.65320000
   2.36204000-14.31714000 -6.61281000
   2.36204000-17.18057000-11.57241000
   2.36204000-11.45372000 -1.65320000
   2.36204000-20.04400000 -6.61281000
   2.36204000-22.90743000-11.57241000
   2.36204000-17.18057000 -1.65320000
   4.71078000-11.45372000 -8.26601000
   4.71078000-14.31714000-13.22561000
   4.71078000 -8.59029000 -3.30640000
   4.71078000-17.18057000 -8.26601000
   4.71078000-20.04400000-13.22561000
   4.71078000-14.31714000 -3.30640000
   4.71078000 -5.72686000 -8.26601000
   4.71078000 -8.59029000-13.22561000
   4.71078000 -2.86343000 -3.30640000
   7.01272000-14.31714000 -9.91921000
   7.01272000 -8.59029000  0.00000000
   7.01272000-11.45372000 -4.95960000
   7.01272000-20.04400000 -9.91921000
   7.01272000-14.31714000  0.00000000
   7.01272000-17.18057000 -4.95960000
   7.01272000 -8.59029000 -9.91921000
   7.01272000 -2.86343000  0.00000000
   7.01272000 -5.72686000 -4.95960000
   9.35192000-17.18057000-11.57241000
   9.35192000-11.45372000 -1.65320000
   9.35192000-14.31714000 -6.61281000
   9.35192000-22.90743000-11.57241000
   9.35192000-17.18057000 -1.65320000
   9.35192000-20.04400000 -6.61281000
   9.35192000-11.45372000-11.57241000
   9.35192000 -5.72686000 -1.65320000
   9.35192000 -8.59029000 -6.61281000
  11.69112000-20.04400000-13.22561000
  11.69112000-14.31714000 -3.30640000
  11.69112000-17.18057000 -8.26601000
  11.69112000 -8.59029000-13.22561000
  11.69112000 -2.86343000 -3.30640000
  11.69112000 -5.72686000 -8.26601000
  11.69112000-14.31714000-13.22561000
  11.69112000 -8.59029000 -3.30640000
  11.69112000-11.45372000 -8.26601000
  13.99306000-14.31714000  0.00000000
  13.99306000-17.18057000 -4.95960000
  13.99306000-20.04400000 -9.91921000
  13.99306000 -2.86343000  0.00000000
  13.99306000 -5.72686000 -4.95960000
  13.99306000 -8.59029000 -9.91921000
  13.99306000 -8.59029000  0.00000000
  13.99306000-11.45372000 -4.95960000
  13.99306000-14.31714000 -9.91921000
  16.34180000-17.18057000 -1.65320000
  16.34180000-20.04400000 -6.61281000
  16.34180000-22.90743000-11.57241000
  16.34180000 -5.72686000 -1.65320000
  16.34180000 -8.59029000 -6.61281000
  16.34180000-11.45372000-11.57241000
  16.34180000-11.45372000 -1.65320000
  16.34180000-14.31714000 -6.61281000
  16.34180000-17.18057000-11.57241000
   2.36204000-10.02200000 -4.13300000
   2.36204000-12.88543000 -9.09261000
   2.36204000-15.74886000-14.05221000
   2.36204000-15.74886000 -4.13300000
   2.36204000-18.61229000 -9.09261000
   2.36204000-21.47572000-14.05221000
   2.36204000 -4.29514000 -4.13300000
   2.36204000 -7.15857000 -9.09261000
   2.36204000-10.02200000-14.05221000
   4.71078000-12.88543000 -5.78621000
   4.71078000-15.74886000-10.74581000
   4.71078000-10.02200000 -0.82660000
   4.71078000-18.61229000 -5.78621000
   4.71078000-21.47572000-10.74581000
   4.71078000-15.74886000 -0.82660000
   4.71078000 -7.15857000 -5.78621000
   4.71078000-10.02200000-10.74581000
   4.71078000 -4.29514000 -0.82660000
   7.01272000-15.74886000 -7.43941000
   7.01272000-18.61229000-12.39901000
   7.01272000-12.88543000 -2.47980000
   7.01272000-21.47571346 -7.43941000
   7.01272000-24.33914346-12.39901000
   7.01272000-18.61228346 -2.47980000
   7.01272000-10.02200000 -7.43941000
   7.01272000-12.88543000-12.39901000
   7.01272000 -7.15857000 -2.47980000
   9.35192000-18.61229000 -9.09261000
   9.35192000-21.47572000-14.05221000
   9.35192000-15.74886000 -4.13300000
   9.35192000 -7.15857000 -9.09261000
   9.35192000-10.02200000-14.05221000
   9.35192000 -4.29514000 -4.13300000
   9.35192000-12.88543000 -9.09261000
   9.35192000-15.74886000-14.05221000
   9.35192000-10.02200000 -4.13300000
  11.69112000-21.47572000-10.74581000
  11.69112000-15.74886000 -0.82660000
  11.69112000-18.61229000 -5.78621000
  11.69112000-10.02200000-10.74581000
  11.69112000 -4.29514000 -0.82660000
  11.69112000 -7.15857000 -5.78621000
  11.69112000-15.74886000-10.74581000
  11.69112000-10.02200000 -0.82660000
  11.69112000-12.88543000 -5.78621000
  13.99306000-24.33914346-12.39901000
  13.99306000-18.61228346 -2.47980000
  13.99306000-21.47571346 -7.43941000
  13.99306000-12.88543000-12.39901000
  13.99306000 -7.15857000 -2.47980000
  13.99306000-10.02200000 -7.43941000
  13.99306000-18.61229000-12.39901000
  13.99306000-12.88543000 -2.47980000
  13.99306000-15.74886000 -7.43941000
  16.34180000-10.02200000-14.05221000
  16.34180000 -4.29514000 -4.13300000
  16.34180000 -7.15857000 -9.09261000
  16.34180000-15.74886000-14.05221000
  16.34180000-10.02200000 -4.13300000
  16.34180000-12.88543000 -9.09261000
  16.34180000-21.47572000-14.05221000
  16.34180000-15.74886000 -4.13300000
  16.34180000-18.61229000 -9.09261000
  17.04000000-10.02200000 -7.16000000
  17.04000000-10.02200333 -6.06300000
 


--------------------------------------------------------------------------------------------------------


 k-point  1 :   0.0000 0.0000 0.0000  plane waves:   90499
 k-point  2 :   0.5000 0.0000 0.0000  plane waves:   90530
 k-point  3 :   0.0000 0.5000 0.0000  plane waves:   90530

 maximum and minimum number of plane-waves per node :     90530    90499

 maximum number of plane-waves:     90530
 maximum index in each direction: 
   IXMAX=   24   IYMAX=   24   IZMAX=   42
   IXMIN=  -24   IYMIN=  -24   IZMIN=  -42


 serial   3D FFT for wavefunctions
 parallel 3D FFT for charge:
    minimum data exchange during FFTs selected (reduces bandwidth)


 total amount of memory used by VASP MPI-rank0   652140. kBytes
=======================================================================

   base      :      30000. kBytes
   nonlr-proj:      89919. kBytes
   fftplans  :      40601. kBytes
   grid      :      95147. kBytes
   one-center:       3950. kBytes
   wavefun   :     392523. kBytes
 
     INWAV:  cpu time    0.0001: real time    0.0002
 Broyden mixing: mesh for mixing (old mesh)
   NGX = 49   NGY = 49   NGZ = 85
  (NGX  =160   NGY  =160   NGZ  =256)
  gives a total of 204085 points

 initial charge density was supplied:
 charge density of overlapping atoms calculated
 number of electron     766.0000000 magnetization 
 keeping initial charge density in first step


--------------------------------------------------------------------------------------------------------


 Maximum index for non-local projection operator         4275
 Maximum index for augmentation-charges          758 (set IRDMAX)


--------------------------------------------------------------------------------------------------------


 First call to EWALD:  gamma=   0.090
 Maximum number of real-space cells 3x 3x 2
 Maximum number of reciprocal cells 2x 2x 4

    FEWALD:  cpu time    0.0357: real time    0.0361


----------------------------------------- Iteration    1(   1)  ---------------------------------------


    POTLOK:  cpu time    0.8986: real time    0.9068
    SETDIJ:  cpu time    0.1069: real time    0.1103
     EDDAV:  cpu time   19.5929: real time   22.3654
       DOS:  cpu time    0.0016: real time    0.0072
    --------------------------------------------
      LOOP:  cpu time   20.6021: real time   23.4119

 eigenvalue-minimisations  :  3168
 total energy-change (2. order) : 0.2164577E+04  (-0.1847263E+05)
 number of electron     766.0000000 magnetization 
 augmentation part      766.0000000 magnetization 

 Free energy of the ion-electron system (eV)
  ---------------------------------------------------
  alpha Z        PSCENC =       505.22967617
  Ewald energy   TEWEN  =     89790.59764543
  -Hartree energ DENC   =   -103779.01912846
  -exchange      EXHF   =         0.00000000
  -V(xc)+E(xc)   XCENC  =     -6601.39841983
  PAW double counting   =     17092.30507181    -9042.14386232
  entropy T*S    EENTRO =        -0.07500411
  eigenvalues    EBANDS =       179.87889688
  atomic energy  EATOM  =     14019.20197576
  Solvation  Ediel_sol  =         0.00000000
  ---------------------------------------------------
  free energy    TOTEN  =      2164.57685132 eV

  energy without entropy =     2164.65185543  energy(sigma->0) =     2164.61435338


--------------------------------------------------------------------------------------------------------




----------------------------------------- Iteration    1(   2)  ---------------------------------------


     EDDAV:  cpu time   24.2473: real time   27.5048
       DOS:  cpu time    0.0012: real time    0.0012
    --------------------------------------------
      LOOP:  cpu time   24.2499: real time   27.5142

 eigenvalue-minimisations  :  4224
 total energy-change (2. order) :-0.2891500E+04  (-0.2728081E+04)
 number of electron     766.0000000 magnetization 
 augmentation part      766.0000000 magnetization 

 Free energy of the ion-electron system (eV)
  ---------------------------------------------------
  alpha Z        PSCENC =       505.22967617
  Ewald energy   TEWEN  =     89790.59764543
  -Hartree energ DENC   =   -103779.01912846
  -exchange      EXHF   =         0.00000000
  -V(xc)+E(xc)   XCENC  =     -6601.39841983
  PAW double counting   =     17092.30507181    -9042.14386232
  entropy T*S    EENTRO =        -0.11998108
  eigenvalues    EBANDS =     -2711.57655997
  atomic energy  EATOM  =     14019.20197576
  Solvation  Ediel_sol  =         0.00000000
  ---------------------------------------------------
  free energy    TOTEN  =      -726.92358250 eV

  energy without entropy =     -726.80360142  energy(sigma->0) =     -726.86359196


--------------------------------------------------------------------------------------------------------




----------------------------------------- Iteration    1(   3)  ---------------------------------------


     EDDAV:  cpu time   25.9195: real time   29.3626
       DOS:  cpu time    0.0046: real time    0.0046
    --------------------------------------------
      LOOP:  cpu time   25.9255: real time   29.3701

 eigenvalue-minimisations  :  4536
 total energy-change (2. order) :-0.2219748E+03  (-0.2109940E+03)
 number of electron     766.0000000 magnetization 
 augmentation part      766.0000000 magnetization 

 Free energy of the ion-electron system (eV)
  ---------------------------------------------------
  alpha Z        PSCENC =       505.22967617
  Ewald energy   TEWEN  =     89790.59764543
  -Hartree energ DENC   =   -103779.01912846
  -exchange      EXHF   =         0.00000000
  -V(xc)+E(xc)   XCENC  =     -6601.39841983
  PAW double counting   =     17092.30507181    -9042.14386232
  entropy T*S    EENTRO =        -0.19908199
  eigenvalues    EBANDS =     -2933.47226302
  atomic energy  EATOM  =     14019.20197576
  Solvation  Ediel_sol  =         0.00000000
  ---------------------------------------------------
  free energy    TOTEN  =      -948.89838645 eV

  energy without entropy =     -948.69930446  energy(sigma->0) =     -948.79884546


--------------------------------------------------------------------------------------------------------




----------------------------------------- Iteration    1(   4)  ---------------------------------------


     EDDAV:  cpu time   27.5822: real time   31.1623
       DOS:  cpu time    0.0018: real time    0.0018
    --------------------------------------------
      LOOP:  cpu time   27.5853: real time   31.1670

 eigenvalue-minimisations  :  4956
 total energy-change (2. order) :-0.1224925E+02  (-0.1195446E+02)
 number of electron     766.0000000 magnetization 
 augmentation part      766.0000000 magnetization 

 Free energy of the ion-electron system (eV)
  ---------------------------------------------------
  alpha Z        PSCENC =       505.22967617
  Ewald energy   TEWEN  =     89790.59764543
  -Hartree energ DENC   =   -103779.01912846
  -exchange      EXHF   =         0.00000000
  -V(xc)+E(xc)   XCENC  =     -6601.39841983
  PAW double counting   =     17092.30507181    -9042.14386232
  entropy T*S    EENTRO =        -0.21479087
  eigenvalues    EBANDS =     -2945.70580187
  atomic energy  EATOM  =     14019.20197576
  Solvation  Ediel_sol  =         0.00000000
  ---------------------------------------------------
  free energy    TOTEN  =      -961.14763418 eV

  energy without entropy =     -960.93284331  energy(sigma->0) =     -961.04023875


--------------------------------------------------------------------------------------------------------




----------------------------------------- Iteration    1(   5)  ---------------------------------------


     EDDAV:  cpu time   25.1418: real time   28.4764
       DOS:  cpu time    0.0135: real time    0.0135
    CHARGE:  cpu time    2.0432: real time    2.1235
    MIXING:  cpu time    0.0281: real time    0.0282
    --------------------------------------------
      LOOP:  cpu time   27.2282: real time   30.6447

 eigenvalue-minimisations  :  4344
 total energy-change (2. order) :-0.3944908E+00  (-0.3913997E+00)
 number of electron     765.9999965 magnetization 
 augmentation part       -9.4296748 magnetization 

 Broyden mixing:
  rms(total) = 0.23231E+01    rms(broyden)= 0.23210E+01
  rms(prec ) = 0.29582E+01
  weight for this iteration     100.00

 Free energy of the ion-electron system (eV)
  ---------------------------------------------------
  alpha Z        PSCENC =       505.22967617
  Ewald energy   TEWEN  =     89790.59764543
  -Hartree energ DENC   =   -103779.01912846
  -exchange      EXHF   =         0.00000000
  -V(xc)+E(xc)   XCENC  =     -6601.39841983
  PAW double counting   =     17092.30507181    -9042.14386232
  entropy T*S    EENTRO =        -0.21649864
  eigenvalues    EBANDS =     -2946.09858488
  atomic energy  EATOM  =     14019.20197576
  Solvation  Ediel_sol  =         0.00000000
  ---------------------------------------------------
  free energy    TOTEN  =      -961.54212498 eV

  energy without entropy =     -961.32562633  energy(sigma->0) =     -961.43387565


--------------------------------------------------------------------------------------------------------




----------------------------------------- Iteration    1(   6)  ---------------------------------------


    POTLOK:  cpu time    0.8615: real time    0.8641
    SETDIJ:  cpu time    0.1085: real time    0.1089
     EDDAV:  cpu time   25.3849: real time   28.7214
       DOS:  cpu time    0.0011: real time    0.0011
    CHARGE:  cpu time    2.0705: real time    2.1121
    MIXING:  cpu time    0.0294: real time    0.0296
    --------------------------------------------
      LOOP:  cpu time   28.4575: real time   31.8401

 eigenvalue-minimisations  :  4404
 total energy-change (2. order) :-0.5480216E+01  (-0.1938041E+02)
 number of electron     765.9999985 magnetization 
 augmentation part       -9.7359551 magnetization 

 Broyden mixing:
  rms(total) = 0.19446E+01    rms(broyden)= 0.19427E+01
  rms(prec ) = 0.40145E+01
  weight for this iteration     100.00

 eigenvalues of (default mixing * dielectric matrix)
  average eigenvalue GAMMA=   0.7694
  0.7694

 Free energy of the ion-electron system (eV)
  ---------------------------------------------------
  alpha Z        PSCENC =       505.22967617
  Ewald energy   TEWEN  =     89790.59764543
  -Hartree energ DENC   =   -104723.52220332
  -exchange      EXHF   =         0.00000000
  -V(xc)+E(xc)   XCENC  =     -6589.15721336
  PAW double counting   =     19260.70999720   -11212.47217601
  entropy T*S    EENTRO =        -0.11262007
  eigenvalues    EBANDS =     -2017.49742303
  atomic energy  EATOM  =     14019.20197576
  Solvation  Ediel_sol  =         0.00000000
  ---------------------------------------------------
  free energy    TOTEN  =      -967.02234124 eV

  energy without entropy =     -966.90972117  energy(sigma->0) =     -966.96603120


--------------------------------------------------------------------------------------------------------




----------------------------------------- Iteration    1(   7)  ---------------------------------------


    POTLOK:  cpu time    0.8715: real time    0.8739
    SETDIJ:  cpu time    0.1088: real time    0.1090
     EDDAV:  cpu time   23.6293: real time   26.7089
       DOS:  cpu time    0.0012: real time    0.0012
    CHARGE:  cpu time    2.0619: real time    2.1050
    MIXING:  cpu time    0.0304: real time    0.0304
    --------------------------------------------
      LOOP:  cpu time   26.7050: real time   29.8335

 eigenvalue-minimisations  :  3996
 total energy-change (2. order) : 0.3079972E+02  (-0.1330700E+02)
 number of electron     765.9999982 magnetization 
 augmentation part       -9.8011137 magnetization 

 Broyden mixing:
  rms(total) = 0.12497E+01    rms(broyden)= 0.12495E+01
  rms(prec ) = 0.21904E+01
  weight for this iteration     100.00

 eigenvalues of (default mixing * dielectric matrix)
  average eigenvalue GAMMA=   0.6996
  1.0328  0.3665

 Free energy of the ion-electron system (eV)
  ---------------------------------------------------
  alpha Z        PSCENC =       505.22967617
  Ewald energy   TEWEN  =     89790.59764543
  -Hartree energ DENC   =   -104173.77340491
  -exchange      EXHF   =         0.00000000
  -V(xc)+E(xc)   XCENC  =     -6587.02751825
  PAW double counting   =     19758.24354271   -11710.17795715
  entropy T*S    EENTRO =        -0.05261260
  eigenvalues    EBANDS =     -2538.46396726
  atomic energy  EATOM  =     14019.20197576
  Solvation  Ediel_sol  =         0.00000000
  ---------------------------------------------------
  free energy    TOTEN  =      -936.22262010 eV

  energy without entropy =     -936.17000750  energy(sigma->0) =     -936.19631380


--------------------------------------------------------------------------------------------------------




----------------------------------------- Iteration    1(   8)  ---------------------------------------


    POTLOK:  cpu time    0.8682: real time    0.8710
    SETDIJ:  cpu time    0.1088: real time    0.1090
     EDDAV:  cpu time   26.3754: real time   29.8348
       DOS:  cpu time    0.0026: real time    0.0026
    CHARGE:  cpu time    2.0129: real time    2.0554
    MIXING:  cpu time    0.0314: real time    0.0314
    --------------------------------------------
      LOOP:  cpu time   29.4013: real time   32.9185

 eigenvalue-minimisations  :  4632
 total energy-change (2. order) :-0.1085656E+02  (-0.4995492E+01)
 number of electron     765.9999987 magnetization 
 augmentation part       -9.7884332 magnetization 

 Broyden mixing:
  rms(total) = 0.11717E+01    rms(broyden)= 0.11717E+01
  rms(prec ) = 0.34173E+01
  weight for this iteration     100.00

 eigenvalues of (default mixing * dielectric matrix)
  average eigenvalue GAMMA=   0.7624
  1.4599  0.5930  0.2343

 Free energy of the ion-electron system (eV)
  ---------------------------------------------------
  alpha Z        PSCENC =       505.22967617
  Ewald energy   TEWEN  =     89790.59764543
  -Hartree energ DENC   =   -104280.60841995
  -exchange      EXHF   =         0.00000000
  -V(xc)+E(xc)   XCENC  =     -6583.45614851
  PAW double counting   =     20503.34158836   -12455.66041831
  entropy T*S    EENTRO =        -0.11017729
  eigenvalues    EBANDS =     -2445.61490174
  atomic energy  EATOM  =     14019.20197576
  Solvation  Ediel_sol  =         0.00000000
  ---------------------------------------------------
  free energy    TOTEN  =      -947.07918008 eV

  energy without entropy =     -946.96900279  energy(sigma->0) =     -947.02409143


--------------------------------------------------------------------------------------------------------




----------------------------------------- Iteration    1(   9)  ---------------------------------------


    POTLOK:  cpu time    0.8683: real time    0.8710
    SETDIJ:  cpu time    0.1091: real time    0.1092
     EDDAV:  cpu time   24.0802: real time   27.2931
       DOS:  cpu time    0.0014: real time    0.0015
    CHARGE:  cpu time    2.0059: real time    2.0461
    MIXING:  cpu time    0.0326: real time    0.0326
    --------------------------------------------
      LOOP:  cpu time   27.0995: real time   30.3725

 eigenvalue-minimisations  :  4128
 total energy-change (2. order) : 0.1569754E+02  (-0.1174405E+01)
 number of electron     765.9999973 magnetization 
 augmentation part       -9.7741945 magnetization 

 Broyden mixing:
  rms(total) = 0.66125E+00    rms(broyden)= 0.66023E+00
  rms(prec ) = 0.10651E+01
  weight for this iteration     100.00

 eigenvalues of (default mixing * dielectric matrix)
  average eigenvalue GAMMA=   0.8775
  2.4185  0.6498  0.2999  0.1418

 Free energy of the ion-electron system (eV)
  ---------------------------------------------------
  alpha Z        PSCENC =       505.22967617
  Ewald energy   TEWEN  =     89790.59764543
  -Hartree energ DENC   =   -104399.05598970
  -exchange      EXHF   =         0.00000000
  -V(xc)+E(xc)   XCENC  =     -6580.26991361
  PAW double counting   =     21135.62116102   -13088.30521851
  entropy T*S    EENTRO =        -0.09603884
  eigenvalues    EBANDS =     -2314.30494008
  atomic energy  EATOM  =     14019.20197576
  Solvation  Ediel_sol  =         0.00000000
  ---------------------------------------------------
  free energy    TOTEN  =      -931.38164236 eV

  energy without entropy =     -931.28560352  energy(sigma->0) =     -931.33362294


--------------------------------------------------------------------------------------------------------




----------------------------------------- Iteration    1(  10)  ---------------------------------------


    POTLOK:  cpu time    0.8705: real time    0.8726
    SETDIJ:  cpu time    0.1085: real time    0.1089
     EDDAV:  cpu time   22.5642: real time   25.6068
       DOS:  cpu time    0.0118: real time    0.0118
    CHARGE:  cpu time    2.0027: real time    2.0459
    MIXING:  cpu time    0.0341: real time    0.0342
    --------------------------------------------
      LOOP:  cpu time   25.5939: real time   28.6837

 eigenvalue-minimisations  :  3816
 total energy-change (2. order) : 0.2429396E+01  (-0.1195556E+01)
 number of electron     765.9999979 magnetization 
 augmentation part       -9.8886209 magnetization 

 Broyden mixing:
  rms(total) = 0.17710E+00    rms(broyden)= 0.17696E+00
  rms(prec ) = 0.26366E+00
  weight for this iteration     100.00

 eigenvalues of (default mixing * dielectric matrix)
  average eigenvalue GAMMA=   0.8662
  2.4755  0.7615  0.6464  0.3055  0.1422

 Free energy of the ion-electron system (eV)
  ---------------------------------------------------
  alpha Z        PSCENC =       505.22967617
  Ewald energy   TEWEN  =     89790.59764543
  -Hartree energ DENC   =   -104556.44085008
  -exchange      EXHF   =         0.00000000
  -V(xc)+E(xc)   XCENC  =     -6571.32128819
  PAW double counting   =     22699.65449498   -14653.50379693
  entropy T*S    EENTRO =        -0.07331900
  eigenvalues    EBANDS =     -2162.29678468
  atomic energy  EATOM  =     14019.20197576
  Solvation  Ediel_sol  =         0.00000000
  ---------------------------------------------------
  free energy    TOTEN  =      -928.95224653 eV

  energy without entropy =     -928.87892753  energy(sigma->0) =     -928.91558703


--------------------------------------------------------------------------------------------------------




----------------------------------------- Iteration    1(  11)  ---------------------------------------


    POTLOK:  cpu time    0.8718: real time    0.8742
    SETDIJ:  cpu time    0.1091: real time    0.1093
     EDDAV:  cpu time   22.4466: real time   25.4693
       DOS:  cpu time    0.0027: real time    0.0027
    CHARGE:  cpu time    2.0270: real time    2.0694
    MIXING:  cpu time    0.0354: real time    0.0357
    --------------------------------------------
      LOOP:  cpu time   25.4946: real time   28.5641

 eigenvalue-minimisations  :  3708
 total energy-change (2. order) : 0.1019682E+00  (-0.2480230E+00)
 number of electron     765.9999979 magnetization 
 augmentation part       -9.9524990 magnetization 

 Broyden mixing:
  rms(total) = 0.10211E+00    rms(broyden)= 0.10192E+00
  rms(prec ) = 0.13677E+00
  weight for this iteration     100.00

 eigenvalues of (default mixing * dielectric matrix)
  average eigenvalue GAMMA=   0.9299
  2.3281  1.5306  0.6385  0.6385  0.3014  0.1421

 Free energy of the ion-electron system (eV)
  ---------------------------------------------------
  alpha Z        PSCENC =       505.22967617
  Ewald energy   TEWEN  =     89790.59764543
  -Hartree energ DENC   =   -104605.34709471
  -exchange      EXHF   =         0.00000000
  -V(xc)+E(xc)   XCENC  =     -6569.63295002
  PAW double counting   =     22915.04729470   -14869.21997823
  entropy T*S    EENTRO =        -0.07567529
  eigenvalues    EBANDS =     -2114.65117209
  atomic energy  EATOM  =     14019.20197576
  Solvation  Ediel_sol  =         0.00000000
  ---------------------------------------------------
  free energy    TOTEN  =      -928.85027828 eV

  energy without entropy =     -928.77460299  energy(sigma->0) =     -928.81244063


--------------------------------------------------------------------------------------------------------




----------------------------------------- Iteration    1(  12)  ---------------------------------------


    POTLOK:  cpu time    0.8711: real time    0.8733
    SETDIJ:  cpu time    0.1079: real time    0.1088
     EDDAV:  cpu time   23.6312: real time   26.8282
       DOS:  cpu time    0.0018: real time    0.0018
    CHARGE:  cpu time    1.9637: real time    2.0049
    MIXING:  cpu time    0.0373: real time    0.0373
    --------------------------------------------
      LOOP:  cpu time   26.6148: real time   29.8573

 eigenvalue-minimisations  :  4044
 total energy-change (2. order) : 0.3293220E-01  (-0.3498728E-01)
 number of electron     765.9999979 magnetization 
 augmentation part       -9.9626372 magnetization 

 Broyden mixing:
  rms(total) = 0.71907E-01    rms(broyden)= 0.71877E-01
  rms(prec ) = 0.98224E-01
  weight for this iteration     100.00

 eigenvalues of (default mixing * dielectric matrix)
  average eigenvalue GAMMA=   1.0168
  2.3542  2.3542  0.1421  0.3025  0.7001  0.7001  0.5648

 Free energy of the ion-electron system (eV)
  ---------------------------------------------------
  alpha Z        PSCENC =       505.22967617
  Ewald energy   TEWEN  =     89790.59764543
  -Hartree energ DENC   =   -104634.85120192
  -exchange      EXHF   =         0.00000000
  -V(xc)+E(xc)   XCENC  =     -6569.26058749
  PAW double counting   =     22913.94610887   -14868.33108577
  entropy T*S    EENTRO =        -0.07337060
  eigenvalues    EBANDS =     -2085.27650653
  atomic energy  EATOM  =     14019.20197576
  Solvation  Ediel_sol  =         0.00000000
  ---------------------------------------------------
  free energy    TOTEN  =      -928.81734608 eV

  energy without entropy =     -928.74397548  energy(sigma->0) =     -928.78066078


--------------------------------------------------------------------------------------------------------




----------------------------------------- Iteration    1(  13)  ---------------------------------------


    POTLOK:  cpu time    0.8776: real time    0.8802
    SETDIJ:  cpu time    0.1089: real time    0.1091
     EDDAV:  cpu time   22.1039: real time   25.1536
       DOS:  cpu time    0.0013: real time    0.0013
    CHARGE:  cpu time    2.0037: real time    2.0470
    MIXING:  cpu time    0.0388: real time    0.0388
    --------------------------------------------
      LOOP:  cpu time   25.1361: real time   28.2329

 eigenvalue-minimisations  :  3720
 total energy-change (2. order) : 0.4304660E-01  (-0.1018602E-01)
 number of electron     765.9999979 magnetization 
 augmentation part       -9.9552464 magnetization 

 Broyden mixing:
  rms(total) = 0.41117E-01    rms(broyden)= 0.41103E-01
  rms(prec ) = 0.69065E-01
  weight for this iteration     100.00

 eigenvalues of (default mixing * dielectric matrix)
  average eigenvalue GAMMA=   1.0122
  2.4698  2.4698  0.1421  0.3021  0.8464  0.6730  0.6730  0.5212

 Free energy of the ion-electron system (eV)
  ---------------------------------------------------
  alpha Z        PSCENC =       505.22967617
  Ewald energy   TEWEN  =     89790.59764543
  -Hartree energ DENC   =   -104683.10779044
  -exchange      EXHF   =         0.00000000
  -V(xc)+E(xc)   XCENC  =     -6568.61161394
  PAW double counting   =     22930.28564465   -14884.97679832
  entropy T*S    EENTRO =        -0.07744362
  eigenvalues    EBANDS =     -2037.31559516
  atomic energy  EATOM  =     14019.20197576
  Solvation  Ediel_sol  =         0.00000000
  ---------------------------------------------------
  free energy    TOTEN  =      -928.77429948 eV

  energy without entropy =     -928.69685586  energy(sigma->0) =     -928.73557767


--------------------------------------------------------------------------------------------------------




----------------------------------------- Iteration    1(  14)  ---------------------------------------


    POTLOK:  cpu time    0.8740: real time    0.8782
    SETDIJ:  cpu time    0.1087: real time    0.1089
     EDDAV:  cpu time   21.5893: real time   24.5410
       DOS:  cpu time    0.0025: real time    0.0025
    CHARGE:  cpu time    1.9909: real time    2.0337
    MIXING:  cpu time    0.0410: real time    0.0413
    --------------------------------------------
      LOOP:  cpu time   24.6082: real time   27.6086

 eigenvalue-minimisations  :  3636
 total energy-change (2. order) : 0.2196964E-01  (-0.3388243E-02)
 number of electron     765.9999979 magnetization 
 augmentation part       -9.9541484 magnetization 

 Broyden mixing:
  rms(total) = 0.25111E-01    rms(broyden)= 0.25107E-01
  rms(prec ) = 0.42288E-01
  weight for this iteration     100.00

 eigenvalues of (default mixing * dielectric matrix)
  average eigenvalue GAMMA=   1.0744
  2.5190  2.5190  1.4739  0.1421  0.3022  0.8777  0.6726  0.6726  0.4906

 Free energy of the ion-electron system (eV)
  ---------------------------------------------------
  alpha Z        PSCENC =       505.22967617
  Ewald energy   TEWEN  =     89790.59764543
  -Hartree energ DENC   =   -104708.70794340
  -exchange      EXHF   =         0.00000000
  -V(xc)+E(xc)   XCENC  =     -6568.18238035
  PAW double counting   =     22954.49222428   -14909.27265219
  entropy T*S    EENTRO =        -0.07489868
  eigenvalues    EBANDS =     -2012.03597686
  atomic energy  EATOM  =     14019.20197576
  Solvation  Ediel_sol  =         0.00000000
  ---------------------------------------------------
  free energy    TOTEN  =      -928.75232984 eV

  energy without entropy =     -928.67743117  energy(sigma->0) =     -928.71488051


--------------------------------------------------------------------------------------------------------




----------------------------------------- Iteration    1(  15)  ---------------------------------------


    POTLOK:  cpu time    0.8811: real time    0.8838
    SETDIJ:  cpu time    0.1081: real time    0.1087
     EDDAV:  cpu time   22.2875: real time   25.2389
       DOS:  cpu time    0.0019: real time    0.0019
    CHARGE:  cpu time    1.9920: real time    2.0336
    MIXING:  cpu time    0.0442: real time    0.0444
    --------------------------------------------
      LOOP:  cpu time   25.3166: real time   28.3142

 eigenvalue-minimisations  :  3732
 total energy-change (2. order) : 0.3451647E-02  (-0.3903935E-02)
 number of electron     765.9999979 magnetization 
 augmentation part       -9.9527928 magnetization 

 Broyden mixing:
  rms(total) = 0.15438E-01    rms(broyden)= 0.15434E-01
  rms(prec ) = 0.24904E-01
  weight for this iteration     100.00

 eigenvalues of (default mixing * dielectric matrix)
  average eigenvalue GAMMA=   1.1540
  3.0143  2.7533  1.3301  1.3301  0.1421  0.3022  0.8273  0.6739  0.6739  0.4932

 Free energy of the ion-electron system (eV)
  ---------------------------------------------------
  alpha Z        PSCENC =       505.22967617
  Ewald energy   TEWEN  =     89790.59764543
  -Hartree energ DENC   =   -104742.77514346
  -exchange      EXHF   =         0.00000000
  -V(xc)+E(xc)   XCENC  =     -6567.78910316
  PAW double counting   =     22962.82802579   -14917.62734071
  entropy T*S    EENTRO =        -0.07383092
  eigenvalues    EBANDS =     -1978.34078309
  atomic energy  EATOM  =     14019.20197576
  Solvation  Ediel_sol  =         0.00000000
  ---------------------------------------------------
  free energy    TOTEN  =      -928.74887820 eV

  energy without entropy =     -928.67504728  energy(sigma->0) =     -928.71196274


--------------------------------------------------------------------------------------------------------




----------------------------------------- Iteration    1(  16)  ---------------------------------------


    POTLOK:  cpu time    0.8835: real time    0.8857
    SETDIJ:  cpu time    0.1092: real time    0.1101
     EDDAV:  cpu time   22.6121: real time   25.6202
       DOS:  cpu time    0.0019: real time    0.0019
    CHARGE:  cpu time    1.9762: real time    2.0182
    MIXING:  cpu time    0.0463: real time    0.0467
    --------------------------------------------
      LOOP:  cpu time   25.6310: real time   28.6857

 eigenvalue-minimisations  :  3816
 total energy-change (2. order) :-0.5012644E-02  (-0.8786209E-03)
 number of electron     765.9999979 magnetization 
 augmentation part       -9.9500972 magnetization 

 Broyden mixing:
  rms(total) = 0.11101E-01    rms(broyden)= 0.11094E-01
  rms(prec ) = 0.17111E-01
  weight for this iteration     100.00

 eigenvalues of (default mixing * dielectric matrix)
  average eigenvalue GAMMA=   1.2359
  3.9236  2.6019  1.7555  1.2732  0.1421  1.0328  0.3022  0.6818  0.6818  0.7047
  0.4951

 Free energy of the ion-electron system (eV)
  ---------------------------------------------------
  alpha Z        PSCENC =       505.22967617
  Ewald energy   TEWEN  =     89790.59764543
  -Hartree energ DENC   =   -104762.73419576
  -exchange      EXHF   =         0.00000000
  -V(xc)+E(xc)   XCENC  =     -6567.68993858
  PAW double counting   =     22946.29172274   -14901.07352664
  entropy T*S    EENTRO =        -0.07432024
  eigenvalues    EBANDS =     -1958.50292971
  atomic energy  EATOM  =     14019.20197576
  Solvation  Ediel_sol  =         0.00000000
  ---------------------------------------------------
  free energy    TOTEN  =      -928.75389084 eV

  energy without entropy =     -928.67957060  energy(sigma->0) =     -928.71673072


--------------------------------------------------------------------------------------------------------




----------------------------------------- Iteration    1(  17)  ---------------------------------------


    POTLOK:  cpu time    0.8883: real time    0.8907
    SETDIJ:  cpu time    0.1086: real time    0.1088
     EDDAV:  cpu time   20.8308: real time   23.6874
       DOS:  cpu time    0.0019: real time    0.0019
    CHARGE:  cpu time    1.9595: real time    2.0008
[...]
     11.69112     -8.59029     -8.26601        -0.001978     -0.002834      0.036208
     11.69112    -17.18057    -13.22561        -0.013950     -0.015265     -0.006191
     11.69112    -11.45372     -3.30640        -0.056478     -0.040362      0.034227
     11.69112    -14.31714     -8.26601         0.015938      0.009519      0.006198
     13.99306      0.00000      0.00000         0.005652     -0.002756     -0.029672
     13.99306     -2.86343     -4.95960         0.022313     -0.005656     -0.000317
     13.99306     -5.72686     -9.91921         0.007252     -0.002574     -0.010183
     13.99306     -5.72686      0.00000         0.009601      0.012351      0.004016
     13.99306     -8.59029     -4.95960         0.065512     -0.037021     -0.061432
     13.99306    -11.45372     -9.91921        -0.046357     -0.006200     -0.030687
     13.99306    -11.45372      0.00000        -0.021286     -0.007561      0.033546
     13.99306    -14.31714     -4.95960         0.027334      0.039511     -0.016761
     13.99306    -17.18057     -9.91921        -0.004659     -0.007286     -0.027347
     16.34180     -2.86343     -1.65320        -0.012913     -0.009553     -0.014990
     16.34180     -5.72686     -6.61281         0.057879     -0.084508     -0.007107
     16.34180     -8.59029    -11.57241         0.033915      0.010875     -0.024335
     16.34180     -8.59029     -1.65320        -0.004485     -0.019429      0.026254
     16.34180    -11.45372     -6.61281        -4.265520     -9.238267      0.050927
     16.34180    -14.31714    -11.57241        -0.002816      0.024534      0.017042
     16.34180    -14.31714     -1.65320        -0.003825      0.013784     -0.031590
     16.34180    -17.18057     -6.61281        -0.006258      0.020390     -0.003256
     16.34180    -20.04400    -11.57241        -0.004193     -0.018347      0.008761
      2.36204     -7.15857     -4.13300        -0.005611      0.023290     -0.015096
      2.36204    -10.02200     -9.09261         0.006080      0.000000     -0.001625
      2.36204    -12.88543    -14.05221         0.007812      0.006968      0.013734
      2.36204    -12.88543     -4.13300        -0.005611     -0.023290     -0.015096
      2.36204    -15.74886     -9.09261         0.008988      0.008675      0.029575
      2.36204    -18.61229    -14.05221         0.005709      0.000000     -0.027733
      2.36204    -18.61229     -4.13300         0.010575      0.000000     -0.008349
      2.36204    -21.47572     -9.09261         0.008988     -0.008675      0.029575
      2.36204    -24.33915    -14.05221         0.007812     -0.006968      0.013734
      4.71078    -10.02200     -5.78621        -0.000920      0.000000     -0.013551
      4.71078    -12.88543    -10.74581        -0.019063     -0.001056     -0.008268
      4.71078     -7.15857     -0.82660        -0.018725      0.000300      0.002355
      4.71078    -15.74886     -5.78621        -0.016162      0.000768      0.008829
      4.71078    -18.61229    -10.74581        -0.011421      0.000000     -0.024286
      4.71078    -12.88543     -0.82660        -0.018725     -0.000300      0.002355
      4.71078     -4.29514     -5.78621        -0.016162     -0.000768      0.008829
      4.71078     -7.15857    -10.74581        -0.019063      0.001056     -0.008268
      4.71078     -1.43171     -0.82660        -0.010814      0.000000     -0.009430
      7.01272    -12.88543     -7.43941        -0.006907      0.010409      0.011892
      7.01272    -15.74886    -12.39901         0.007472     -0.009463      0.013898
      7.01272    -10.02200     -2.47980         0.036619      0.000000      0.028537
      7.01272    -18.61229     -7.43941         0.012521      0.000000     -0.014884
      7.01272    -21.47572    -12.39901         0.007472      0.009463      0.013898
      7.01272    -15.74886     -2.47980         0.009999     -0.018983      0.005278
      7.01272     -7.15857     -7.43941        -0.006907     -0.010409      0.011892
      7.01272    -10.02200    -12.39901         0.001059      0.000000      0.004420
      7.01272     -4.29514     -2.47980         0.009999      0.018983      0.005278
      9.35192    -15.74886     -9.09261        -0.037052     -0.004765     -0.013859
      9.35192    -18.61229    -14.05221         0.004394      0.000000      0.021275
      9.35192    -12.88543     -4.13300        -0.005294     -0.011317      0.004698
      9.35192    -21.47572     -9.09261        -0.037052      0.004765     -0.013859
      9.35192    -24.33915    -14.05221         0.004389     -0.000713     -0.017513
      9.35192    -18.61229     -4.13300         0.000561      0.000000     -0.003293
      9.35192    -10.02200     -9.09261        -0.011121      0.000000      0.016797
      9.35192    -12.88543    -14.05221         0.004389      0.000713     -0.017513
      9.35192     -7.15857     -4.13300        -0.005294      0.011317      0.004698
     11.69112    -18.61229    -10.74581         0.022097      0.000000     -0.010909
     11.69112    -12.88543     -0.82660        -0.025393      0.021357     -0.013194
     11.69112    -15.74886     -5.78621        -0.006583      0.018772      0.001199
     11.69112     -7.15857    -10.74581         0.014805     -0.009669      0.006647
     11.69112     -1.43171     -0.82660        -0.011178      0.000000     -0.019650
     11.69112     -4.29514     -5.78621        -0.006583     -0.018772      0.001199
     11.69112    -12.88543    -10.74581         0.014805      0.009669      0.006647
     11.69112     -7.15857     -0.82660        -0.025393     -0.021357     -0.013194
     11.69112    -10.02200     -5.78621         0.016187      0.000000     -0.026626
     13.99306    -21.47572    -12.39901         0.015123     -0.001322      0.007893
     13.99306    -15.74886     -2.47980         0.010346     -0.023355      0.009130
     13.99306    -18.61229     -7.43941        -0.008043      0.000000      0.007718
     13.99306    -10.02200    -12.39901         0.005041      0.000000      0.017015
     13.99306     -4.29514     -2.47980         0.010346      0.023355      0.009130
     13.99306     -7.15857     -7.43941        -0.031115      0.038896     -0.053779
     13.99306    -15.74886    -12.39901         0.015123      0.001322      0.007893
     13.99306    -10.02200     -2.47980        -0.033773      0.000000      0.008138
     13.99306    -12.88543     -7.43941        -0.031115     -0.038896     -0.053779
     16.34180    -24.33915    -14.05221        -0.008073     -0.010534      0.000866
     16.34180    -18.61229     -4.13300        -0.018992      0.000000      0.020924
     16.34180    -21.47572     -9.09261         0.007867     -0.003671      0.033483
     16.34180    -12.88543    -14.05221        -0.008073      0.010534      0.000866
     16.34180     -7.15857     -4.13300        -0.040436      0.083220      0.067673
     16.34180    -10.02200     -9.09261         0.090760      0.000000      0.109700
     16.34180    -18.61229    -14.05221         0.001865      0.000000      0.025414
     16.34180    -12.88543     -4.13300        -0.040436     -0.083220      0.067673
     16.34180    -15.74886     -9.09261         0.007867      0.003671      0.033483
      2.36204     -8.59029     -6.61281         0.015884     -0.008888      0.003197
      2.36204    -11.45372    -11.57241         0.011201     -0.006072     -0.014848
      2.36204     -5.72686     -1.65320         0.009196      0.007034     -0.002594
      2.36204    -14.31714     -6.61281         0.011975     -0.013163      0.006203
      2.36204    -17.18057    -11.57241         0.013299      0.016582      0.004819
      2.36204    -11.45372     -1.65320         0.015828     -0.007222      0.022118
      2.36204    -20.04400     -6.61281         0.007994     -0.000354     -0.007088
      2.36204    -22.90743    -11.57241         0.014497      0.002445      0.000416
      2.36204    -17.18057     -1.65320         0.004993      0.005186      0.003837
      4.71078    -11.45372     -8.26601         0.018089      0.000718      0.010235
      4.71078    -14.31714    -13.22561        -0.014351      0.006711     -0.002131
      4.71078     -8.59029     -3.30640         0.017351      0.018539      0.002347
      4.71078    -17.18057     -8.26601        -0.021996      0.006526      0.008717
      4.71078    -20.04400    -13.22561         0.003567     -0.005283      0.007220
      4.71078    -14.31714     -3.30640        -0.019676     -0.006502     -0.003216
      4.71078     -5.72686     -8.26601        -0.009185      0.007312     -0.004419
      4.71078     -8.59029    -13.22561        -0.022194      0.003638     -0.011067
      4.71078     -2.86343     -3.30640         0.001490      0.002842      0.004371
      7.01272    -14.31714     -9.91921         0.024009     -0.003855      0.009219
      7.01272     -8.59029      0.00000         0.016599     -0.000850     -0.012292
      7.01272    -11.45372     -4.95960        -0.011339     -0.007343     -0.027830
      7.01272    -20.04400     -9.91921         0.046132      0.003706      0.003518
      7.01272    -14.31714      0.00000         0.025445      0.009223     -0.010844
      7.01272    -17.18057     -4.95960         0.019170      0.001016      0.002860
      7.01272     -8.59029     -9.91921        -0.001520      0.017479     -0.000783
      7.01272     -2.86343      0.00000         0.019297     -0.004685     -0.000225
      7.01272     -5.72686     -4.95960         0.008803     -0.000701     -0.004743
      9.35192    -17.18057    -11.57241        -0.007533     -0.001481     -0.000200
      9.35192    -11.45372     -1.65320         0.017206      0.015087     -0.012632
      9.35192    -14.31714     -6.61281         0.000414      0.009203      0.003387
      9.35192    -22.90743    -11.57241        -0.015705      0.001975     -0.000461
      9.35192    -17.18057     -1.65320         0.006171      0.006995     -0.006143
      9.35192    -20.04400     -6.61281        -0.025206      0.001441      0.010490
      9.35192    -11.45372    -11.57241         0.027276      0.003055      0.015149
      9.35192     -5.72686     -1.65320        -0.006533      0.015865      0.008780
      9.35192     -8.59029     -6.61281         0.023045     -0.025585      0.001911
     11.69112    -20.04400    -13.22561        -0.013950      0.015265     -0.006191
     11.69112    -14.31714     -3.30640        -0.002486      0.023537     -0.003525
     11.69112    -17.18057     -8.26601         0.028219      0.026939      0.015554
     11.69112     -8.59029    -13.22561        -0.023343      0.000733     -0.008093
     11.69112     -2.86343     -3.30640        -0.018751     -0.007247     -0.002838
     11.69112     -5.72686     -8.26601         0.015938     -0.009519      0.006198
     11.69112    -14.31714    -13.22561        -0.001333      0.014330     -0.001625
     11.69112     -8.59029     -3.30640        -0.056478      0.040362      0.034227
     11.69112    -11.45372     -8.26601        -0.001978      0.002834      0.036208
     13.99306    -14.31714      0.00000         0.009601     -0.012351      0.004016
     13.99306    -17.18057     -4.95960         0.022313      0.005656     -0.000317
     13.99306    -20.04400     -9.91921        -0.004659      0.007286     -0.027347
     13.99306     -2.86343      0.00000         0.005652      0.002756     -0.029672
     13.99306     -5.72686     -4.95960         0.027334     -0.039511     -0.016761
     13.99306     -8.59029     -9.91921        -0.046357      0.006200     -0.030687
     13.99306     -8.59029      0.00000        -0.021286      0.007561      0.033546
     13.99306    -11.45372     -4.95960         0.065512      0.037021     -0.061432
     13.99306    -14.31714     -9.91921         0.007252      0.002574     -0.010183
     16.34180    -17.18057     -1.65320        -0.012913      0.009553     -0.014990
     16.34180    -20.04400     -6.61281        -0.006258     -0.020390     -0.003256
     16.34180    -22.90743    -11.57241        -0.002816     -0.024534      0.017042
     16.34180     -5.72686     -1.65320        -0.003825     -0.013784     -0.031590
     16.34180     -8.59029     -6.61281        -4.265520      9.238267      0.050927
     16.34180    -11.45372    -11.57241         0.033915     -0.010875     -0.024335
     16.34180    -11.45372     -1.65320        -0.004485      0.019429      0.026254
     16.34180    -14.31714     -6.61281         0.057879      0.084508     -0.007107
     16.34180    -17.18057    -11.57241        -0.004193      0.018347      0.008761
      2.36204    -10.02200     -4.13300         0.027921      0.000000     -0.028906
      2.36204    -12.88543     -9.09261         0.001630     -0.010059     -0.002347
      2.36204    -15.74886    -14.05221         0.005672     -0.004431     -0.008893
      2.36204    -15.74886     -4.13300         0.000212      0.011870     -0.015797
      2.36204    -18.61229     -9.09261         0.009142      0.000000      0.021378
      2.36204    -21.47572    -14.05221         0.005672      0.004431     -0.008893
      2.36204     -4.29514     -4.13300         0.000212     -0.011870     -0.015797
      2.36204     -7.15857     -9.09261         0.001630      0.010059     -0.002347
      2.36204    -10.02200    -14.05221        -0.003949      0.000000      0.009442
      4.71078    -12.88543     -5.78621         0.007685     -0.000361     -0.004715
      4.71078    -15.74886    -10.74581        -0.019066      0.006233     -0.004917
      4.71078    -10.02200     -0.82660        -0.032671      0.000000      0.008259
      4.71078    -18.61229     -5.78621        -0.021369      0.000000      0.011356
      4.71078    -21.47572    -10.74581        -0.019066     -0.006233     -0.004917
      4.71078    -15.74886     -0.82660        -0.017621     -0.004694     -0.005714
      4.71078     -7.15857     -5.78621         0.007685      0.000361     -0.004715
      4.71078    -10.02200    -10.74581         0.001962      0.000000     -0.008584
      4.71078     -4.29514     -0.82660        -0.017621      0.004694     -0.005714
      7.01272    -15.74886     -7.43941         0.023716     -0.006438     -0.007936
      7.01272    -18.61229    -12.39901         0.014344      0.000000      0.025886
      7.01272    -12.88543     -2.47980         0.018341      0.016890      0.014071
      7.01272    -21.47571     -7.43941         0.023716      0.006438     -0.007936
      7.01272    -24.33914    -12.39901         0.015385      0.003461      0.003857
      7.01272    -18.61228     -2.47980         0.000351      0.000000      0.020246
      7.01272    -10.02200     -7.43941        -0.006454      0.000000      0.028525
      7.01272    -12.88543    -12.39901         0.015385     -0.003461      0.003857
      7.01272     -7.15857     -2.47980         0.018341     -0.016890      0.014071
      9.35192    -18.61229     -9.09261        -0.044459      0.000000     -0.019642
      9.35192    -21.47572    -14.05221         0.002516      0.002442      0.002002
      9.35192    -15.74886     -4.13300        -0.015315     -0.009835      0.009397
      9.35192     -7.15857     -9.09261        -0.003626      0.005514     -0.005380
      9.35192    -10.02200    -14.05221         0.015817      0.000000     -0.020244
      9.35192     -4.29514     -4.13300        -0.015315      0.009835      0.009397
      9.35192    -12.88543     -9.09261        -0.003626     -0.005514     -0.005380
      9.35192    -15.74886    -14.05221         0.002516     -0.002442      0.002002
      9.35192    -10.02200     -4.13300        -0.036630      0.000000     -0.012340
     11.69112    -21.47572    -10.74581        -0.000626      0.007007      0.007283
     11.69112    -15.74886     -0.82660        -0.024384     -0.011540     -0.013989
     11.69112    -18.61229     -5.78621        -0.015430      0.000000      0.017601
     11.69112    -10.02200    -10.74581        -0.010965      0.000000     -0.032115
     11.69112     -4.29514     -0.82660        -0.024384      0.011540     -0.013989
     11.69112     -7.15857     -5.78621        -0.008276     -0.015028     -0.001634
     11.69112    -15.74886    -10.74581        -0.000626     -0.007007      0.007283
     11.69112    -10.02200     -0.82660        -0.003742      0.000000     -0.023407
     11.69112    -12.88543     -5.78621        -0.008276      0.015028     -0.001634
     13.99306    -24.33914    -12.39901        -0.006475      0.003592     -0.000950
     13.99306    -18.61228     -2.47980        -0.004535      0.000000      0.003457
     13.99306    -21.47571     -7.43941        -0.015773      0.038855     -0.012402
     13.99306    -12.88543    -12.39901        -0.006475     -0.003592     -0.000950
     13.99306     -7.15857     -2.47980         0.024687      0.009396     -0.006328
     13.99306    -10.02200     -7.43941        -0.302774      0.000000     -0.094798
     13.99306    -18.61229    -12.39901        -0.027793      0.000000      0.024322
     13.99306    -12.88543     -2.47980         0.024687     -0.009396     -0.006328
     13.99306    -15.74886     -7.43941        -0.015773     -0.038855     -0.012402
     16.34180    -10.02200    -14.05221        -0.007507      0.000000     -0.028111
     16.34180     -4.29514     -4.13300         0.005774      0.007030     -0.011112
     16.34180     -7.15857     -9.09261        -0.031722      0.123477     -0.085963
     16.34180    -15.74886    -14.05221        -0.006785     -0.014992     -0.000870
     16.34180    -10.02200     -4.13300         0.076505      0.000000     -0.082109
     16.34180    -12.88543     -9.09261        -0.031722     -0.123477     -0.085963
     16.34180    -21.47572    -14.05221        -0.006785      0.014992     -0.000870
     16.34180    -15.74886     -4.13300         0.005774     -0.007030     -0.011112
     16.34180    -18.61229     -9.09261        -0.013583      0.000000     -0.011201
     17.04000    -10.02200     -7.16000         4.222547     -0.000000    -30.468408
     17.04000    -10.02200     -6.06300         4.398040      0.000000     30.753460
 -----------------------------------------------------------------------------------
    total drift:                                0.246015     -0.001071     -0.001835


--------------------------------------------------------------------------------------------------------



  FREE ENERGIE OF THE ION-ELECTRON SYSTEM (eV)
  ---------------------------------------------------
  free  energy   TOTEN  =      -928.77562694 eV

  energy  without entropy=     -928.70189359  energy(sigma->0) =     -928.73876026
 


--------------------------------------------------------------------------------------------------------


    POTLOK:  cpu time    1.0061: real time    1.0181


--------------------------------------------------------------------------------------------------------


     LOOP+:  cpu time  727.4029: real time  817.1589
    4ORBIT:  cpu time    0.0000: real time    0.0000

 total amount of memory used by VASP MPI-rank0   652140. kBytes
=======================================================================

   base      :      30000. kBytes
   nonlr-proj:      89919. kBytes
   fftplans  :      40601. kBytes
   grid      :      95147. kBytes
   one-center:       3950. kBytes
   wavefun   :     392523. kBytes
 
  
  
 General timing and accounting informations for this job:
 ========================================================
  
                  Total CPU time used (sec):      744.854
                            User time (sec):      631.560
                          System time (sec):      113.295
                         Elapsed time (sec):      838.220
  
                   Maximum memory used (kb):     1003812.
                   Average memory used (kb):           0.
  
                          Minor page faults:     26321554
                          Major page faults:           50
                 Voluntary context switches:        19141
