 250 250   0   0
  0.1219450E+02  0.1450000E-08  0.1450000E-08  0.1450000E-08  0.5000000E-15
  1.000000000000000E-004
  CAR 
 NiAl                                    
     11.85295208     -4.99693778  301      6.75726892      1.00000000
     -4.997  0.0000E+00  0.0000E+00
     -4.941  0.0000E+00  0.0000E+00
     -4.885  0.0000E+00  0.0000E+00
     -4.828  0.0000E+00  0.0000E+00
     -4.772  0.0000E+00  0.0000E+00
     -4.716  0.0000E+00  0.0000E+00
     -4.660  0.0000E+00  0.0000E+00
     -4.604  0.0000E+00  0.0000E+00
     -4.548  0.0000E+00  0.0000E+00
     -4.491  0.3929E-12  0.2207E-13
     -4.435  0.1694E-07  0.9516E-09
     -4.379  0.6256E-04  0.3515E-05
     -4.323  0.2071E-01  0.1167E-02
     -4.267  0.6737E+00  0.3901E-01
     -4.211  0.2503E+01  0.1796E+00
     -4.154  0.1228E+01  0.2485E+00
     -4.098  0.2310E+01  0.3783E+00
     -4.042  0.1339E+02  0.1131E+01
     -3.986  0.1011E+02  0.1699E+01
     -3.930  0.3267E+01  0.1882E+01
     -3.874  0.2190E+02  0.3112E+01
     -3.817  0.2541E+02  0.4539E+01
     -3.761  0.4489E+01  0.4791E+01
     -3.705  0.1129E+02  0.5425E+01
     -3.649  0.1927E+02  0.6508E+01
     -3.593  0.4480E+01  0.6760E+01
     -3.537  0.6081E+01  0.7101E+01
     -3.480  0.1527E+02  0.7959E+01
     -3.424  0.5548E+01  0.8271E+01
     -3.368  0.1734E+02  0.9245E+01
     -3.312  0.6045E+02  0.1264E+02
     -3.256  0.2750E+02  0.1418E+02
     -3.200  0.1378E+02  0.1496E+02
     -3.143  0.5757E+02  0.1819E+02
     -3.087  0.3417E+02  0.2011E+02
     -3.031  0.2452E+01  0.2025E+02
     -2.975  0.1829E-01  0.2025E+02
     -2.919  0.4663E-01  0.2025E+02
     -2.863  0.3244E+01  0.2043E+02
     -2.806  0.2442E+02  0.2181E+02
     -2.750  0.2305E+02  0.2310E+02
     -2.694  0.8801E+01  0.2360E+02
     -2.638  0.5553E+02  0.2671E+02
     -2.582  0.6279E+02  0.3024E+02
     -2.526  0.1212E+02  0.3092E+02
     -2.469  0.3802E+02  0.3306E+02
     -2.413  0.5534E+02  0.3617E+02
     -2.357  0.1311E+02  0.3690E+02
     -2.301  0.3675E+02  0.3897E+02
     -2.245  0.5620E+02  0.4212E+02
     -2.189  0.1224E+02  0.4281E+02
     -2.132  0.1388E+02  0.4359E+02
     -2.076  0.1774E+02  0.4459E+02
     -2.020  0.5972E+01  0.4492E+02
     -1.964  0.3749E+02  0.4703E+02
     -1.908  0.5568E+02  0.5015E+02
     -1.852  0.1785E+02  0.5116E+02
     -1.795  0.8061E+02  0.5568E+02
     -1.739  0.1074E+03  0.6171E+02
     -1.683  0.1809E+02  0.6273E+02
     -1.627  0.3359E+00  0.6275E+02
     -1.571  0.3383E-02  0.6275E+02
     -1.515  0.4518E+00  0.6278E+02
     -1.458  0.7497E+01  0.6320E+02
     -1.402  0.1511E+02  0.6405E+02
     -1.346  0.1699E+02  0.6500E+02
     -1.290  0.9264E+02  0.7020E+02
     -1.234  0.9393E+02  0.7548E+02
     -1.178  0.2617E+02  0.7695E+02
     -1.121  0.7592E+02  0.8121E+02
     -1.065  0.6534E+02  0.8488E+02
     -1.009  0.2960E+02  0.8654E+02
     -0.953  0.6131E+02  0.8999E+02
     -0.897  0.2230E+02  0.9124E+02
     -0.841  0.2035E+02  0.9238E+02
     -0.784  0.6106E+02  0.9581E+02
     -0.728  0.2918E+02  0.9745E+02
     -0.672  0.6839E+02  0.1013E+03
     -0.616  0.1162E+03  0.1078E+03
     -0.560  0.4149E+02  0.1102E+03
     -0.504  0.6068E+02  0.1136E+03
     -0.447  0.2848E+02  0.1152E+03
     -0.391  0.1609E+01  0.1152E+03
     -0.335  0.4892E-01  0.1153E+03
     -0.279  0.3931E+01  0.1155E+03
     -0.223  0.4115E+02  0.1178E+03
     -0.167  0.5388E+02  0.1208E+03
     -0.110  0.3155E+02  0.1226E+03
     -0.054  0.6947E+02  0.1265E+03
      0.002  0.5009E+02  0.1293E+03
      0.058  0.1250E+03  0.1363E+03
      0.114  0.1278E+03  0.1435E+03
      0.170  0.5833E+02  0.1468E+03
      0.227  0.3356E+02  0.1487E+03
      0.283  0.3225E+02  0.1505E+03
      0.339  0.4005E+02  0.1527E+03
      0.395  0.4381E+02  0.1552E+03
      0.451  0.1471E+03  0.1634E+03
      0.507  0.1871E+03  0.1740E+03
      0.564  0.3144E+02  0.1757E+03
      0.620  0.5880E+00  0.1757E+03
      0.676  0.2252E+00  0.1758E+03
      0.732  0.1152E+02  0.1764E+03
      0.788  0.7801E+02  0.1808E+03
      0.844  0.1032E+03  0.1866E+03
      0.901  0.9577E+02  0.1920E+03
      0.957  0.1436E+03  0.2000E+03
      1.013  0.1030E+03  0.2058E+03
      1.069  0.7312E+02  0.2099E+03
      1.125  0.3096E+02  0.2117E+03
      1.181  0.2185E+02  0.2129E+03
      1.238  0.1112E+03  0.2191E+03
      1.294  0.9365E+02  0.2244E+03
      1.350  0.4185E+02  0.2268E+03
      1.406  0.6002E+02  0.2301E+03
      1.462  0.7496E+02  0.2343E+03
      1.518  0.3448E+02  0.2363E+03
      1.575  0.2922E+02  0.2379E+03
      1.631  0.8395E+02  0.2426E+03
      1.687  0.2179E+03  0.2549E+03
      1.743  0.1622E+03  0.2640E+03
      1.799  0.1292E+03  0.2712E+03
      1.855  0.7411E+02  0.2754E+03
      1.912  0.2027E+02  0.2765E+03
      1.968  0.1971E+02  0.2776E+03
      2.024  0.7422E+02  0.2818E+03
      2.080  0.1196E+03  0.2885E+03
      2.136  0.1711E+03  0.2981E+03
      2.192  0.1572E+03  0.3070E+03
      2.249  0.4413E+02  0.3094E+03
      2.305  0.1582E+02  0.3103E+03
      2.361  0.8041E+01  0.3108E+03
      2.417  0.5854E+02  0.3141E+03
      2.473  0.1231E+03  0.3210E+03
      2.529  0.8420E+02  0.3257E+03
      2.586  0.1248E+03  0.3327E+03
      2.642  0.1497E+03  0.3411E+03
      2.698  0.6277E+02  0.3446E+03
      2.754  0.7780E+02  0.3490E+03
      2.810  0.1978E+03  0.3601E+03
      2.866  0.2938E+03  0.3766E+03
      2.923  0.3412E+03  0.3958E+03
      2.979  0.2255E+03  0.4085E+03
      3.035  0.1714E+03  0.4181E+03
      3.091  0.2787E+03  0.4337E+03
      3.147  0.2700E+03  0.4489E+03
      3.203  0.1925E+03  0.4597E+03
      3.260  0.1420E+03  0.4677E+03
      3.316  0.1369E+03  0.4754E+03
      3.372  0.2458E+03  0.4892E+03
      3.428  0.2294E+03  0.5021E+03
      3.484  0.1838E+03  0.5124E+03
      3.540  0.1730E+03  0.5221E+03
      3.597  0.2392E+03  0.5356E+03
      3.653  0.4843E+03  0.5628E+03
      3.709  0.5155E+03  0.5917E+03
      3.765  0.3619E+03  0.6120E+03
      3.821  0.3213E+03  0.6301E+03
      3.877  0.4794E+03  0.6570E+03
      3.934  0.4403E+03  0.6817E+03
      3.990  0.2820E+03  0.6976E+03
      4.046  0.2623E+03  0.7123E+03
      4.102  0.3465E+03  0.7318E+03
      4.158  0.2502E+03  0.7458E+03
      4.214  0.2282E+03  0.7586E+03
      4.271  0.2659E+03  0.7736E+03
      4.327  0.3128E+03  0.7911E+03
      4.383  0.4022E+03  0.8137E+03
      4.439  0.5662E+03  0.8455E+03
      4.495  0.6266E+03  0.8807E+03
      4.551  0.5912E+03  0.9139E+03
      4.607  0.4116E+03  0.9371E+03
      4.664  0.5427E+03  0.9675E+03
      4.720  0.7580E+03  0.1010E+04
      4.776  0.1039E+04  0.1068E+04
      4.832  0.1294E+04  0.1141E+04
      4.888  0.1019E+04  0.1198E+04
      4.944  0.7810E+03  0.1242E+04
      5.001  0.7422E+03  0.1284E+04
      5.057  0.4546E+03  0.1309E+04
      5.113  0.5428E+03  0.1340E+04
      5.169  0.6199E+03  0.1375E+04
      5.225  0.5350E+03  0.1405E+04
      5.281  0.3927E+03  0.1427E+04
      5.338  0.2245E+03  0.1439E+04
      5.394  0.1543E+03  0.1448E+04
      5.450  0.1174E+03  0.1455E+04
      5.506  0.1034E+03  0.1461E+04
      5.562  0.1006E+03  0.1466E+04
      5.618  0.6341E+02  0.1470E+04
      5.675  0.2280E+02  0.1471E+04
      5.731  0.6757E+02  0.1475E+04
      5.787  0.9027E+02  0.1480E+04
      5.843  0.8685E+02  0.1485E+04
      5.899  0.7601E+02  0.1489E+04
      5.955  0.9323E+02  0.1494E+04
      6.012  0.1012E+03  0.1500E+04
      6.068  0.2356E+03  0.1513E+04
      6.124  0.3369E+03  0.1532E+04
      6.180  0.1874E+03  0.1543E+04
      6.236  0.1402E+03  0.1551E+04
      6.292  0.2320E+03  0.1564E+04
      6.349  0.2394E+03  0.1577E+04
      6.405  0.1916E+03  0.1588E+04
      6.461  0.1746E+03  0.1598E+04
      6.517  0.1422E+03  0.1606E+04
      6.573  0.1026E+03  0.1611E+04
      6.629  0.1075E+03  0.1617E+04
      6.686  0.5082E+02  0.1620E+04
      6.742  0.6231E+02  0.1624E+04
      6.798  0.1017E+03  0.1629E+04
      6.854  0.1253E+03  0.1636E+04
      6.910  0.5125E+02  0.1639E+04
      6.966  0.6536E+02  0.1643E+04
      7.023  0.8408E+02  0.1648E+04
      7.079  0.7116E+02  0.1652E+04
      7.135  0.8373E+02  0.1656E+04
      7.191  0.7789E+02  0.1661E+04
      7.247  0.9629E+02  0.1666E+04
      7.303  0.9363E+02  0.1671E+04
      7.360  0.1664E+03  0.1681E+04
      7.416  0.1476E+03  0.1689E+04
      7.472  0.3395E+02  0.1691E+04
      7.528  0.3705E+02  0.1693E+04
      7.584  0.5755E+02  0.1696E+04
      7.640  0.4669E+02  0.1699E+04
      7.697  0.8639E+01  0.1699E+04
      7.753  0.3778E+02  0.1702E+04
      7.809  0.5757E+02  0.1705E+04
      7.865  0.4251E+02  0.1707E+04
      7.921  0.5879E+02  0.1710E+04
      7.977  0.1397E+02  0.1711E+04
      8.034  0.1065E+02  0.1712E+04
      8.090  0.3059E+02  0.1714E+04
      8.146  0.1260E+02  0.1714E+04
      8.202  0.1054E+02  0.1715E+04
      8.258  0.2195E+02  0.1716E+04
      8.314  0.2009E+02  0.1717E+04
      8.371  0.1379E+02  0.1718E+04
      8.427  0.1993E+02  0.1719E+04
      8.483  0.2828E+02  0.1721E+04
      8.539  0.2404E+02  0.1722E+04
      8.595  0.8891E+02  0.1727E+04
      8.651  0.9061E+02  0.1732E+04
      8.708  0.1267E+03  0.1739E+04
      8.764  0.2086E+03  0.1751E+04
      8.820  0.1786E+03  0.1761E+04
      8.876  0.9633E+02  0.1766E+04
      8.932  0.1176E+03  0.1773E+04
      8.988  0.6566E+02  0.1777E+04
      9.045  0.6633E+02  0.1780E+04
      9.101  0.1329E+03  0.1788E+04
      9.157  0.1054E+03  0.1794E+04
      9.213  0.9953E+02  0.1799E+04
      9.269  0.9862E+02  0.1805E+04
      9.325  0.4375E+02  0.1807E+04
      9.382  0.4296E+02  0.1810E+04
      9.438  0.6057E+02  0.1813E+04
      9.494  0.1120E+03  0.1820E+04
      9.550  0.2045E+03  0.1831E+04
      9.606  0.2472E+03  0.1845E+04
      9.662  0.6313E+02  0.1848E+04
      9.719  0.2241E+02  0.1850E+04
      9.775  0.9098E+02  0.1855E+04
      9.831  0.2000E+03  0.1866E+04
      9.887  0.1914E+03  0.1877E+04
      9.943  0.9013E+02  0.1882E+04
      9.999  0.1997E+02  0.1883E+04
     10.056  0.1372E+01  0.1883E+04
     10.112  0.2546E+02  0.1884E+04
     10.168  0.1178E+03  0.1891E+04
     10.224  0.1216E+03  0.1898E+04
     10.280  0.1670E+03  0.1907E+04
     10.336  0.1149E+03  0.1914E+04
     10.393  0.3235E+02  0.1916E+04
     10.449  0.5582E+02  0.1919E+04
     10.505  0.8210E+02  0.1923E+04
     10.561  0.9970E+02  0.1929E+04
     10.617  0.9675E+02  0.1934E+04
     10.673  0.9457E+02  0.1940E+04
     10.730  0.8467E+02  0.1944E+04
     10.786  0.7110E+02  0.1948E+04
     10.842  0.3422E+02  0.1950E+04
     10.898  0.3178E+02  0.1952E+04
     10.954  0.4147E+02  0.1954E+04
     11.010  0.1336E+02  0.1955E+04
     11.067  0.4885E+01  0.1955E+04
     11.123  0.7540E+01  0.1956E+04
     11.179  0.2021E+01  0.1956E+04
     11.235  0.6213E-01  0.1956E+04
     11.291  0.1877E-03  0.1956E+04
     11.347  0.5083E-07  0.1956E+04
     11.404  0.1179E-11  0.1956E+04
     11.460  0.0000E+00  0.1956E+04
     11.516  0.0000E+00  0.1956E+04
     11.572  0.0000E+00  0.1956E+04
     11.628  0.0000E+00  0.1956E+04
     11.684  0.0000E+00  0.1956E+04
     11.741  0.0000E+00  0.1956E+04
     11.797  0.0000E+00  0.1956E+04
     11.853  0.0000E+00  0.1956E+04
