       N       E                     dE             d eps       ncg     rms          rms(c)
DAV:   1     0.902912337364E+04    0.90291E+04   -0.52394E+05  7956   0.109E+03
DAV:   2    -0.494681348381E+03   -0.95238E+04   -0.90917E+04  8028   0.366E+02
DAV:   3    -0.141705607111E+04   -0.92237E+03   -0.83068E+03 12540   0.906E+01
DAV:   4    -0.149075072319E+04   -0.73695E+02   -0.69688E+02 11292   0.328E+01
DAV:   5    -0.149589184425E+04   -0.51411E+01   -0.50254E+01 14088   0.679E+00    0.133E+02
DAV:   6    -0.173939993095E+04   -0.24351E+03   -0.58419E+03  9480   0.141E+02    0.175E+02
DAV:   7    -0.130910947225E+04    0.43029E+03   -0.15301E+03  8976   0.875E+01    0.250E+01
DAV:   8    -0.131168898879E+04   -0.25795E+01   -0.23471E+02 11052   0.175E+01    0.193E+01
DAV:   9    -0.130841672725E+04    0.32723E+01   -0.30361E+01  8820   0.114E+01    0.679E+00
DAV:  10    -0.130823634295E+04    0.18038E+00   -0.20877E+00  9900   0.281E+00    0.312E+00
DAV:  11    -0.130824189996E+04   -0.55570E-02   -0.22934E-01 11280   0.672E-01    0.186E+00
DAV:  12    -0.130822698384E+04    0.14916E-01   -0.64070E-02  9600   0.493E-01    0.345E-01
DAV:  13    -0.130822725381E+04   -0.26998E-03   -0.69573E-03 11760   0.105E-01    0.163E-01
DAV:  14    -0.130822708516E+04    0.16866E-03   -0.52306E-04 12096   0.311E-02    0.366E-02
DAV:  15    -0.130822708527E+04   -0.11225E-06   -0.88019E-05 11136   0.112E-02    0.108E-02
DAV:  16    -0.130822708575E+04   -0.48487E-06   -0.32136E-06  5004   0.302E-03
   1 F= -.13082271E+04 E0= -.13081722E+04  d E =-.109844E+00
