 vasp.5.4.4.18Apr17-6-g9f103f2a35 (build May 02 2017 15:33:50) complex          
  
 executed on Intel-16.0.3.210-OMP date 2018.07.05  23:14:48
 running on    6 total cores
 distrk:  each k-point on    6 cores,    1 groups
 distr:  one band on NCORES_PER_BAND=   1 cores,    6 groups


--------------------------------------------------------------------------------------------------------


 INCAR:
 POTCAR:    PAW Ni_GW 31Mar2010                   
 POTCAR:    PAW Al_GW 19Mar2012                   

 ----------------------------------------------------------------------------- 
|                                                                             |
|           W    W    AA    RRRRR   N    N  II  N    N   GGGG   !!!           |
|           W    W   A  A   R    R  NN   N  II  NN   N  G    G  !!!           |
|           W    W  A    A  R    R  N N  N  II  N N  N  G       !!!           |
|           W WW W  AAAAAA  RRRRR   N  N N  II  N  N N  G  GGG   !            |
|           WW  WW  A    A  R   R   N   NN  II  N   NN  G    G                |
|           W    W  A    A  R    R  N    N  II  N    N   GGGG   !!!           |
|                                                                             |
|      For optimal performance we recommend to set                            |
|        NCORE= 4 - approx SQRT( number of cores)                             |
|      NCORE specifies how many cores store one orbital (NPAR=cpu/NCORE).     |
|      This setting can  greatly improve the performance of VASP for DFT.     |
|      The default,   NCORE=1            might be grossly inefficient         |
|      on modern multi-core architectures or massively parallel machines.     |
|      Do your own testing !!!!                                               |
|      Unfortunately you need to use the default for GW and RPA calculations. |
|      (for HF NCORE is supported but not extensively tested yet)             |
|                                                                             |
 ----------------------------------------------------------------------------- 

 POTCAR:    PAW Ni_GW 31Mar2010                   
   VRHFIN =Ni:                                                                  
   LEXCH  = PE                                                                  
   EATOM  =  1077.6740 eV,   79.2068 Ry                                         
                                                                                
   TITEL  = PAW Ni_GW 31Mar2010                                                 
   LULTRA =        F    use ultrasoft PP ?                                      
   IUNSCR =        1    unscreen: 0-lin 1-nonlin 2-no                           
   RPACOR =    1.800    partial core radius                                     
   POMASS =   58.690; ZVAL   =   10.000    mass and valenz                      
   RCORE  =    2.300    outmost cutoff radius                                   
   RWIGS  =    2.430; RWIGS  =    1.286    wigner-seitz radius (au A)           
   ENMAX  =  357.323; ENMIN  =  267.992 eV                                      
   RCLOC  =    1.681    cutoff for local pot                                    
   LCOR   =        T    correct aug charges                                     
   LPAW   =        T    paw PP                                                  
   EAUG   =  802.310                                                            
   DEXC   =    0.000                                                            
   RMAX   =    2.357    core radius for proj-oper                               
   RAUG   =    1.300    factor for augmentation sphere                          
   RDEP   =    2.390    radius for radial grids                                 
   RDEPT  =    1.800    core radius for aug-charge                              
                                                                                
   Atomic configuration                                                         
    9 entries                                                                   
     n  l   j            E        occ.                                          
     1  0  0.50     -8206.4253   2.0000                                         
     2  0  0.50      -976.1748   2.0000                                         
     2  1  1.50      -839.0571   6.0000                                         
     3  0  0.50      -105.9991   2.0000                                         
     3  1  1.50       -66.4603   6.0000                                         
     3  2  2.50        -4.6458   9.0000                                         
     4  0  0.50        -4.4926   1.0000                                         
     4  1  1.50        -4.0817   0.0000                                         
     4  3  2.50        -1.3606   0.0000                                         
   Description                                                                  
     l       E           TYP  RCUT    TYP  RCUT                                 
     2     -4.6457935     23  2.000                                             
     2     -6.0063761     23  2.000                                             
     0     -4.4925599     23  2.300                                             
     0     54.4233040     23  2.300                                             
     1     -2.7211652     23  2.300                                             
     1     68.0291300     23  2.300                                             
     3     27.2116520     23  2.000                                             
  local pseudopotential read in
  partial core-charges read in
  partial kinetic energy density read in
  kinetic energy density of atom read in
  atomic valenz-charges read in
  non local Contribution for L=           2  read in
    real space projection operators read in
  non local Contribution for L=           2  read in
    real space projection operators read in
  non local Contribution for L=           0  read in
    real space projection operators read in
  non local Contribution for L=           0  read in
    real space projection operators read in
  non local Contribution for L=           1  read in
    real space projection operators read in
  non local Contribution for L=           1  read in
    real space projection operators read in
  non local Contribution for L=           3  read in
    real space projection operators read in
    PAW grid and wavefunctions read in
 
   number of l-projection  operators is LMAX  =           7
   number of lm-projection operators is LMMAX =          25
 
 POTCAR:    PAW Al_GW 19Mar2012                   
   VRHFIN =Al: s2p1                                                             
   LEXCH  = PE                                                                  
   EATOM  =    53.5387 eV,    3.9350 Ry                                         
                                                                                
   TITEL  = PAW Al_GW 19Mar2012                                                 
   LULTRA =        F    use ultrasoft PP ?                                      
   IUNSCR =        1    unscreen: 0-lin 1-nonlin 2-no                           
   RPACOR =    1.500    partial core radius                                     
   POMASS =   26.982; ZVAL   =    3.000    mass and valenz                      
   RCORE  =    2.000    outmost cutoff radius                                   
   RWIGS  =    2.000; RWIGS  =    1.058    wigner-seitz radius (au A)           
   ENMAX  =  240.300; ENMIN  =  180.225 eV                                      
   ICORE  =        3    local potential                                         
   LCOR   =        T    correct aug charges                                     
   LPAW   =        T    paw PP                                                  
   EAUG   =  482.059                                                            
   DEXC   =    0.000                                                            
   RMAX   =    2.051    core radius for proj-oper                               
   RAUG   =    1.300    factor for augmentation sphere                          
   RDEP   =    2.096    radius for radial grids                                 
   RDEPT  =    1.856    core radius for aug-charge                              
                                                                                
   Atomic configuration                                                         
    7 entries                                                                   
     n  l   j            E        occ.                                          
     1  0  0.50     -1511.1048   2.0000                                         
     2  0  0.50      -108.1629   2.0000                                         
     2  1  1.50       -69.6402   6.0000                                         
     3  0  0.50        -7.7528   2.0000                                         
     3  1  1.50        -2.7121   1.0000                                         
     3  2  2.50        -2.7212   0.0000                                         
     4  3  2.50        -2.7212   0.0000                                         
   Description                                                                  
     l       E           TYP  RCUT    TYP  RCUT                                 
     0     -7.7528455     23  1.900                                             
     0     68.0291300     23  1.900                                             
     1     -2.7120682     23  1.900                                             
     1     68.0291300     23  1.900                                             
     2     -1.3605826     23  1.900                                             
     2     81.6349560     23  1.900                                             
     3     74.8320430     23  2.000                                             
  local pseudopotential read in
  partial core-charges read in
  partial kinetic energy density read in
  kinetic energy density of atom read in
  atomic valenz-charges read in
  non local Contribution for L=           0  read in
    real space projection operators read in
  non local Contribution for L=           0  read in
    real space projection operators read in
  non local Contribution for L=           1  read in
    real space projection operators read in
  non local Contribution for L=           1  read in
    real space projection operators read in
  non local Contribution for L=           2  read in
    real space projection operators read in
  non local Contribution for L=           2  read in
    real space projection operators read in
    PAW grid and wavefunctions read in
 
   number of l-projection  operators is LMAX  =           6
   number of lm-projection operators is LMMAX =          18
 
 Optimization of the real space projectors (new method)

 maximal supplied QI-value         = 16.25
 optimisation between [QCUT,QGAM] = [  8.78, 17.71] = [ 21.57, 87.87] Ry 
 Optimized for a Real-space Cutoff    1.55 Angstroem

   l    n(q)    QCUT    max X(q) W(low)/X(q) W(high)/X(q)  e(spline) 
   2      7     8.776    90.918    0.49E-03    0.31E-03    0.19E-06
   2      7     8.776    88.873    0.50E-03    0.32E-03    0.19E-06
   0      8     8.776    17.118    0.77E-04    0.31E-04    0.38E-07
   0      8     8.776     8.062    0.82E-04    0.33E-04    0.42E-07
   1      8     8.776     4.910    0.92E-04    0.24E-03    0.96E-07
   1      8     8.776     3.344    0.63E-04    0.17E-03    0.76E-07
   3      7     8.776     5.513    0.45E-03    0.35E-03    0.68E-07
 Optimization of the real space projectors (new method)

 maximal supplied QI-value         = 18.90
 optimisation between [QCUT,QGAM] = [  8.69, 17.57] = [ 21.16, 86.49] Ry 
 Optimized for a Real-space Cutoff    1.59 Angstroem

   l    n(q)    QCUT    max X(q) W(low)/X(q) W(high)/X(q)  e(spline) 
   0      8     8.693    11.519    0.12E-03    0.31E-04    0.21E-06
   0      8     8.693     5.834    0.89E-04    0.32E-04    0.16E-06
   1      8     8.693    10.132    0.25E-03    0.39E-03    0.25E-06
   1      8     8.693     3.004    0.16E-03    0.27E-03    0.22E-06
   2      7     8.693     3.169    0.39E-03    0.93E-03    0.44E-06
   2      7     8.693     1.605    0.70E-04    0.91E-04    0.19E-06
  PAW Ni_GW 31Mar2010                   :
 energy of atom  1       EATOM=-1077.6740
 kinetic energy error for atom=    0.3911 (will be added to EATOM!!)
  PAW Al_GW 19Mar2012                   :
 energy of atom  2       EATOM=  -53.5387
 kinetic energy error for atom=    0.0011 (will be added to EATOM!!)
 
 
 POSCAR: New structure                           
  positions in cartesian coordinates
  No initial velocities read in
 exchange correlation table for  LEXCH =        8
   RHO(1)=    0.500       N(1)  =     2000
   RHO(2)=  100.500       N(2)  =     4000
 


--------------------------------------------------------------------------------------------------------


 ion  position               nearest neighbor table
   1  0.000  0.000  0.000- 126 2.51 130 2.51 146 2.51 150 2.51 226 2.51 230 2.51 246 2.51 250 2.51
                             6 2.90  21 2.90  26 2.90 101 2.90   2 2.90   5 2.90
   2  0.000  0.000  0.200- 127 2.51 147 2.51 227 2.51 247 2.51 226 2.51 146 2.51 246 2.51 126 2.51
                             3 2.90  27 2.90 102 2.90   1 2.90   7 2.90  22 2.90
   3  0.000  0.000  0.400- 127 2.51 128 2.51 147 2.51 148 2.51 227 2.51 228 2.51 247 2.51 248 2.51
                             2 2.90  28 2.90 103 2.90   4 2.90   8 2.90  23 2.90
   4  0.000  0.000  0.600- 128 2.51 129 2.51 148 2.51 149 2.51 228 2.51 229 2.51 248 2.51 249 2.51
                             5 2.90  29 2.90 104 2.90   3 2.90   9 2.90  24 2.90
   5  0.000  0.000  0.800- 129 2.51 149 2.51 229 2.51 249 2.51 130 2.51 230 2.51 150 2.51 250 2.51
                             4 2.90  30 2.90 105 2.90   1 2.90  10 2.90  25 2.90
   6  0.000  0.200  0.000- 131 2.51 135 2.51 231 2.51 235 2.51 226 2.51 230 2.51 126 2.51 130 2.51
                            11 2.90  31 2.90 106 2.90   7 2.90  10 2.90   1 2.90
   7  0.000  0.200  0.200- 132 2.51 232 2.51 127 2.51 227 2.51 231 2.51 131 2.51 226 2.51 126 2.51
                             8 2.90  12 2.90   2 2.90   6 2.90  32 2.90 107 2.90
   8  0.000  0.200  0.400- 132 2.51 133 2.51 232 2.51 233 2.51 227 2.51 228 2.51 127 2.51 128 2.51
                             7 2.90  13 2.90   9 2.90   3 2.90  33 2.90 108 2.90
   9  0.000  0.200  0.600- 133 2.51 134 2.51 233 2.51 234 2.51 228 2.51 229 2.51 128 2.51 129 2.51
                            10 2.90  14 2.90   4 2.90   8 2.90  34 2.90 109 2.90
  10  0.000  0.200  0.800- 134 2.51 234 2.51 135 2.51 229 2.51 129 2.51 235 2.51 130 2.51 230 2.51
                             9 2.90  15 2.90   5 2.90   6 2.90  35 2.90 110 2.90
  11  0.000  0.400  0.000- 131 2.51 135 2.51 136 2.51 140 2.51 231 2.51 235 2.51 236 2.51 240 2.51
                             6 2.90  36 2.90 111 2.90  12 2.90  15 2.90  16 2.90
  12  0.000  0.400  0.200- 132 2.51 137 2.51 232 2.51 237 2.51 231 2.51 136 2.51 236 2.51 131 2.51
                             7 2.90  13 2.90  11 2.90  17 2.90  37 2.90 112 2.90
  13  0.000  0.400  0.400- 132 2.51 133 2.51 137 2.51 138 2.51 232 2.51 233 2.51 237 2.51 238 2.51
                             8 2.90  12 2.90  14 2.90  18 2.90  38 2.90 113 2.90
  14  0.000  0.400  0.600- 133 2.51 134 2.51 138 2.51 139 2.51 233 2.51 234 2.51 238 2.51 239 2.51
                             9 2.90  15 2.90  13 2.90  19 2.90  39 2.90 114 2.90
  15  0.000  0.400  0.800- 134 2.51 139 2.51 234 2.51 239 2.51 135 2.51 235 2.51 140 2.51 240 2.51
                            10 2.90  14 2.90  11 2.90  20 2.90  40 2.90 115 2.90
  16  0.000  0.600  0.000- 136 2.51 140 2.51 141 2.51 145 2.51 236 2.51 240 2.51 241 2.51 245 2.51
                            21 2.90  41 2.90 116 2.90  17 2.90  20 2.90  11 2.90
  17  0.000  0.600  0.200- 137 2.51 142 2.51 237 2.51 242 2.51 236 2.51 141 2.51 241 2.51 136 2.51
                            18 2.90  22 2.90  12 2.90  16 2.90  42 2.90 117 2.90
  18  0.000  0.600  0.400- 137 2.51 138 2.51 142 2.51 143 2.51 237 2.51 238 2.51 242 2.51 243 2.51
                            17 2.90  23 2.90  19 2.90  13 2.90  43 2.90 118 2.90
  19  0.000  0.600  0.600- 138 2.51 139 2.51 143 2.51 144 2.51 238 2.51 239 2.51 243 2.51 244 2.51
                            20 2.90  24 2.90  14 2.90  18 2.90  44 2.90 119 2.90
  20  0.000  0.600  0.800- 139 2.51 144 2.51 239 2.51 244 2.51 140 2.51 240 2.51 145 2.51 245 2.51
                            19 2.90  25 2.90  15 2.90  16 2.90  45 2.90 120 2.90
  21  0.000  0.800  0.000- 141 2.51 145 2.51 241 2.51 245 2.51 146 2.51 150 2.51 246 2.51 250 2.51
                            16 2.90  46 2.90 121 2.90   1 2.90  22 2.90  25 2.90
  22  0.000  0.800  0.200- 142 2.51 242 2.51 147 2.51 241 2.51 141 2.51 247 2.51 246 2.51 146 2.51
                            17 2.90  23 2.90  21 2.90   2 2.90  47 2.90 122 2.90
  23  0.000  0.800  0.400- 142 2.51 143 2.51 242 2.51 243 2.51 147 2.51 148 2.51 247 2.51 248 2.51
                            18 2.90  22 2.90   3 2.90  24 2.90  48 2.90 123 2.90
  24  0.000  0.800  0.600- 143 2.51 144 2.51 243 2.51 244 2.51 148 2.51 149 2.51 248 2.51 249 2.51
                            19 2.90  25 2.90  23 2.90   4 2.90  49 2.90 124 2.90
  25  0.000  0.800  0.800- 144 2.51 244 2.51 149 2.51 145 2.51 245 2.51 249 2.51 150 2.51 250 2.51
                            20 2.90  24 2.90  21 2.90   5 2.90  50 2.90 125 2.90
  26  0.200  0.000  0.000- 151 2.51 155 2.51 171 2.51 175 2.51 126 2.51 130 2.51 146 2.51 150 2.51
                            51 2.90  46 2.90   1 2.90  27 2.90  30 2.90  31 2.90
  27  0.200  0.000  0.200- 152 2.51 172 2.51 151 2.51 127 2.51 171 2.51 147 2.51 146 2.51 126 2.51
                            28 2.90  52 2.90   2 2.90  32 2.90  47 2.90  26 2.90
  28  0.200  0.000  0.400- 152 2.51 153 2.51 172 2.51 173 2.51 127 2.51 128 2.51 147 2.51 148 2.51
                            27 2.90  53 2.90  29 2.90  33 2.90  48 2.90   3 2.90
  29  0.200  0.000  0.600- 153 2.51 154 2.51 173 2.51 174 2.51 128 2.51 129 2.51 148 2.51 149 2.51
                            30 2.90  54 2.90   4 2.90  34 2.90  49 2.90  28 2.90
  30  0.200  0.000  0.800- 154 2.51 174 2.51 129 2.51 155 2.51 149 2.51 175 2.51 130 2.51 150 2.51
                            29 2.90  55 2.90   5 2.90  35 2.90  50 2.90  26 2.90
  31  0.200  0.200  0.000- 156 2.51 160 2.51 151 2.51 155 2.51 131 2.51 135 2.51 126 2.51 130 2.51
                            36 2.90  56 2.90  32 2.90  35 2.90   6 2.90  26 2.90
  32  0.200  0.200  0.200- 157 2.51 152 2.51 156 2.51 132 2.51 131 2.51 127 2.51 151 2.51 126 2.51
                            57 2.90  33 2.90  37 2.90  31 2.90   7 2.90  27 2.90
  33  0.200  0.200  0.400- 157 2.51 158 2.51 152 2.51 153 2.51 132 2.51 133 2.51 127 2.51 128 2.51
                            58 2.90  32 2.90  38 2.90   8 2.90  34 2.90  28 2.90
  34  0.200  0.200  0.600- 158 2.51 159 2.51 153 2.51 154 2.51 133 2.51 134 2.51 128 2.51 129 2.51
                            59 2.90  35 2.90  39 2.90  33 2.90   9 2.90  29 2.90
  35  0.200  0.200  0.800- 159 2.51 154 2.51 134 2.51 160 2.51 155 2.51 135 2.51 129 2.51 130 2.51
                            60 2.90  34 2.90  40 2.90  31 2.90  10 2.90  30 2.90
  36  0.200  0.400  0.000- 156 2.51 160 2.51 161 2.51 165 2.51 131 2.51 135 2.51 136 2.51 140 2.51
                            31 2.90  61 2.90  37 2.90  40 2.90  41 2.90  11 2.90
  37  0.200  0.400  0.200- 157 2.51 162 2.51 156 2.51 132 2.51 161 2.51 137 2.51 136 2.51 131 2.51
                            62 2.90  32 2.90  38 2.90  36 2.90  12 2.90  42 2.90
  38  0.200  0.400  0.400- 157 2.51 158 2.51 162 2.51 163 2.51 132 2.51 133 2.51 137 2.51 138 2.51
                            63 2.90  33 2.90  37 2.90  13 2.90  39 2.90  43 2.90
  39  0.200  0.400  0.600- 158 2.51 159 2.51 163 2.51 164 2.51 133 2.51 134 2.51 138 2.51 139 2.51
                            64 2.90  34 2.90  40 2.90  38 2.90  14 2.90  44 2.90
  40  0.200  0.400  0.800- 159 2.51 164 2.51 134 2.51 160 2.51 139 2.51 165 2.51 135 2.51 140 2.51
                            65 2.90  35 2.90  39 2.90  36 2.90  15 2.90  45 2.90
  41  0.200  0.600  0.000- 161 2.51 165 2.51 166 2.51 170 2.51 136 2.51 140 2.51 141 2.51 145 2.51
                            46 2.90  66 2.90  42 2.90  45 2.90  16 2.90  36 2.90
  42  0.200  0.600  0.200- 162 2.51 167 2.51 161 2.51 137 2.51 166 2.51 142 2.51 141 2.51 136 2.51
                            67 2.90  43 2.90  47 2.90  41 2.90  17 2.90  37 2.90
  43  0.200  0.600  0.400- 162 2.51 163 2.51 167 2.51 168 2.51 137 2.51 138 2.51 142 2.51 143 2.51
                            68 2.90  42 2.90  48 2.90  18 2.90  44 2.90  38 2.90
  44  0.200  0.600  0.600- 163 2.51 164 2.51 168 2.51 169 2.51 138 2.51 139 2.51 143 2.51 144 2.51
                            69 2.90  45 2.90  49 2.90  43 2.90  19 2.90  39 2.90
  45  0.200  0.600  0.800- 164 2.51 169 2.51 139 2.51 165 2.51 144 2.51 170 2.51 140 2.51 145 2.51
                            70 2.90  44 2.90  50 2.90  41 2.90  20 2.90  40 2.90
  46  0.200  0.800  0.000- 166 2.51 170 2.51 141 2.51 145 2.51 171 2.51 175 2.51 146 2.51 150 2.51
                            41 2.90  71 2.90  21 2.90  47 2.90  50 2.90  26 2.90
  47  0.200  0.800  0.200- 167 2.51 166 2.51 142 2.51 172 2.51 147 2.51 171 2.51 141 2.51 146 2.51
                            72 2.90  42 2.90  48 2.90  22 2.90  46 2.90  27 2.90
  48  0.200  0.800  0.400- 167 2.51 168 2.51 142 2.51 143 2.51 172 2.51 173 2.51 147 2.51 148 2.51
                            73 2.90  43 2.90  47 2.90  23 2.90  28 2.90  49 2.90
  49  0.200  0.800  0.600- 168 2.51 169 2.51 143 2.51 144 2.51 173 2.51 174 2.51 148 2.51 149 2.51
                            74 2.90  44 2.90  50 2.90  24 2.90  48 2.90  29 2.90
  50  0.200  0.800  0.800- 169 2.51 144 2.51 170 2.51 174 2.51 149 2.51 145 2.51 175 2.51 150 2.51
                            75 2.90  45 2.90  49 2.90  25 2.90  46 2.90  30 2.90
  51  0.400  0.000  0.000- 151 2.51 155 2.51 171 2.51 175 2.51 176 2.51 180 2.51 196 2.51 200 2.51
                            26 2.90  71 2.90  76 2.90  52 2.90  55 2.90  56 2.90
  52  0.400  0.000  0.200- 152 2.51 172 2.51 177 2.51 197 2.51 176 2.51 171 2.51 196 2.51 151 2.51
                            27 2.90  53 2.90  51 2.90  57 2.90  72 2.90  77 2.90
  53  0.400  0.000  0.400- 152 2.51 153 2.51 172 2.51 173 2.51 177 2.51 178 2.51 197 2.51 198 2.51
                            28 2.90  52 2.90  54 2.90  58 2.90  73 2.90  78 2.90
  54  0.400  0.000  0.600- 153 2.51 154 2.51 173 2.51 174 2.51 178 2.51 179 2.51 198 2.51 199 2.51
                            29 2.90  55 2.90  53 2.90  59 2.90  74 2.90  79 2.90
  55  0.400  0.000  0.800- 154 2.51 174 2.51 179 2.51 199 2.51 155 2.51 180 2.51 175 2.51 200 2.51
                            30 2.90  54 2.90  51 2.90  60 2.90  75 2.90  80 2.90
  56  0.400  0.200  0.000- 156 2.51 160 2.51 181 2.51 185 2.51 176 2.51 180 2.51 151 2.51 155 2.51
                            31 2.90  61 2.90  57 2.90  60 2.90  51 2.90  81 2.90
  57  0.400  0.200  0.200- 157 2.51 182 2.51 152 2.51 177 2.51 181 2.51 156 2.51 176 2.51 151 2.51
                            62 2.90  32 2.90  58 2.90  82 2.90  52 2.90  56 2.90
  58  0.400  0.200  0.400- 157 2.51 158 2.51 182 2.51 183 2.51 177 2.51 178 2.51 152 2.51 153 2.51
                            63 2.90  33 2.90  57 2.90  83 2.90  59 2.90  53 2.90
  59  0.400  0.200  0.600- 158 2.51 159 2.51 183 2.51 184 2.51 178 2.51 179 2.51 153 2.51 154 2.51
                            64 2.90  34 2.90  60 2.90  84 2.90  54 2.90  58 2.90
  60  0.400  0.200  0.800- 159 2.51 184 2.51 160 2.51 179 2.51 154 2.51 185 2.51 155 2.51 180 2.51
                            65 2.90  35 2.90  59 2.90  85 2.90  55 2.90  56 2.90
  61  0.400  0.400  0.000- 156 2.51 160 2.51 161 2.51 165 2.51 181 2.51 185 2.51 186 2.51 190 2.51
                            36 2.90  56 2.90  62 2.90  65 2.90  66 2.90  86 2.90
  62  0.400  0.400  0.200- 157 2.51 162 2.51 182 2.51 187 2.51 181 2.51 161 2.51 186 2.51 156 2.51
                            63 2.90  37 2.90  57 2.90  87 2.90  61 2.90  67 2.90
  63  0.400  0.400  0.400- 157 2.51 158 2.51 162 2.51 163 2.51 182 2.51 183 2.51 187 2.51 188 2.51
                            62 2.90  38 2.90  58 2.90  88 2.90  64 2.90  68 2.90
  64  0.400  0.400  0.600- 158 2.51 159 2.51 163 2.51 164 2.51 183 2.51 184 2.51 188 2.51 189 2.51
                            65 2.90  39 2.90  59 2.90  89 2.90  63 2.90  69 2.90
  65  0.400  0.400  0.800- 159 2.51 164 2.51 184 2.51 189 2.51 160 2.51 185 2.51 165 2.51 190 2.51
                            64 2.90  40 2.90  60 2.90  90 2.90  61 2.90  70 2.90
  66  0.400  0.600  0.000- 161 2.51 165 2.51 166 2.51 170 2.51 186 2.51 190 2.51 191 2.51 195 2.51
                            41 2.90  71 2.90  67 2.90  70 2.90  61 2.90  91 2.90
  67  0.400  0.600  0.200- 162 2.51 167 2.51 187 2.51 192 2.51 186 2.51 166 2.51 191 2.51 161 2.51
                            72 2.90  42 2.90  68 2.90  92 2.90  62 2.90  66 2.90
  68  0.400  0.600  0.400- 162 2.51 163 2.51 167 2.51 168 2.51 187 2.51 188 2.51 192 2.51 193 2.51
                            73 2.90  43 2.90  67 2.90  93 2.90  69 2.90  63 2.90
  69  0.400  0.600  0.600- 163 2.51 164 2.51 168 2.51 169 2.51 188 2.51 189 2.51 193 2.51 194 2.51
                            74 2.90  44 2.90  70 2.90  94 2.90  64 2.90  68 2.90
  70  0.400  0.600  0.800- 164 2.51 169 2.51 189 2.51 194 2.51 165 2.51 190 2.51 170 2.51 195 2.51
                            75 2.90  45 2.90  69 2.90  95 2.90  65 2.90  66 2.90
  71  0.400  0.800  0.000- 166 2.51 170 2.51 191 2.51 195 2.51 171 2.51 175 2.51 196 2.51 200 2.51
                            46 2.90  66 2.90  51 2.90  72 2.90  75 2.90  96 2.90
  72  0.400  0.800  0.200- 167 2.51 192 2.51 172 2.51 191 2.51 166 2.51 197 2.51 196 2.51 171 2.51
                            73 2.90  47 2.90  67 2.90  97 2.90  71 2.90  52 2.90
  73  0.400  0.800  0.400- 167 2.51 168 2.51 192 2.51 193 2.51 172 2.51 173 2.51 197 2.51 198 2.51
                            72 2.90  48 2.90  68 2.90  98 2.90  53 2.90  74 2.90
  74  0.400  0.800  0.600- 168 2.51 169 2.51 193 2.51 194 2.51 173 2.51 174 2.51 198 2.51 199 2.51
                            75 2.90  49 2.90  69 2.90  99 2.90  73 2.90  54 2.90
  75  0.400  0.800  0.800- 169 2.51 194 2.51 174 2.51 170 2.51 195 2.51 199 2.51 175 2.51 200 2.51
                            74 2.90  50 2.90  70 2.90 100 2.90  71 2.90  55 2.90
  76  0.600  0.000  0.000- 176 2.51 180 2.51 196 2.51 200 2.51 201 2.51 205 2.51 221 2.51 225 2.51
                           101 2.90  96 2.90  51 2.90  77 2.90  80 2.90  81 2.90
  77  0.600  0.000  0.200- 177 2.51 197 2.51 202 2.51 222 2.51 201 2.51 196 2.51 221 2.51 176 2.51
                            78 2.90 102 2.90  52 2.90  82 2.90  97 2.90  76 2.90
  78  0.600  0.000  0.400- 177 2.51 178 2.51 197 2.51 198 2.51 202 2.51 203 2.51 222 2.51 223 2.51
                            77 2.90 103 2.90  79 2.90  83 2.90  98 2.90  53 2.90
  79  0.600  0.000  0.600- 178 2.51 179 2.51 198 2.51 199 2.51 203 2.51 204 2.51 223 2.51 224 2.51
                            80 2.90 104 2.90  54 2.90  84 2.90  99 2.90  78 2.90
  80  0.600  0.000  0.800- 179 2.51 199 2.51 204 2.51 224 2.51 180 2.51 205 2.51 200 2.51 225 2.51
                            79 2.90 105 2.90  55 2.90  85 2.90 100 2.90  76 2.90
  81  0.600  0.200  0.000- 181 2.51 185 2.51 206 2.51 210 2.51 201 2.51 205 2.51 176 2.51 180 2.51
                            86 2.90 106 2.90  82 2.90  85 2.90  56 2.90  76 2.90
  82  0.600  0.200  0.200- 182 2.51 207 2.51 177 2.51 202 2.51 206 2.51 181 2.51 201 2.51 176 2.51
                           107 2.90  83 2.90  87 2.90  81 2.90  57 2.90  77 2.90
  83  0.600  0.200  0.400- 182 2.51 183 2.51 207 2.51 208 2.51 202 2.51 203 2.51 177 2.51 178 2.51
                           108 2.90  82 2.90  88 2.90  58 2.90  84 2.90  78 2.90
  84  0.600  0.200  0.600- 183 2.51 184 2.51 208 2.51 209 2.51 203 2.51 204 2.51 178 2.51 179 2.51
                           109 2.90  85 2.90  89 2.90  83 2.90  59 2.90  79 2.90
  85  0.600  0.200  0.800- 184 2.51 209 2.51 185 2.51 204 2.51 179 2.51 210 2.51 180 2.51 205 2.51
                           110 2.90  84 2.90  90 2.90  81 2.90  60 2.90  80 2.90
  86  0.600  0.400  0.000- 181 2.51 185 2.51 186 2.51 190 2.51 206 2.51 210 2.51 211 2.51 215 2.51
                            81 2.90 111 2.90  87 2.90  90 2.90  91 2.90  61 2.90
  87  0.600  0.400  0.200- 182 2.51 187 2.51 207 2.51 212 2.51 206 2.51 186 2.51 211 2.51 181 2.51
                           112 2.90  82 2.90  88 2.90  86 2.90  62 2.90  92 2.90
  88  0.600  0.400  0.400- 182 2.51 183 2.51 187 2.51 188 2.51 207 2.51 208 2.51 212 2.51 213 2.51
                           113 2.90  83 2.90  87 2.90  63 2.90  89 2.90  93 2.90
  89  0.600  0.400  0.600- 183 2.51 184 2.51 188 2.51 189 2.51 208 2.51 209 2.51 213 2.51 214 2.51
                           114 2.90  84 2.90  90 2.90  88 2.90  64 2.90  94 2.90
  90  0.600  0.400  0.800- 184 2.51 189 2.51 209 2.51 214 2.51 185 2.51 210 2.51 190 2.51 215 2.51
                           115 2.90  85 2.90  89 2.90  86 2.90  65 2.90  95 2.90
  91  0.600  0.600  0.000- 186 2.51 190 2.51 191 2.51 195 2.51 211 2.51 215 2.51 216 2.51 220 2.51
                            96 2.90 116 2.90  92 2.90  95 2.90  66 2.90  86 2.90
  92  0.600  0.600  0.200- 187 2.51 192 2.51 212 2.51 217 2.51 211 2.51 191 2.51 216 2.51 186 2.51
                           117 2.90  93 2.90  97 2.90  91 2.90  67 2.90  87 2.90
  93  0.600  0.600  0.400- 187 2.51 188 2.51 192 2.51 193 2.51 212 2.51 213 2.51 217 2.51 218 2.51
                           118 2.90  92 2.90  98 2.90  68 2.90  94 2.90  88 2.90
  94  0.600  0.600  0.600- 188 2.51 189 2.51 193 2.51 194 2.51 213 2.51 214 2.51 218 2.51 219 2.51
                           119 2.90  95 2.90  99 2.90  93 2.90  69 2.90  89 2.90
  95  0.600  0.600  0.800- 189 2.51 194 2.51 214 2.51 219 2.51 190 2.51 215 2.51 195 2.51 220 2.51
                           120 2.90  94 2.90 100 2.90  91 2.90  70 2.90  90 2.90
  96  0.600  0.800  0.000- 191 2.51 195 2.51 216 2.51 220 2.51 196 2.51 200 2.51 221 2.51 225 2.51
                            91 2.90 121 2.90  71 2.90  97 2.90 100 2.90  76 2.90
  97  0.600  0.800  0.200- 192 2.51 217 2.51 197 2.51 216 2.51 191 2.51 222 2.51 221 2.51 196 2.51
                           122 2.90  92 2.90  98 2.90  72 2.90  96 2.90  77 2.90
  98  0.600  0.800  0.400- 192 2.51 193 2.51 217 2.51 218 2.51 197 2.51 198 2.51 222 2.51 223 2.51
                           123 2.90  93 2.90  97 2.90  73 2.90  78 2.90  99 2.90
  99  0.600  0.800  0.600- 193 2.51 194 2.51 218 2.51 219 2.51 198 2.51 199 2.51 223 2.51 224 2.51
                           124 2.90  94 2.90 100 2.90  74 2.90  98 2.90  79 2.90
 100  0.600  0.800  0.800- 194 2.51 219 2.51 199 2.51 195 2.51 220 2.51 224 2.51 200 2.51 225 2.51
                           125 2.90  95 2.90  99 2.90  75 2.90  96 2.90  80 2.90
 101  0.800  0.000  0.000- 201 2.51 205 2.51 221 2.51 225 2.51 226 2.51 230 2.51 246 2.51 250 2.51
                            76 2.90 106 2.90 121 2.90   1 2.90 102 2.90 105 2.90
 102  0.800  0.000  0.200- 202 2.51 222 2.51 221 2.51 201 2.51 227 2.51 247 2.51 246 2.51 226 2.51
                            77 2.90 103 2.90 101 2.90   2 2.90 107 2.90 122 2.90
 103  0.800  0.000  0.400- 202 2.51 203 2.51 222 2.51 223 2.51 227 2.51 228 2.51 247 2.51 248 2.51
                            78 2.90 102 2.90   3 2.90 104 2.90 108 2.90 123 2.90
 104  0.800  0.000  0.600- 203 2.51 204 2.51 223 2.51 224 2.51 228 2.51 229 2.51 248 2.51 249 2.51
                            79 2.90 105 2.90 103 2.90   4 2.90 109 2.90 124 2.90
 105  0.800  0.000  0.800- 204 2.51 224 2.51 205 2.51 225 2.51 229 2.51 249 2.51 230 2.51 250 2.51
                            80 2.90 104 2.90 101 2.90   5 2.90 110 2.90 125 2.90
 106  0.800  0.200  0.000- 206 2.51 210 2.51 201 2.51 205 2.51 231 2.51 235 2.51 226 2.51 230 2.51
                            81 2.90 111 2.90 101 2.90 107 2.90 110 2.90   6 2.90
 107  0.800  0.200  0.200- 207 2.51 206 2.51 202 2.51 232 2.51 227 2.51 231 2.51 201 2.51 226 2.51
                           112 2.90  82 2.90 108 2.90 102 2.90 106 2.90   7 2.90
 108  0.800  0.200  0.400- 207 2.51 208 2.51 202 2.51 203 2.51 232 2.51 233 2.51 227 2.51 228 2.51
                           113 2.90  83 2.90 107 2.90 103 2.90   8 2.90 109 2.90
 109  0.800  0.200  0.600- 208 2.51 209 2.51 203 2.51 204 2.51 233 2.51 234 2.51 228 2.51 229 2.51
                           114 2.90  84 2.90 110 2.90 104 2.90 108 2.90   9 2.90
 110  0.800  0.200  0.800- 209 2.51 204 2.51 210 2.51 234 2.51 229 2.51 205 2.51 235 2.51 230 2.51
                           115 2.90  85 2.90 109 2.90 105 2.90 106 2.90  10 2.90
 111  0.800  0.400  0.000- 206 2.51 210 2.51 211 2.51 215 2.51 231 2.51 235 2.51 236 2.51 240 2.51
                            86 2.90 106 2.90  11 2.90 112 2.90 115 2.90 116 2.90
 112  0.800  0.400  0.200- 207 2.51 212 2.51 211 2.51 206 2.51 232 2.51 237 2.51 236 2.51 231 2.51
                           113 2.90  87 2.90 107 2.90 117 2.90 111 2.90  12 2.90
 113  0.800  0.400  0.400- 207 2.51 208 2.51 212 2.51 213 2.51 232 2.51 233 2.51 237 2.51 238 2.51
                           112 2.90  88 2.90 108 2.90 118 2.90  13 2.90 114 2.90
 114  0.800  0.400  0.600- 208 2.51 209 2.51 213 2.51 214 2.51 233 2.51 234 2.51 238 2.51 239 2.51
                           115 2.90  89 2.90 109 2.90 119 2.90 113 2.90  14 2.90
 115  0.800  0.400  0.800- 209 2.51 214 2.51 210 2.51 215 2.51 234 2.51 239 2.51 235 2.51 240 2.51
                           114 2.90  90 2.90 110 2.90 120 2.90 111 2.90  15 2.90
 116  0.800  0.600  0.000- 211 2.51 215 2.51 216 2.51 220 2.51 236 2.51 240 2.51 241 2.51 245 2.51
                            91 2.90 121 2.90 111 2.90 117 2.90 120 2.90  16 2.90
 117  0.800  0.600  0.200- 212 2.51 217 2.51 216 2.51 211 2.51 237 2.51 242 2.51 241 2.51 236 2.51
                           122 2.90  92 2.90 118 2.90 112 2.90 116 2.90  17 2.90
 118  0.800  0.600  0.400- 212 2.51 213 2.51 217 2.51 218 2.51 237 2.51 238 2.51 242 2.51 243 2.51
                           123 2.90  93 2.90 117 2.90 113 2.90  18 2.90 119 2.90
 119  0.800  0.600  0.600- 213 2.51 214 2.51 218 2.51 219 2.51 238 2.51 239 2.51 243 2.51 244 2.51
                           124 2.90  94 2.90 120 2.90 114 2.90 118 2.90  19 2.90
 120  0.800  0.600  0.800- 214 2.51 219 2.51 215 2.51 220 2.51 239 2.51 244 2.51 240 2.51 245 2.51
                           125 2.90  95 2.90 119 2.90 115 2.90 116 2.90  20 2.90
 121  0.800  0.800  0.000- 216 2.51 220 2.51 221 2.51 225 2.51 241 2.51 245 2.51 246 2.51 250 2.51
                            96 2.90 116 2.90 101 2.90  21 2.90 122 2.90 125 2.90
 122  0.800  0.800  0.200- 217 2.51 216 2.51 222 2.51 242 2.51 241 2.51 221 2.51 247 2.51 246 2.51
                           123 2.90  97 2.90 117 2.90 102 2.90  22 2.90 121 2.90
 123  0.800  0.800  0.400- 217 2.51 218 2.51 222 2.51 223 2.51 242 2.51 243 2.51 247 2.51 248 2.51
                           122 2.90  98 2.90 118 2.90 124 2.90  23 2.90 103 2.90
 124  0.800  0.800  0.600- 218 2.51 219 2.51 223 2.51 224 2.51 243 2.51 244 2.51 248 2.51 249 2.51
                           125 2.90  99 2.90 119 2.90 104 2.90  24 2.90 123 2.90
 125  0.800  0.800  0.800- 219 2.51 220 2.51 224 2.51 244 2.51 225 2.51 245 2.51 249 2.51 250 2.51
                           124 2.90 100 2.90 120 2.90 105 2.90  25 2.90 121 2.90
 126  0.100  0.100  0.100-   1 2.51   2 2.51   6 2.51   7 2.51  26 2.51  27 2.51  31 2.51  32 2.51

 127  0.100  0.100  0.300-   2 2.51   7 2.51  27 2.51  32 2.51   3 2.51  28 2.51   8 2.51  33 2.51

 128  0.100  0.100  0.500-   3 2.51   4 2.51   8 2.51   9 2.51  28 2.51  29 2.51  33 2.51  34 2.51

 129  0.100  0.100  0.700-   5 2.51  10 2.51  30 2.51  35 2.51  29 2.51   9 2.51  34 2.51   4 2.51

 130  0.100  0.100  0.900-   1 2.51   5 2.51   6 2.51  10 2.51  26 2.51  30 2.51  31 2.51  35 2.51

 131  0.100  0.300  0.100-   6 2.51   7 2.51  31 2.51  32 2.51  11 2.51  12 2.51  36 2.51  37 2.51

 132  0.100  0.300  0.300-   7 2.51  32 2.51  12 2.51   8 2.51  33 2.51  37 2.51  13 2.51  38 2.51

 133  0.100  0.300  0.500-   8 2.51   9 2.51  33 2.51  34 2.51  13 2.51  14 2.51  38 2.51  39 2.51

 134  0.100  0.300  0.700-  10 2.51  35 2.51  15 2.51  34 2.51   9 2.51  40 2.51  39 2.51  14 2.51

 135  0.100  0.300  0.900-   6 2.51  10 2.51  31 2.51  35 2.51  11 2.51  15 2.51  36 2.51  40 2.51

 136  0.100  0.500  0.100-  11 2.51  12 2.51  16 2.51  17 2.51  36 2.51  37 2.51  41 2.51  42 2.51

 137  0.100  0.500  0.300-  12 2.51  17 2.51  37 2.51  42 2.51  13 2.51  38 2.51  18 2.51  43 2.51

 138  0.100  0.500  0.500-  13 2.51  14 2.51  18 2.51  19 2.51  38 2.51  39 2.51  43 2.51  44 2.51

 139  0.100  0.500  0.700-  15 2.51  20 2.51  40 2.51  45 2.51  39 2.51  19 2.51  44 2.51  14 2.51

 140  0.100  0.500  0.900-  11 2.51  15 2.51  16 2.51  20 2.51  36 2.51  40 2.51  41 2.51  45 2.51

 141  0.100  0.700  0.100-  21 2.51  22 2.51  46 2.51  47 2.51  41 2.51  42 2.51  16 2.51  17 2.51

 142  0.100  0.700  0.300-  22 2.51  47 2.51  23 2.51  42 2.51  17 2.51  48 2.51  18 2.51  43 2.51

 143  0.100  0.700  0.500-  23 2.51  24 2.51  48 2.51  49 2.51  43 2.51  44 2.51  18 2.51  19 2.51

 144  0.100  0.700  0.700-  25 2.51  50 2.51  20 2.51  45 2.51  49 2.51  24 2.51  44 2.51  19 2.51

 145  0.100  0.700  0.900-  21 2.51  25 2.51  46 2.51  50 2.51  41 2.51  45 2.51  16 2.51  20 2.51

 146  0.100  0.900  0.100-   1 2.51   2 2.51  21 2.51  22 2.51  26 2.51  27 2.51  46 2.51  47 2.51

 147  0.100  0.900  0.300-   2 2.51  22 2.51  27 2.51  47 2.51   3 2.51  28 2.51  23 2.51  48 2.51

 148  0.100  0.900  0.500-   3 2.51   4 2.51  23 2.51  24 2.51  28 2.51  29 2.51  48 2.51  49 2.51

 149  0.100  0.900  0.700-   5 2.51  25 2.51  30 2.51  50 2.51  29 2.51  24 2.51  49 2.51   4 2.51

 150  0.100  0.900  0.900-   1 2.51   5 2.51  21 2.51  25 2.51  26 2.51  30 2.51  46 2.51  50 2.51

 151  0.300  0.100  0.100-  26 2.51  27 2.51  31 2.51  32 2.51  51 2.51  52 2.51  56 2.51  57 2.51

 152  0.300  0.100  0.300-  27 2.51  32 2.51  28 2.51  33 2.51  52 2.51  57 2.51  53 2.51  58 2.51

 153  0.300  0.100  0.500-  28 2.51  29 2.51  33 2.51  34 2.51  53 2.51  54 2.51  58 2.51  59 2.51

 154  0.300  0.100  0.700-  30 2.51  35 2.51  34 2.51  29 2.51  55 2.51  60 2.51  59 2.51  54 2.51

 155  0.300  0.100  0.900-  26 2.51  30 2.51  31 2.51  35 2.51  51 2.51  55 2.51  56 2.51  60 2.51

 156  0.300  0.300  0.100-  31 2.51  32 2.51  36 2.51  37 2.51  56 2.51  57 2.51  61 2.51  62 2.51

 157  0.300  0.300  0.300-  32 2.51  33 2.51  37 2.51  57 2.51  38 2.51  58 2.51  62 2.51  63 2.51

 158  0.300  0.300  0.500-  33 2.51  34 2.51  38 2.51  39 2.51  58 2.51  59 2.51  63 2.51  64 2.51

 159  0.300  0.300  0.700-  35 2.51  34 2.51  40 2.51  60 2.51  59 2.51  39 2.51  65 2.51  64 2.51

 160  0.300  0.300  0.900-  31 2.51  35 2.51  36 2.51  40 2.51  56 2.51  60 2.51  61 2.51  65 2.51

 161  0.300  0.500  0.100-  36 2.51  37 2.51  41 2.51  42 2.51  61 2.51  62 2.51  66 2.51  67 2.51

 162  0.300  0.500  0.300-  37 2.51  42 2.51  38 2.51  43 2.51  62 2.51  67 2.51  63 2.51  68 2.51

 163  0.300  0.500  0.500-  38 2.51  39 2.51  43 2.51  44 2.51  63 2.51  64 2.51  68 2.51  69 2.51

 164  0.300  0.500  0.700-  40 2.51  45 2.51  44 2.51  39 2.51  65 2.51  70 2.51  69 2.51  64 2.51

 165  0.300  0.500  0.900-  36 2.51  40 2.51  41 2.51  45 2.51  61 2.51  65 2.51  66 2.51  70 2.51

 166  0.300  0.700  0.100-  46 2.51  47 2.51  41 2.51  42 2.51  71 2.51  72 2.51  66 2.51  67 2.51

 167  0.300  0.700  0.300-  47 2.51  42 2.51  48 2.51  72 2.51  67 2.51  43 2.51  73 2.51  68 2.51

 168  0.300  0.700  0.500-  48 2.51  49 2.51  43 2.51  44 2.51  73 2.51  74 2.51  68 2.51  69 2.51

 169  0.300  0.700  0.700-  50 2.51  49 2.51  45 2.51  75 2.51  70 2.51  74 2.51  44 2.51  69 2.51

 170  0.300  0.700  0.900-  46 2.51  50 2.51  41 2.51  45 2.51  71 2.51  75 2.51  66 2.51  70 2.51

 171  0.300  0.900  0.100-  26 2.51  27 2.51  46 2.51  47 2.51  51 2.51  52 2.51  71 2.51  72 2.51

 172  0.300  0.900  0.300-  27 2.51  47 2.51  28 2.51  48 2.51  52 2.51  72 2.51  53 2.51  73 2.51

 173  0.300  0.900  0.500-  28 2.51  29 2.51  48 2.51  49 2.51  53 2.51  54 2.51  73 2.51  74 2.51

 174  0.300  0.900  0.700-  30 2.51  50 2.51  49 2.51  29 2.51  55 2.51  75 2.51  74 2.51  54 2.51

 175  0.300  0.900  0.900-  26 2.51  30 2.51  46 2.51  50 2.51  51 2.51  55 2.51  71 2.51  75 2.51

 176  0.500  0.100  0.100-  51 2.51  52 2.51  56 2.51  57 2.51  76 2.51  77 2.51  81 2.51  82 2.51

 177  0.500  0.100  0.300-  52 2.51  57 2.51  77 2.51  82 2.51  53 2.51  78 2.51  58 2.51  83 2.51

 178  0.500  0.100  0.500-  53 2.51  54 2.51  58 2.51  59 2.51  78 2.51  79 2.51  83 2.51  84 2.51

 179  0.500  0.100  0.700-  55 2.51  60 2.51  80 2.51  85 2.51  79 2.51  59 2.51  84 2.51  54 2.51

 180  0.500  0.100  0.900-  51 2.51  55 2.51  56 2.51  60 2.51  76 2.51  80 2.51  81 2.51  85 2.51

 181  0.500  0.300  0.100-  56 2.51  57 2.51  81 2.51  82 2.51  61 2.51  62 2.51  86 2.51  87 2.51

 182  0.500  0.300  0.300-  57 2.51  82 2.51  62 2.51  58 2.51  83 2.51  87 2.51  63 2.51  88 2.51

 183  0.500  0.300  0.500-  58 2.51  59 2.51  83 2.51  84 2.51  63 2.51  64 2.51  88 2.51  89 2.51

 184  0.500  0.300  0.700-  60 2.51  85 2.51  65 2.51  84 2.51  59 2.51  90 2.51  89 2.51  64 2.51

 185  0.500  0.300  0.900-  56 2.51  60 2.51  81 2.51  85 2.51  61 2.51  65 2.51  86 2.51  90 2.51

 186  0.500  0.500  0.100-  61 2.51  62 2.51  66 2.51  67 2.51  86 2.51  87 2.51  91 2.51  92 2.51

 187  0.500  0.500  0.300-  62 2.51  67 2.51  87 2.51  92 2.51  63 2.51  88 2.51  68 2.51  93 2.51

 188  0.500  0.500  0.500-  63 2.51  64 2.51  68 2.51  69 2.51  88 2.51  89 2.51  93 2.51  94 2.51

 189  0.500  0.500  0.700-  65 2.51  70 2.51  90 2.51  95 2.51  89 2.51  69 2.51  94 2.51  64 2.51

 190  0.500  0.500  0.900-  61 2.51  65 2.51  66 2.51  70 2.51  86 2.51  90 2.51  91 2.51  95 2.51

 191  0.500  0.700  0.100-  71 2.51  72 2.51  96 2.51  97 2.51  91 2.51  92 2.51  66 2.51  67 2.51

 192  0.500  0.700  0.300-  72 2.51  97 2.51  73 2.51  92 2.51  67 2.51  98 2.51  68 2.51  93 2.51

 193  0.500  0.700  0.500-  73 2.51  74 2.51  98 2.51  99 2.51  93 2.51  94 2.51  68 2.51  69 2.51

 194  0.500  0.700  0.700-  75 2.51 100 2.51  70 2.51  95 2.51  99 2.51  74 2.51  94 2.51  69 2.51

 195  0.500  0.700  0.900-  71 2.51  75 2.51  96 2.51 100 2.51  91 2.51  95 2.51  66 2.51  70 2.51

 196  0.500  0.900  0.100-  51 2.51  52 2.51  71 2.51  72 2.51  76 2.51  77 2.51  96 2.51  97 2.51

 197  0.500  0.900  0.300-  52 2.51  72 2.51  77 2.51  97 2.51  53 2.51  78 2.51  73 2.51  98 2.51

 198  0.500  0.900  0.500-  53 2.51  54 2.51  73 2.51  74 2.51  78 2.51  79 2.51  98 2.51  99 2.51

 199  0.500  0.900  0.700-  55 2.51  75 2.51  80 2.51 100 2.51  79 2.51  74 2.51  99 2.51  54 2.51

 200  0.500  0.900  0.900-  51 2.51  55 2.51  71 2.51  75 2.51  76 2.51  80 2.51  96 2.51 100 2.51

 201  0.700  0.100  0.100- 101 2.51 102 2.51 106 2.51 107 2.51  76 2.51  77 2.51  81 2.51  82 2.51

 202  0.700  0.100  0.300- 102 2.51 107 2.51  77 2.51 103 2.51  82 2.51 108 2.51  78 2.51  83 2.51

 203  0.700  0.100  0.500- 103 2.51 104 2.51 108 2.51 109 2.51  78 2.51  79 2.51  83 2.51  84 2.51

 204  0.700  0.100  0.700- 105 2.51 110 2.51 104 2.51  80 2.51 109 2.51  85 2.51  84 2.51  79 2.51

 205  0.700  0.100  0.900- 101 2.51 105 2.51 106 2.51 110 2.51  76 2.51  80 2.51  81 2.51  85 2.51

 206  0.700  0.300  0.100- 106 2.51 107 2.51  81 2.51  82 2.51 111 2.51 112 2.51  86 2.51  87 2.51

 207  0.700  0.300  0.300- 107 2.51  82 2.51 108 2.51 112 2.51  87 2.51  83 2.51 113 2.51  88 2.51

 208  0.700  0.300  0.500- 108 2.51 109 2.51  83 2.51  84 2.51 113 2.51 114 2.51  88 2.51  89 2.51

 209  0.700  0.300  0.700- 110 2.51 109 2.51  85 2.51 115 2.51  90 2.51 114 2.51  84 2.51  89 2.51

 210  0.700  0.300  0.900- 106 2.51 110 2.51  81 2.51  85 2.51 111 2.51 115 2.51  86 2.51  90 2.51

 211  0.700  0.500  0.100- 111 2.51 112 2.51 116 2.51 117 2.51  86 2.51  87 2.51  91 2.51  92 2.51

 212  0.700  0.500  0.300- 112 2.51 117 2.51  87 2.51 113 2.51  92 2.51 118 2.51  88 2.51  93 2.51

 213  0.700  0.500  0.500- 113 2.51 114 2.51 118 2.51 119 2.51  88 2.51  89 2.51  93 2.51  94 2.51

 214  0.700  0.500  0.700- 115 2.51 120 2.51 114 2.51  90 2.51 119 2.51  95 2.51  94 2.51  89 2.51

 215  0.700  0.500  0.900- 111 2.51 115 2.51 116 2.51 120 2.51  86 2.51  90 2.51  91 2.51  95 2.51

 216  0.700  0.700  0.100- 121 2.51 122 2.51 116 2.51 117 2.51  96 2.51  97 2.51  91 2.51  92 2.51

 217  0.700  0.700  0.300- 122 2.51 117 2.51  97 2.51 123 2.51 118 2.51  98 2.51  92 2.51  93 2.51

 218  0.700  0.700  0.500- 123 2.51 124 2.51 118 2.51 119 2.51  98 2.51  99 2.51  93 2.51  94 2.51

 219  0.700  0.700  0.700- 125 2.51 120 2.51 124 2.51 100 2.51  99 2.51  95 2.51 119 2.51  94 2.51

 220  0.700  0.700  0.900- 121 2.51 125 2.51 116 2.51 120 2.51  96 2.51 100 2.51  91 2.51  95 2.51

 221  0.700  0.900  0.100- 101 2.51 102 2.51 121 2.51 122 2.51  76 2.51  77 2.51  96 2.51  97 2.51

 222  0.700  0.900  0.300- 102 2.51 122 2.51  77 2.51 103 2.51  97 2.51 123 2.51  78 2.51  98 2.51

 223  0.700  0.900  0.500- 103 2.51 104 2.51 123 2.51 124 2.51  78 2.51  79 2.51  98 2.51  99 2.51

 224  0.700  0.900  0.700- 105 2.51 125 2.51 104 2.51  80 2.51 124 2.51 100 2.51  99 2.51  79 2.51

 225  0.700  0.900  0.900- 101 2.51 105 2.51 121 2.51 125 2.51  76 2.51  80 2.51  96 2.51 100 2.51

 226  0.900  0.100  0.100-   1 2.51   2 2.51   6 2.51   7 2.51 101 2.51 102 2.51 106 2.51 107 2.51

 227  0.900  0.100  0.300-   2 2.51   7 2.51 102 2.51 107 2.51   3 2.51 103 2.51   8 2.51 108 2.51

 228  0.900  0.100  0.500-   3 2.51   4 2.51   8 2.51   9 2.51 103 2.51 104 2.51 108 2.51 109 2.51

 229  0.900  0.100  0.700-   5 2.51  10 2.51 105 2.51 110 2.51 104 2.51   9 2.51 109 2.51   4 2.51

 230  0.900  0.100  0.900-   1 2.51   5 2.51   6 2.51  10 2.51 101 2.51 105 2.51 106 2.51 110 2.51

 231  0.900  0.300  0.100-   6 2.51   7 2.51 106 2.51 107 2.51  11 2.51  12 2.51 111 2.51 112 2.51

 232  0.900  0.300  0.300-   7 2.51 107 2.51  12 2.51   8 2.51 108 2.51 112 2.51  13 2.51 113 2.51

 233  0.900  0.300  0.500-   8 2.51   9 2.51 108 2.51 109 2.51  13 2.51  14 2.51 113 2.51 114 2.51

 234  0.900  0.300  0.700-  10 2.51 110 2.51  15 2.51 109 2.51   9 2.51 115 2.51 114 2.51  14 2.51

 235  0.900  0.300  0.900-   6 2.51  10 2.51 106 2.51 110 2.51  11 2.51  15 2.51 111 2.51 115 2.51

 236  0.900  0.500  0.100-  11 2.51  12 2.51  16 2.51  17 2.51 111 2.51 112 2.51 116 2.51 117 2.51

 237  0.900  0.500  0.300-  12 2.51  17 2.51 112 2.51 117 2.51  13 2.51 113 2.51  18 2.51 118 2.51

 238  0.900  0.500  0.500-  13 2.51  14 2.51  18 2.51  19 2.51 113 2.51 114 2.51 118 2.51 119 2.51

 239  0.900  0.500  0.700-  15 2.51  20 2.51 115 2.51 120 2.51 114 2.51  19 2.51 119 2.51  14 2.51

 240  0.900  0.500  0.900-  11 2.51  15 2.51  16 2.51  20 2.51 111 2.51 115 2.51 116 2.51 120 2.51

 241  0.900  0.700  0.100-  21 2.51  22 2.51 121 2.51 122 2.51 116 2.51 117 2.51  16 2.51  17 2.51

 242  0.900  0.700  0.300-  22 2.51 122 2.51  23 2.51 117 2.51  17 2.51 123 2.51  18 2.51 118 2.51

 243  0.900  0.700  0.500-  23 2.51  24 2.51 123 2.51 124 2.51 118 2.51 119 2.51  18 2.51  19 2.51

 244  0.900  0.700  0.700-  25 2.51 125 2.51  20 2.51 120 2.51 124 2.51  24 2.51 119 2.51  19 2.51

 245  0.900  0.700  0.900-  21 2.51  25 2.51 121 2.51 125 2.51 116 2.51 120 2.51  16 2.51  20 2.51

 246  0.900  0.900  0.100-   1 2.51   2 2.51  21 2.51  22 2.51 101 2.51 102 2.51 121 2.51 122 2.51

 247  0.900  0.900  0.300-   2 2.51  22 2.51 102 2.51 122 2.51   3 2.51 103 2.51  23 2.51 123 2.51

 248  0.900  0.900  0.500-   3 2.51   4 2.51  23 2.51  24 2.51 103 2.51 104 2.51 123 2.51 124 2.51

 249  0.900  0.900  0.700-   5 2.51  25 2.51 105 2.51 125 2.51 104 2.51  24 2.51 124 2.51   4 2.51

 250  0.900  0.900  0.900-   1 2.51   5 2.51  21 2.51  25 2.51 101 2.51 105 2.51 121 2.51 125 2.51

 
  LATTYP: Found a simple cubic cell.
 ALAT       =    14.5000000000
  
  Lattice vectors:
  
 A1 = (  14.5000000000,   0.0000000000,   0.0000000000)
 A2 = (   0.0000000000,  14.5000000000,   0.0000000000)
 A3 = (   0.0000000000,   0.0000000000,  14.5000000000)


Analysis of symmetry for initial positions (statically):
=====================================================================
 Subroutine PRICEL returns following result:
 
  LATTYP: Found a simple cubic cell.
 ALAT       =     2.9000000000
  
  Lattice vectors:
  
 A1 = (   2.9000000000,   0.0000000000,   0.0000000000)
 A2 = (   0.0000000000,   2.9000000000,   0.0000000000)
 A3 = (   0.0000000000,   0.0000000000,   2.9000000000)
 
 125 primitive cells build up your supercell.
 

 Routine SETGRP: Setting up the symmetry group for a 
 simple cubic supercell.


 Subroutine GETGRP returns: Found 48 space group operations
 (whereof 48 operations were pure point group operations)
 out of a pool of 48 trial point group operations.


The static configuration has the point symmetry O_h .


Analysis of symmetry for dynamics (positions and initial velocities):
=====================================================================
 Subroutine PRICEL returns following result:
 
  LATTYP: Found a simple cubic cell.
 ALAT       =     2.9000000000
  
  Lattice vectors:
  
 A1 = (   2.9000000000,   0.0000000000,   0.0000000000)
 A2 = (   0.0000000000,   2.9000000000,   0.0000000000)
 A3 = (   0.0000000000,   0.0000000000,   2.9000000000)
 
 125 primitive cells build up your supercell.
 

 Routine SETGRP: Setting up the symmetry group for a 
 simple cubic supercell.


 Subroutine GETGRP returns: Found 48 space group operations
 (whereof 48 operations were pure point group operations)
 out of a pool of 48 trial point group operations.


The dynamic configuration has the point symmetry O_h .


 Subroutine INISYM returns: Found 48 space group operations
 (whereof 48 operations are pure point group operations),
 and found   125 'primitive' translations

 
 
 KPOINTS: Automatic generation                    

Automatic generation of k-mesh.
Space group operators:
 irot       det(A)        alpha          n_x          n_y          n_z        tau_x        tau_y        tau_z
    1     1.000000     0.000000     1.000000     0.000000     0.000000     0.000000     0.000000     0.000000
    2    -1.000000     0.000000     1.000000     0.000000     0.000000     0.000000     0.000000     0.000000
    3     1.000000   120.000000    -0.577350    -0.577350    -0.577350     0.000000     0.000000     0.000000
    4    -1.000000   120.000000    -0.577350    -0.577350    -0.577350     0.000000     0.000000     0.000000
    5     1.000000   120.000000     0.577350     0.577350     0.577350     0.000000     0.000000     0.000000
    6    -1.000000   120.000000     0.577350     0.577350     0.577350     0.000000     0.000000     0.000000
    7     1.000000    90.000000     0.000000     0.000000    -1.000000     0.000000     0.000000     0.000000
    8    -1.000000    90.000000     0.000000     0.000000    -1.000000     0.000000     0.000000     0.000000
    9     1.000000   180.000000     0.000000     0.707107     0.707107     0.000000     0.000000     0.000000
   10    -1.000000   180.000000     0.000000     0.707107     0.707107     0.000000     0.000000     0.000000
   11     1.000000    90.000000     0.000000     1.000000     0.000000     0.000000     0.000000     0.000000
   12    -1.000000    90.000000     0.000000     1.000000     0.000000     0.000000     0.000000     0.000000
   13     1.000000   180.000000     0.000000     0.000000     1.000000     0.000000     0.000000     0.000000
   14    -1.000000   180.000000     0.000000     0.000000     1.000000     0.000000     0.000000     0.000000
   15     1.000000   120.000000    -0.577350     0.577350     0.577350     0.000000     0.000000     0.000000
   16    -1.000000   120.000000    -0.577350     0.577350     0.577350     0.000000     0.000000     0.000000
   17     1.000000   120.000000    -0.577350     0.577350    -0.577350     0.000000     0.000000     0.000000
   18    -1.000000   120.000000    -0.577350     0.577350    -0.577350     0.000000     0.000000     0.000000
   19     1.000000    90.000000     0.000000     0.000000     1.000000     0.000000     0.000000     0.000000
   20    -1.000000    90.000000     0.000000     0.000000     1.000000     0.000000     0.000000     0.000000
   21     1.000000    90.000000    -1.000000     0.000000     0.000000     0.000000     0.000000     0.000000
   22    -1.000000    90.000000    -1.000000     0.000000     0.000000     0.000000     0.000000     0.000000
   23     1.000000   180.000000     0.707107     0.000000     0.707107     0.000000     0.000000     0.000000
   24    -1.000000   180.000000     0.707107     0.000000     0.707107     0.000000     0.000000     0.000000
   25     1.000000   120.000000     0.577350    -0.577350     0.577350     0.000000     0.000000     0.000000
   26    -1.000000   120.000000     0.577350    -0.577350     0.577350     0.000000     0.000000     0.000000
   27     1.000000   120.000000    -0.577350    -0.577350     0.577350     0.000000     0.000000     0.000000
   28    -1.000000   120.000000    -0.577350    -0.577350     0.577350     0.000000     0.000000     0.000000
   29     1.000000   180.000000     1.000000     0.000000     0.000000     0.000000     0.000000     0.000000
   30    -1.000000   180.000000     1.000000     0.000000     0.000000     0.000000     0.000000     0.000000
   31     1.000000    90.000000     0.000000    -1.000000     0.000000     0.000000     0.000000     0.000000
   32    -1.000000    90.000000     0.000000    -1.000000     0.000000     0.000000     0.000000     0.000000
   33     1.000000   180.000000     0.707107     0.707107     0.000000     0.000000     0.000000     0.000000
   34    -1.000000   180.000000     0.707107     0.707107     0.000000     0.000000     0.000000     0.000000
   35     1.000000    90.000000     1.000000     0.000000     0.000000     0.000000     0.000000     0.000000
   36    -1.000000    90.000000     1.000000     0.000000     0.000000     0.000000     0.000000     0.000000
   37     1.000000   120.000000     0.577350    -0.577350    -0.577350     0.000000     0.000000     0.000000
   38    -1.000000   120.000000     0.577350    -0.577350    -0.577350     0.000000     0.000000     0.000000
   39     1.000000   180.000000     0.000000     1.000000     0.000000     0.000000     0.000000     0.000000
   40    -1.000000   180.000000     0.000000     1.000000     0.000000     0.000000     0.000000     0.000000
   41     1.000000   120.000000     0.577350     0.577350    -0.577350     0.000000     0.000000     0.000000
   42    -1.000000   120.000000     0.577350     0.577350    -0.577350     0.000000     0.000000     0.000000
   43     1.000000   180.000000     0.000000    -0.707107     0.707107     0.000000     0.000000     0.000000
   44    -1.000000   180.000000     0.000000    -0.707107     0.707107     0.000000     0.000000     0.000000
   45     1.000000   180.000000     0.707107    -0.707107     0.000000     0.000000     0.000000     0.000000
   46    -1.000000   180.000000     0.707107    -0.707107     0.000000     0.000000     0.000000     0.000000
   47     1.000000   180.000000     0.707107     0.000000    -0.707107     0.000000     0.000000     0.000000
   48    -1.000000   180.000000     0.707107     0.000000    -0.707107     0.000000     0.000000     0.000000
 
 Subroutine IBZKPT returns following result:
 ===========================================
 
 Found      4 irreducible k-points:
 
 Following reciprocal coordinates:
            Coordinates               Weight
  0.000000  0.000000  0.000000      1.000000
  0.500000  0.000000  0.000000      3.000000
  0.500000  0.500000  0.000000      3.000000
  0.500000  0.500000  0.500000      1.000000
 
 Following cartesian coordinates:
            Coordinates               Weight
  0.000000  0.000000  0.000000      1.000000
  0.034483  0.000000  0.000000      3.000000
  0.034483  0.034483  0.000000      3.000000
  0.034483  0.034483  0.034483      1.000000
 


--------------------------------------------------------------------------------------------------------




 Dimension of arrays:
   k-points           NKPTS =      4   k-points in BZ     NKDIM =      4   number of bands    NBANDS=    978
   number of dos      NEDOS =    301   number of ions     NIONS =    250
   non local maximal  LDIM  =      7   non local SUM 2l+1 LMDIM =     25
   total plane-waves  NPLWV = 262144
   max r-space proj   IRMAX =   1509   max aug-charges    IRDMAX=   3546
   dimension x,y,z NGX =    64 NGY =   64 NGZ =   64
   dimension x,y,z NGXF=   128 NGYF=  128 NGZF=  128
   support grid    NGXF=   128 NGYF=  128 NGZF=  128
   ions per type =             125 125
   NGX,Y,Z   is equivalent  to a cutoff of   7.34,  7.34,  7.34 a.u.
   NGXF,Y,Z  is equivalent  to a cutoff of  14.68, 14.68, 14.68 a.u.

 SYSTEM =  NiAl                                    
 POSCAR =  New structure                           

 Startparameter for this run:
   NWRITE =      2    write-flag & timer
   PREC   = normal    normal or accurate (medium, high low for compatibility)
   ISTART =      0    job   : 0-new  1-cont  2-samecut
   ICHARG =      2    charge: 1-file 2-atom 10-const
   ISPIN  =      1    spin polarized calculation?
   LNONCOLLINEAR =      F non collinear calculations
   LSORBIT =      F    spin-orbit coupling
   INIWAV =      1    electr: 0-lowe 1-rand  2-diag
   LASPH  =      F    aspherical Exc in radial PAW
   METAGGA=      F    non-selfconsistent MetaGGA calc.

 Electronic Relaxation 1
   ENCUT  =  300.0 eV  22.05 Ry    4.70 a.u.  20.48 20.48 20.48*2*pi/ulx,y,z
   ENINI  =  300.0     initial cutoff
   ENAUG  =  802.3 eV  augmentation charge cutoff
   NELM   =     60;   NELMIN=  6; NELMDL= -5     # of ELM steps 
   EDIFF  = 0.5E-05   stopping-criterion for ELM
   LREAL  =      T    real-space projection
   NLSPLINE    = F    spline interpolate recip. space projectors
   LCOMPAT=      F    compatible to vasp.4.4
   GGA_COMPAT  = T    GGA compatible to vasp.4.4-vasp.4.6
   LMAXPAW     = -100 max onsite density
   LMAXMIX     =    2 max onsite mixed and CHGCAR
   VOSKOWN=      0    Vosko Wilk Nusair interpolation
   ROPT   =   -0.00050  -0.00050
 Ionic relaxation
   EDIFFG = 0.5E-04   stopping-criterion for IOM
   NSW    =      0    number of steps for IOM
   NBLOCK =      1;   KBLOCK =      1    inner block; outer block 
   IBRION =     -1    ionic relax: 0-MD 1-quasi-New 2-CG
   NFREE  =      0    steps in history (QN), initial steepest desc. (CG)
   ISIF   =      2    stress and relaxation
   IWAVPR =     10    prediction:  0-non 1-charg 2-wave 3-comb
   ISYM   =      2    0-nonsym 1-usesym 2-fastsym
   LCORR  =      T    Harris-Foulkes like correction to forces

   POTIM  = 0.5000    time-step for ionic-motion
   TEIN   =    0.0    initial temperature
   TEBEG  =    0.0;   TEEND  =   0.0 temperature during run
   SMASS  =  -3.00    Nose mass-parameter (am)
   estimated Nose-frequenzy (Omega)   =  0.10E-29 period in steps =****** mass=  -0.480E-26a.u.
   SCALEE = 1.0000    scale energy and forces
   NPACO  =    256;   APACO  = 16.0  distance and # of slots for P.C.
   PSTRESS=    0.0 pullay stress

  Mass of Ions in am
   POMASS =  58.69 26.98
  Ionic Valenz
   ZVAL   =  10.00  3.00
  Atomic Wigner-Seitz radii
   RWIGS  =  -1.00 -1.00
  virtual crystal weights 
   VCA    =   1.00  1.00
   NELECT =    1625.0000    total number of electrons
   NUPDOWN=      -1.0000    fix difference up-down

 DOS related values:
   EMIN   =  10.00;   EMAX   =-10.00  energy-range for DOS
   EFERMI =   0.00
   ISMEAR =     0;   SIGMA  =   0.05  broadening in eV -4-tet -1-fermi 0-gaus

 Electronic relaxation 2 (details)
   IALGO  =     38    algorithm
   LDIAG  =      T    sub-space diagonalisation (order eigenvalues)
   LSUBROT=      F    optimize rotation matrix (better conditioning)
   TURBO    =      0    0=normal 1=particle mesh
   IRESTART =      0    0=no restart 2=restart with 2 vectors
   NREBOOT  =      0    no. of reboots
   NMIN     =      0    reboot dimension
   EREF     =   0.00    reference energy to select bands
   IMIX   =      4    mixing-type and parameters
     AMIX     =   0.40;   BMIX     =  1.00
     AMIX_MAG =   1.60;   BMIX_MAG =  1.00
     AMIN     =   0.10
     WC   =   100.;   INIMIX=   1;  MIXPRE=   1;  MAXMIX= -45

 Intra band minimization:
   WEIMIN = 0.0000     energy-eigenvalue tresh-hold
   EBREAK =  0.13E-08  absolut break condition
   DEPER  =   0.30     relativ break condition  

   TIME   =   0.40     timestep for ELM

  volume/ion in A,a.u.               =      12.19        82.29
  Fermi-wavevector in a.u.,A,eV,Ry     =   1.327368  2.508361 23.972177  1.761905
  Thomas-Fermi vector in A             =   2.456685
 
 Write flags
   LWAVE        =      F    write WAVECAR
   LDOWNSAMPLE  =      F    k-point downsampling of WAVECAR
   LCHARG       =      F    write CHGCAR
   LVTOT        =      F    write LOCPOT, total local potential
   LVHAR        =      F    write LOCPOT, Hartree potential only
   LELF         =      F    write electronic localiz. function (ELF)
   LORBIT       =      0    0 simple, 1 ext, 2 COOP (PROOUT), +10 PAW based schemes


 Dipole corrections
   LMONO  =      F    monopole corrections only (constant potential shift)
   LDIPOL =      F    correct potential (dipole corrections)
   IDIPOL =      0    1-x, 2-y, 3-z, 4-all directions 
   EPSILON=  1.0000000 bulk dielectric constant

 Exchange correlation treatment:
   GGA     =    --    GGA type
   LEXCH   =     8    internal setting for exchange type
   VOSKOWN=      0    Vosko Wilk Nusair interpolation
   LHFCALC =     F    Hartree Fock is set to
   LHFONE  =     F    Hartree Fock one center treatment
   AEXX    =    0.0000 exact exchange contribution

 Linear response parameters
   LEPSILON=     F    determine dielectric tensor
   LRPA    =     F    only Hartree local field effects (RPA)
   LNABLA  =     F    use nabla operator in PAW spheres
   LVEL    =     F    velocity operator in full k-point grid
   LINTERFAST=   F  fast interpolation
   KINTER  =     0    interpolate to denser k-point grid
   CSHIFT  =0.1000    complex shift for real part using Kramers Kronig
   OMEGAMAX=  -1.0    maximum frequency
   DEG_THRESHOLD= 0.2000000E-02 threshold for treating states as degnerate
   RTIME   =   -0.100 relaxation time in fs
  (WPLASMAI=    0.000 imaginary part of plasma frequency in eV, 0.658/RTIME)
   DFIELD  = 0.0000000 0.0000000 0.0000000 field for delta impulse in time
 
 Orbital magnetization related:
   ORBITALMAG=     F  switch on orbital magnetization
   LCHIMAG   =     F  perturbation theory with respect to B field
   DQ        =  0.001000  dq finite difference perturbation B field
   LLRAUG    =     F  two centre corrections for induced B field



--------------------------------------------------------------------------------------------------------


 Static calculation
 charge density and potential will be updated during run
 non-spin polarized calculation
 Variant of blocked Davidson
 Davidson routine will perform the subspace rotation
 perform sub-space diagonalisation
    after iterative eigenvector-optimisation
 modified Broyden-mixing scheme, WC =      100.0
 initial mixing is a Kerker type mixing with AMIX =  0.4000 and BMIX =      1.0000
 Hartree-type preconditioning will be used
 using additional bands          165
 real space projection scheme for non local part
 use partial core corrections
 calculate Harris-corrections to forces 
   (improved forces if not selfconsistent)
 use gradient corrections 
 use of overlap-Matrix (Vanderbilt PP)
 Gauss-broadening in eV      SIGMA  =   0.05


--------------------------------------------------------------------------------------------------------


  energy-cutoff  :      300.00
  volume of cell :     3048.62
      direct lattice vectors                 reciprocal lattice vectors
    14.500000000  0.000000000  0.000000000     0.068965517  0.000000000  0.000000000
     0.000000000 14.500000000  0.000000000     0.000000000  0.068965517  0.000000000
     0.000000000  0.000000000 14.500000000     0.000000000  0.000000000  0.068965517

  length of vectors
    14.500000000 14.500000000 14.500000000     0.068965517  0.068965517  0.068965517


 
 k-points in units of 2pi/SCALE and weight: Automatic generation                    
   0.00000000  0.00000000  0.00000000       0.125
   0.03448276  0.00000000  0.00000000       0.375
   0.03448276  0.03448276  0.00000000       0.375
   0.03448276  0.03448276  0.03448276       0.125
 
 k-points in reciprocal lattice and weights: Automatic generation                    
   0.00000000  0.00000000  0.00000000       0.125
   0.50000000  0.00000000  0.00000000       0.375
   0.50000000  0.50000000  0.00000000       0.375
   0.50000000  0.50000000  0.50000000       0.125
 
 position of ions in fractional coordinates (direct lattice) 
   0.00000000  0.00000000  0.00000000
   0.00000000  0.00000000  0.20000000
   0.00000000  0.00000000  0.40000000
   0.00000000  0.00000000  0.60000000
   0.00000000  0.00000000  0.80000000
   0.00000000  0.20000000  0.00000000
   0.00000000  0.20000000  0.20000000
   0.00000000  0.20000000  0.40000000
   0.00000000  0.20000000  0.60000000
   0.00000000  0.20000000  0.80000000
   0.00000000  0.40000000  0.00000000
   0.00000000  0.40000000  0.20000000
   0.00000000  0.40000000  0.40000000
   0.00000000  0.40000000  0.60000000
   0.00000000  0.40000000  0.80000000
   0.00000000  0.60000000  0.00000000
   0.00000000  0.60000000  0.20000000
   0.00000000  0.60000000  0.40000000
   0.00000000  0.60000000  0.60000000
   0.00000000  0.60000000  0.80000000
   0.00000000  0.80000000  0.00000000
   0.00000000  0.80000000  0.20000000
   0.00000000  0.80000000  0.40000000
   0.00000000  0.80000000  0.60000000
   0.00000000  0.80000000  0.80000000
   0.20000000  0.00000000  0.00000000
   0.20000000  0.00000000  0.20000000
   0.20000000  0.00000000  0.40000000
   0.20000000  0.00000000  0.60000000
   0.20000000  0.00000000  0.80000000
   0.20000000  0.20000000  0.00000000
   0.20000000  0.20000000  0.20000000
   0.20000000  0.20000000  0.40000000
   0.20000000  0.20000000  0.60000000
   0.20000000  0.20000000  0.80000000
   0.20000000  0.40000000  0.00000000
   0.20000000  0.40000000  0.20000000
   0.20000000  0.40000000  0.40000000
   0.20000000  0.40000000  0.60000000
   0.20000000  0.40000000  0.80000000
   0.20000000  0.60000000  0.00000000
   0.20000000  0.60000000  0.20000000
   0.20000000  0.60000000  0.40000000
   0.20000000  0.60000000  0.60000000
   0.20000000  0.60000000  0.80000000
   0.20000000  0.80000000  0.00000000
   0.20000000  0.80000000  0.20000000
   0.20000000  0.80000000  0.40000000
   0.20000000  0.80000000  0.60000000
   0.20000000  0.80000000  0.80000000
   0.40000000  0.00000000  0.00000000
   0.40000000  0.00000000  0.20000000
   0.40000000  0.00000000  0.40000000
   0.40000000  0.00000000  0.60000000
   0.40000000  0.00000000  0.80000000
   0.40000000  0.20000000  0.00000000
   0.40000000  0.20000000  0.20000000
   0.40000000  0.20000000  0.40000000
   0.40000000  0.20000000  0.60000000
   0.40000000  0.20000000  0.80000000
   0.40000000  0.40000000  0.00000000
   0.40000000  0.40000000  0.20000000
   0.40000000  0.40000000  0.40000000
   0.40000000  0.40000000  0.60000000
   0.40000000  0.40000000  0.80000000
   0.40000000  0.60000000  0.00000000
   0.40000000  0.60000000  0.20000000
   0.40000000  0.60000000  0.40000000
   0.40000000  0.60000000  0.60000000
   0.40000000  0.60000000  0.80000000
   0.40000000  0.80000000  0.00000000
   0.40000000  0.80000000  0.20000000
   0.40000000  0.80000000  0.40000000
   0.40000000  0.80000000  0.60000000
   0.40000000  0.80000000  0.80000000
   0.60000000  0.00000000  0.00000000
   0.60000000  0.00000000  0.20000000
   0.60000000  0.00000000  0.40000000
   0.60000000  0.00000000  0.60000000
   0.60000000  0.00000000  0.80000000
   0.60000000  0.20000000  0.00000000
   0.60000000  0.20000000  0.20000000
   0.60000000  0.20000000  0.40000000
   0.60000000  0.20000000  0.60000000
   0.60000000  0.20000000  0.80000000
   0.60000000  0.40000000  0.00000000
   0.60000000  0.40000000  0.20000000
   0.60000000  0.40000000  0.40000000
   0.60000000  0.40000000  0.60000000
   0.60000000  0.40000000  0.80000000
   0.60000000  0.60000000  0.00000000
   0.60000000  0.60000000  0.20000000
   0.60000000  0.60000000  0.40000000
   0.60000000  0.60000000  0.60000000
   0.60000000  0.60000000  0.80000000
   0.60000000  0.80000000  0.00000000
   0.60000000  0.80000000  0.20000000
   0.60000000  0.80000000  0.40000000
   0.60000000  0.80000000  0.60000000
   0.60000000  0.80000000  0.80000000
   0.80000000  0.00000000  0.00000000
   0.80000000  0.00000000  0.20000000
   0.80000000  0.00000000  0.40000000
   0.80000000  0.00000000  0.60000000
   0.80000000  0.00000000  0.80000000
   0.80000000  0.20000000  0.00000000
   0.80000000  0.20000000  0.20000000
   0.80000000  0.20000000  0.40000000
   0.80000000  0.20000000  0.60000000
   0.80000000  0.20000000  0.80000000
   0.80000000  0.40000000  0.00000000
   0.80000000  0.40000000  0.20000000
   0.80000000  0.40000000  0.40000000
   0.80000000  0.40000000  0.60000000
   0.80000000  0.40000000  0.80000000
   0.80000000  0.60000000  0.00000000
   0.80000000  0.60000000  0.20000000
   0.80000000  0.60000000  0.40000000
   0.80000000  0.60000000  0.60000000
   0.80000000  0.60000000  0.80000000
   0.80000000  0.80000000  0.00000000
   0.80000000  0.80000000  0.20000000
   0.80000000  0.80000000  0.40000000
   0.80000000  0.80000000  0.60000000
   0.80000000  0.80000000  0.80000000
   0.10000000  0.10000000  0.10000000
   0.10000000  0.10000000  0.30000000
   0.10000000  0.10000000  0.50000000
   0.10000000  0.10000000  0.70000000
   0.10000000  0.10000000  0.90000000
   0.10000000  0.30000000  0.10000000
   0.10000000  0.30000000  0.30000000
   0.10000000  0.30000000  0.50000000
   0.10000000  0.30000000  0.70000000
   0.10000000  0.30000000  0.90000000
   0.10000000  0.50000000  0.10000000
   0.10000000  0.50000000  0.30000000
   0.10000000  0.50000000  0.50000000
   0.10000000  0.50000000  0.70000000
   0.10000000  0.50000000  0.90000000
   0.10000000  0.70000000  0.10000000
   0.10000000  0.70000000  0.30000000
   0.10000000  0.70000000  0.50000000
   0.10000000  0.70000000  0.70000000
   0.10000000  0.70000000  0.90000000
   0.10000000  0.90000000  0.10000000
   0.10000000  0.90000000  0.30000000
   0.10000000  0.90000000  0.50000000
   0.10000000  0.90000000  0.70000000
   0.10000000  0.90000000  0.90000000
   0.30000000  0.10000000  0.10000000
   0.30000000  0.10000000  0.30000000
   0.30000000  0.10000000  0.50000000
   0.30000000  0.10000000  0.70000000
   0.30000000  0.10000000  0.90000000
   0.30000000  0.30000000  0.10000000
   0.30000000  0.30000000  0.30000000
   0.30000000  0.30000000  0.50000000
   0.30000000  0.30000000  0.70000000
   0.30000000  0.30000000  0.90000000
   0.30000000  0.50000000  0.10000000
   0.30000000  0.50000000  0.30000000
   0.30000000  0.50000000  0.50000000
   0.30000000  0.50000000  0.70000000
   0.30000000  0.50000000  0.90000000
   0.30000000  0.70000000  0.10000000
   0.30000000  0.70000000  0.30000000
   0.30000000  0.70000000  0.50000000
   0.30000000  0.70000000  0.70000000
   0.30000000  0.70000000  0.90000000
   0.30000000  0.90000000  0.10000000
   0.30000000  0.90000000  0.30000000
   0.30000000  0.90000000  0.50000000
   0.30000000  0.90000000  0.70000000
   0.30000000  0.90000000  0.90000000
   0.50000000  0.10000000  0.10000000
   0.50000000  0.10000000  0.30000000
   0.50000000  0.10000000  0.50000000
   0.50000000  0.10000000  0.70000000
   0.50000000  0.10000000  0.90000000
   0.50000000  0.30000000  0.10000000
   0.50000000  0.30000000  0.30000000
   0.50000000  0.30000000  0.50000000
   0.50000000  0.30000000  0.70000000
   0.50000000  0.30000000  0.90000000
   0.50000000  0.50000000  0.10000000
   0.50000000  0.50000000  0.30000000
   0.50000000  0.50000000  0.50000000
   0.50000000  0.50000000  0.70000000
   0.50000000  0.50000000  0.90000000
   0.50000000  0.70000000  0.10000000
   0.50000000  0.70000000  0.30000000
   0.50000000  0.70000000  0.50000000
   0.50000000  0.70000000  0.70000000
   0.50000000  0.70000000  0.90000000
   0.50000000  0.90000000  0.10000000
   0.50000000  0.90000000  0.30000000
   0.50000000  0.90000000  0.50000000
   0.50000000  0.90000000  0.70000000
   0.50000000  0.90000000  0.90000000
   0.70000000  0.10000000  0.10000000
   0.70000000  0.10000000  0.30000000
   0.70000000  0.10000000  0.50000000
   0.70000000  0.10000000  0.70000000
   0.70000000  0.10000000  0.90000000
   0.70000000  0.30000000  0.10000000
   0.70000000  0.30000000  0.30000000
   0.70000000  0.30000000  0.50000000
   0.70000000  0.30000000  0.70000000
   0.70000000  0.30000000  0.90000000
   0.70000000  0.50000000  0.10000000
   0.70000000  0.50000000  0.30000000
   0.70000000  0.50000000  0.50000000
   0.70000000  0.50000000  0.70000000
   0.70000000  0.50000000  0.90000000
   0.70000000  0.70000000  0.10000000
   0.70000000  0.70000000  0.30000000
   0.70000000  0.70000000  0.50000000
   0.70000000  0.70000000  0.70000000
   0.70000000  0.70000000  0.90000000
   0.70000000  0.90000000  0.10000000
   0.70000000  0.90000000  0.30000000
   0.70000000  0.90000000  0.50000000
   0.70000000  0.90000000  0.70000000
   0.70000000  0.90000000  0.90000000
   0.90000000  0.10000000  0.10000000
   0.90000000  0.10000000  0.30000000
   0.90000000  0.10000000  0.50000000
   0.90000000  0.10000000  0.70000000
   0.90000000  0.10000000  0.90000000
   0.90000000  0.30000000  0.10000000
   0.90000000  0.30000000  0.30000000
   0.90000000  0.30000000  0.50000000
   0.90000000  0.30000000  0.70000000
   0.90000000  0.30000000  0.90000000
   0.90000000  0.50000000  0.10000000
   0.90000000  0.50000000  0.30000000
   0.90000000  0.50000000  0.50000000
   0.90000000  0.50000000  0.70000000
   0.90000000  0.50000000  0.90000000
   0.90000000  0.70000000  0.10000000
   0.90000000  0.70000000  0.30000000
   0.90000000  0.70000000  0.50000000
   0.90000000  0.70000000  0.70000000
   0.90000000  0.70000000  0.90000000
   0.90000000  0.90000000  0.10000000
   0.90000000  0.90000000  0.30000000
   0.90000000  0.90000000  0.50000000
   0.90000000  0.90000000  0.70000000
   0.90000000  0.90000000  0.90000000
 
 position of ions in cartesian coordinates  (Angst):
   0.00000000  0.00000000  0.00000000
   0.00000000  0.00000000  2.90000000
   0.00000000  0.00000000  5.80000000
   0.00000000  0.00000000  8.70000000
   0.00000000  0.00000000 11.60000000
   0.00000000  2.90000000  0.00000000
   0.00000000  2.90000000  2.90000000
   0.00000000  2.90000000  5.80000000
   0.00000000  2.90000000  8.70000000
   0.00000000  2.90000000 11.60000000
   0.00000000  5.80000000  0.00000000
   0.00000000  5.80000000  2.90000000
   0.00000000  5.80000000  5.80000000
   0.00000000  5.80000000  8.70000000
   0.00000000  5.80000000 11.60000000
   0.00000000  8.70000000  0.00000000
   0.00000000  8.70000000  2.90000000
   0.00000000  8.70000000  5.80000000
   0.00000000  8.70000000  8.70000000
   0.00000000  8.70000000 11.60000000
   0.00000000 11.60000000  0.00000000
   0.00000000 11.60000000  2.90000000
   0.00000000 11.60000000  5.80000000
   0.00000000 11.60000000  8.70000000
   0.00000000 11.60000000 11.60000000
   2.90000000  0.00000000  0.00000000
   2.90000000  0.00000000  2.90000000
   2.90000000  0.00000000  5.80000000
   2.90000000  0.00000000  8.70000000
   2.90000000  0.00000000 11.60000000
   2.90000000  2.90000000  0.00000000
   2.90000000  2.90000000  2.90000000
   2.90000000  2.90000000  5.80000000
   2.90000000  2.90000000  8.70000000
   2.90000000  2.90000000 11.60000000
   2.90000000  5.80000000  0.00000000
   2.90000000  5.80000000  2.90000000
   2.90000000  5.80000000  5.80000000
   2.90000000  5.80000000  8.70000000
   2.90000000  5.80000000 11.60000000
   2.90000000  8.70000000  0.00000000
   2.90000000  8.70000000  2.90000000
   2.90000000  8.70000000  5.80000000
   2.90000000  8.70000000  8.70000000
   2.90000000  8.70000000 11.60000000
   2.90000000 11.60000000  0.00000000
   2.90000000 11.60000000  2.90000000
   2.90000000 11.60000000  5.80000000
   2.90000000 11.60000000  8.70000000
   2.90000000 11.60000000 11.60000000
   5.80000000  0.00000000  0.00000000
   5.80000000  0.00000000  2.90000000
   5.80000000  0.00000000  5.80000000
   5.80000000  0.00000000  8.70000000
   5.80000000  0.00000000 11.60000000
   5.80000000  2.90000000  0.00000000
   5.80000000  2.90000000  2.90000000
   5.80000000  2.90000000  5.80000000
   5.80000000  2.90000000  8.70000000
   5.80000000  2.90000000 11.60000000
   5.80000000  5.80000000  0.00000000
   5.80000000  5.80000000  2.90000000
   5.80000000  5.80000000  5.80000000
   5.80000000  5.80000000  8.70000000
   5.80000000  5.80000000 11.60000000
   5.80000000  8.70000000  0.00000000
   5.80000000  8.70000000  2.90000000
   5.80000000  8.70000000  5.80000000
   5.80000000  8.70000000  8.70000000
   5.80000000  8.70000000 11.60000000
   5.80000000 11.60000000  0.00000000
   5.80000000 11.60000000  2.90000000
   5.80000000 11.60000000  5.80000000
   5.80000000 11.60000000  8.70000000
   5.80000000 11.60000000 11.60000000
   8.70000000  0.00000000  0.00000000
   8.70000000  0.00000000  2.90000000
   8.70000000  0.00000000  5.80000000
   8.70000000  0.00000000  8.70000000
   8.70000000  0.00000000 11.60000000
   8.70000000  2.90000000  0.00000000
   8.70000000  2.90000000  2.90000000
   8.70000000  2.90000000  5.80000000
   8.70000000  2.90000000  8.70000000
   8.70000000  2.90000000 11.60000000
   8.70000000  5.80000000  0.00000000
   8.70000000  5.80000000  2.90000000
   8.70000000  5.80000000  5.80000000
   8.70000000  5.80000000  8.70000000
   8.70000000  5.80000000 11.60000000
   8.70000000  8.70000000  0.00000000
   8.70000000  8.70000000  2.90000000
   8.70000000  8.70000000  5.80000000
   8.70000000  8.70000000  8.70000000
   8.70000000  8.70000000 11.60000000
   8.70000000 11.60000000  0.00000000
   8.70000000 11.60000000  2.90000000
   8.70000000 11.60000000  5.80000000
   8.70000000 11.60000000  8.70000000
   8.70000000 11.60000000 11.60000000
  11.60000000  0.00000000  0.00000000
  11.60000000  0.00000000  2.90000000
  11.60000000  0.00000000  5.80000000
  11.60000000  0.00000000  8.70000000
  11.60000000  0.00000000 11.60000000
  11.60000000  2.90000000  0.00000000
  11.60000000  2.90000000  2.90000000
  11.60000000  2.90000000  5.80000000
  11.60000000  2.90000000  8.70000000
  11.60000000  2.90000000 11.60000000
  11.60000000  5.80000000  0.00000000
  11.60000000  5.80000000  2.90000000
  11.60000000  5.80000000  5.80000000
  11.60000000  5.80000000  8.70000000
  11.60000000  5.80000000 11.60000000
  11.60000000  8.70000000  0.00000000
  11.60000000  8.70000000  2.90000000
  11.60000000  8.70000000  5.80000000
  11.60000000  8.70000000  8.70000000
  11.60000000  8.70000000 11.60000000
  11.60000000 11.60000000  0.00000000
  11.60000000 11.60000000  2.90000000
  11.60000000 11.60000000  5.80000000
  11.60000000 11.60000000  8.70000000
  11.60000000 11.60000000 11.60000000
   1.45000000  1.45000000  1.45000000
   1.45000000  1.45000000  4.35000000
   1.45000000  1.45000000  7.25000000
   1.45000000  1.45000000 10.15000000
   1.45000000  1.45000000 13.05000000
   1.45000000  4.35000000  1.45000000
   1.45000000  4.35000000  4.35000000
   1.45000000  4.35000000  7.25000000
   1.45000000  4.35000000 10.15000000
   1.45000000  4.35000000 13.05000000
   1.45000000  7.25000000  1.45000000
   1.45000000  7.25000000  4.35000000
[...]
      2.90000      5.80000      5.80000        -0.000000     -0.000000      0.000000
      2.90000      5.80000      8.70000        -0.000000     -0.000000     -0.000000
      2.90000      5.80000     11.60000        -0.000000     -0.000000     -0.000000
      2.90000      8.70000      0.00000        -0.000000     -0.000000      0.000000
      2.90000      8.70000      2.90000        -0.000000     -0.000000     -0.000000
      2.90000      8.70000      5.80000        -0.000000      0.000000     -0.000000
      2.90000      8.70000      8.70000        -0.000000     -0.000000     -0.000000
      2.90000      8.70000     11.60000        -0.000000     -0.000000      0.000000
      2.90000     11.60000      0.00000        -0.000000     -0.000000      0.000000
      2.90000     11.60000      2.90000        -0.000000     -0.000000     -0.000000
      2.90000     11.60000      5.80000        -0.000000     -0.000000      0.000000
      2.90000     11.60000      8.70000        -0.000000     -0.000000     -0.000000
      2.90000     11.60000     11.60000        -0.000000     -0.000000     -0.000000
      5.80000      0.00000      0.00000         0.000000      0.000000     -0.000000
      5.80000      0.00000      2.90000         0.000000      0.000000      0.000000
      5.80000      0.00000      5.80000         0.000000      0.000000     -0.000000
      5.80000      0.00000      8.70000         0.000000      0.000000      0.000000
      5.80000      0.00000     11.60000         0.000000     -0.000000      0.000000
      5.80000      2.90000      0.00000         0.000000      0.000000     -0.000000
      5.80000      2.90000      2.90000         0.000000     -0.000000      0.000000
      5.80000      2.90000      5.80000         0.000000      0.000000      0.000000
      5.80000      2.90000      8.70000         0.000000      0.000000      0.000000
      5.80000      2.90000     11.60000         0.000000      0.000000     -0.000000
      5.80000      5.80000      0.00000         0.000000     -0.000000      0.000000
      5.80000      5.80000      2.90000         0.000000     -0.000000     -0.000000
      5.80000      5.80000      5.80000         0.000000     -0.000000      0.000000
      5.80000      5.80000      8.70000         0.000000     -0.000000     -0.000000
      5.80000      5.80000     11.60000         0.000000      0.000000      0.000000
      5.80000      8.70000      0.00000        -0.000000      0.000000     -0.000000
      5.80000      8.70000      2.90000        -0.000000      0.000000     -0.000000
      5.80000      8.70000      5.80000        -0.000000      0.000000     -0.000000
      5.80000      8.70000      8.70000        -0.000000      0.000000     -0.000000
      5.80000      8.70000     11.60000        -0.000000      0.000000     -0.000000
      5.80000     11.60000      0.00000        -0.000000      0.000000     -0.000000
      5.80000     11.60000      2.90000        -0.000000      0.000000     -0.000000
      5.80000     11.60000      5.80000        -0.000000      0.000000      0.000000
      5.80000     11.60000      8.70000        -0.000000      0.000000     -0.000000
      5.80000     11.60000     11.60000         0.000000      0.000000     -0.000000
      8.70000      0.00000      0.00000         0.000000      0.000000     -0.000000
      8.70000      0.00000      2.90000         0.000000      0.000000      0.000000
      8.70000      0.00000      5.80000         0.000000      0.000000     -0.000000
      8.70000      0.00000      8.70000         0.000000      0.000000      0.000000
      8.70000      0.00000     11.60000         0.000000      0.000000     -0.000000
      8.70000      2.90000      0.00000         0.000000     -0.000000     -0.000000
      8.70000      2.90000      2.90000         0.000000     -0.000000      0.000000
      8.70000      2.90000      5.80000         0.000000     -0.000000      0.000000
      8.70000      2.90000      8.70000         0.000000     -0.000000      0.000000
      8.70000      2.90000     11.60000         0.000000     -0.000000     -0.000000
      8.70000      5.80000      0.00000         0.000000      0.000000      0.000000
      8.70000      5.80000      2.90000         0.000000      0.000000     -0.000000
      8.70000      5.80000      5.80000         0.000000      0.000000      0.000000
      8.70000      5.80000      8.70000         0.000000      0.000000     -0.000000
      8.70000      5.80000     11.60000         0.000000      0.000000      0.000000
      8.70000      8.70000      0.00000         0.000000      0.000000      0.000000
      8.70000      8.70000      2.90000         0.000000      0.000000     -0.000000
      8.70000      8.70000      5.80000         0.000000     -0.000000     -0.000000
      8.70000      8.70000      8.70000         0.000000      0.000000     -0.000000
      8.70000      8.70000     11.60000         0.000000      0.000000      0.000000
      8.70000     11.60000      0.00000         0.000000      0.000000      0.000000
      8.70000     11.60000      2.90000         0.000000      0.000000     -0.000000
      8.70000     11.60000      5.80000         0.000000      0.000000      0.000000
      8.70000     11.60000      8.70000         0.000000      0.000000     -0.000000
      8.70000     11.60000     11.60000         0.000000      0.000000      0.000000
     11.60000      0.00000      0.00000        -0.000000     -0.000000     -0.000000
     11.60000      0.00000      2.90000        -0.000000     -0.000000      0.000000
     11.60000      0.00000      5.80000        -0.000000     -0.000000      0.000000
     11.60000      0.00000      8.70000        -0.000000     -0.000000      0.000000
     11.60000      0.00000     11.60000        -0.000000     -0.000000     -0.000000
     11.60000      2.90000      0.00000        -0.000000      0.000000     -0.000000
     11.60000      2.90000      2.90000        -0.000000      0.000000      0.000000
     11.60000      2.90000      5.80000        -0.000000      0.000000      0.000000
     11.60000      2.90000      8.70000        -0.000000      0.000000      0.000000
     11.60000      2.90000     11.60000        -0.000000      0.000000     -0.000000
     11.60000      5.80000      0.00000        -0.000000      0.000000      0.000000
     11.60000      5.80000      2.90000        -0.000000      0.000000      0.000000
     11.60000      5.80000      5.80000        -0.000000      0.000000      0.000000
     11.60000      5.80000      8.70000        -0.000000      0.000000      0.000000
     11.60000      5.80000     11.60000        -0.000000     -0.000000     -0.000000
     11.60000      8.70000      0.00000        -0.000000      0.000000     -0.000000
     11.60000      8.70000      2.90000        -0.000000      0.000000     -0.000000
     11.60000      8.70000      5.80000        -0.000000      0.000000     -0.000000
     11.60000      8.70000      8.70000        -0.000000      0.000000     -0.000000
     11.60000      8.70000     11.60000        -0.000000      0.000000      0.000000
     11.60000     11.60000      0.00000        -0.000000     -0.000000      0.000000
     11.60000     11.60000      2.90000        -0.000000     -0.000000     -0.000000
     11.60000     11.60000      5.80000        -0.000000     -0.000000      0.000000
     11.60000     11.60000      8.70000        -0.000000     -0.000000     -0.000000
     11.60000     11.60000     11.60000        -0.000000     -0.000000      0.000000
      1.45000      1.45000      1.45000         0.000000      0.000000     -0.000000
      1.45000      1.45000      4.35000         0.000000      0.000000     -0.000000
      1.45000      1.45000      7.25000         0.000000      0.000000     -0.000000
      1.45000      1.45000     10.15000         0.000000      0.000000     -0.000000
      1.45000      1.45000     13.05000         0.000000      0.000000      0.000000
      1.45000      4.35000      1.45000         0.000000     -0.000000     -0.000000
      1.45000      4.35000      4.35000         0.000000     -0.000000     -0.000000
      1.45000      4.35000      7.25000         0.000000     -0.000000     -0.000000
      1.45000      4.35000     10.15000         0.000000     -0.000000     -0.000000
      1.45000      4.35000     13.05000         0.000000     -0.000000      0.000000
      1.45000      7.25000      1.45000         0.000000     -0.000000      0.000000
      1.45000      7.25000      4.35000         0.000000     -0.000000      0.000000
      1.45000      7.25000      7.25000         0.000000     -0.000000      0.000000
      1.45000      7.25000     10.15000         0.000000     -0.000000      0.000000
      1.45000      7.25000     13.05000         0.000000     -0.000000     -0.000000
      1.45000     10.15000      1.45000         0.000000      0.000000      0.000000
      1.45000     10.15000      4.35000         0.000000      0.000000     -0.000000
      1.45000     10.15000      7.25000         0.000000      0.000000     -0.000000
      1.45000     10.15000     10.15000         0.000000      0.000000      0.000000
      1.45000     10.15000     13.05000         0.000000      0.000000     -0.000000
      1.45000     13.05000      1.45000         0.000000      0.000000      0.000000
      1.45000     13.05000      4.35000         0.000000      0.000000     -0.000000
      1.45000     13.05000      7.25000         0.000000      0.000000     -0.000000
      1.45000     13.05000     10.15000         0.000000      0.000000      0.000000
      1.45000     13.05000     13.05000         0.000000      0.000000      0.000000
      4.35000      1.45000      1.45000        -0.000000      0.000000     -0.000000
      4.35000      1.45000      4.35000        -0.000000      0.000000     -0.000000
      4.35000      1.45000      7.25000        -0.000000      0.000000     -0.000000
      4.35000      1.45000     10.15000        -0.000000      0.000000     -0.000000
      4.35000      1.45000     13.05000        -0.000000      0.000000      0.000000
      4.35000      4.35000      1.45000        -0.000000     -0.000000     -0.000000
      4.35000      4.35000      4.35000        -0.000000     -0.000000      0.000000
      4.35000      4.35000      7.25000        -0.000000     -0.000000      0.000000
      4.35000      4.35000     10.15000        -0.000000     -0.000000     -0.000000
      4.35000      4.35000     13.05000        -0.000000     -0.000000      0.000000
      4.35000      7.25000      1.45000        -0.000000     -0.000000      0.000000
      4.35000      7.25000      4.35000        -0.000000     -0.000000      0.000000
      4.35000      7.25000      7.25000        -0.000000     -0.000000      0.000000
      4.35000      7.25000     10.15000        -0.000000     -0.000000      0.000000
      4.35000      7.25000     13.05000        -0.000000     -0.000000     -0.000000
      4.35000     10.15000      1.45000        -0.000000      0.000000      0.000000
      4.35000     10.15000      4.35000        -0.000000     -0.000000     -0.000000
      4.35000     10.15000      7.25000        -0.000000      0.000000      0.000000
      4.35000     10.15000     10.15000        -0.000000     -0.000000      0.000000
      4.35000     10.15000     13.05000        -0.000000     -0.000000     -0.000000
      4.35000     13.05000      1.45000        -0.000000     -0.000000      0.000000
      4.35000     13.05000      4.35000        -0.000000     -0.000000     -0.000000
      4.35000     13.05000      7.25000         0.000000     -0.000000     -0.000000
      4.35000     13.05000     10.15000         0.000000     -0.000000     -0.000000
      4.35000     13.05000     13.05000        -0.000000     -0.000000      0.000000
      7.25000      1.45000      1.45000        -0.000000      0.000000     -0.000000
      7.25000      1.45000      4.35000         0.000000      0.000000      0.000000
      7.25000      1.45000      7.25000         0.000000      0.000000      0.000000
      7.25000      1.45000     10.15000         0.000000      0.000000     -0.000000
      7.25000      1.45000     13.05000        -0.000000      0.000000      0.000000
      7.25000      4.35000      1.45000         0.000000     -0.000000     -0.000000
      7.25000      4.35000      4.35000         0.000000     -0.000000     -0.000000
      7.25000      4.35000      7.25000         0.000000     -0.000000     -0.000000
      7.25000      4.35000     10.15000         0.000000     -0.000000     -0.000000
      7.25000      4.35000     13.05000         0.000000     -0.000000      0.000000
      7.25000      7.25000      1.45000         0.000000     -0.000000      0.000000
      7.25000      7.25000      4.35000         0.000000     -0.000000     -0.000000
      7.25000      7.25000      7.25000         0.000000     -0.000000     -0.000000
      7.25000      7.25000     10.15000         0.000000     -0.000000      0.000000
      7.25000      7.25000     13.05000         0.000000     -0.000000     -0.000000
      7.25000     10.15000      1.45000         0.000000      0.000000      0.000000
      7.25000     10.15000      4.35000         0.000000      0.000000      0.000000
      7.25000     10.15000      7.25000         0.000000      0.000000      0.000000
      7.25000     10.15000     10.15000         0.000000      0.000000      0.000000
      7.25000     10.15000     13.05000         0.000000      0.000000     -0.000000
      7.25000     13.05000      1.45000        -0.000000      0.000000     -0.000000
      7.25000     13.05000      4.35000        -0.000000      0.000000      0.000000
      7.25000     13.05000      7.25000        -0.000000      0.000000      0.000000
      7.25000     13.05000     10.15000         0.000000      0.000000     -0.000000
      7.25000     13.05000     13.05000         0.000000     -0.000000     -0.000000
     10.15000      1.45000      1.45000         0.000000     -0.000000     -0.000000
     10.15000      1.45000      4.35000         0.000000     -0.000000     -0.000000
     10.15000      1.45000      7.25000         0.000000     -0.000000     -0.000000
     10.15000      1.45000     10.15000         0.000000     -0.000000     -0.000000
     10.15000      1.45000     13.05000         0.000000     -0.000000      0.000000
     10.15000      4.35000      1.45000         0.000000     -0.000000     -0.000000
     10.15000      4.35000      4.35000         0.000000     -0.000000     -0.000000
     10.15000      4.35000      7.25000         0.000000     -0.000000     -0.000000
     10.15000      4.35000     10.15000         0.000000     -0.000000     -0.000000
     10.15000      4.35000     13.05000         0.000000     -0.000000      0.000000
     10.15000      7.25000      1.45000         0.000000     -0.000000      0.000000
     10.15000      7.25000      4.35000         0.000000     -0.000000     -0.000000
     10.15000      7.25000      7.25000         0.000000     -0.000000     -0.000000
     10.15000      7.25000     10.15000         0.000000     -0.000000      0.000000
     10.15000      7.25000     13.05000         0.000000     -0.000000     -0.000000
     10.15000     10.15000      1.45000         0.000000      0.000000      0.000000
     10.15000     10.15000      4.35000         0.000000     -0.000000      0.000000
     10.15000     10.15000      7.25000         0.000000      0.000000      0.000000
     10.15000     10.15000     10.15000         0.000000      0.000000      0.000000
     10.15000     10.15000     13.05000         0.000000      0.000000     -0.000000
     10.15000     13.05000      1.45000         0.000000     -0.000000     -0.000000
     10.15000     13.05000      4.35000        -0.000000     -0.000000      0.000000
     10.15000     13.05000      7.25000        -0.000000     -0.000000      0.000000
     10.15000     13.05000     10.15000         0.000000     -0.000000     -0.000000
     10.15000     13.05000     13.05000        -0.000000     -0.000000     -0.000000
     13.05000      1.45000      1.45000        -0.000000      0.000000     -0.000000
     13.05000      1.45000      4.35000        -0.000000      0.000000     -0.000000
     13.05000      1.45000      7.25000        -0.000000      0.000000     -0.000000
     13.05000      1.45000     10.15000        -0.000000      0.000000     -0.000000
     13.05000      1.45000     13.05000        -0.000000      0.000000      0.000000
     13.05000      4.35000      1.45000         0.000000     -0.000000     -0.000000
     13.05000      4.35000      4.35000         0.000000     -0.000000     -0.000000
     13.05000      4.35000      7.25000         0.000000     -0.000000     -0.000000
     13.05000      4.35000     10.15000         0.000000     -0.000000     -0.000000
     13.05000      4.35000     13.05000         0.000000     -0.000000      0.000000
     13.05000      7.25000      1.45000        -0.000000     -0.000000      0.000000
     13.05000      7.25000      4.35000         0.000000     -0.000000      0.000000
     13.05000      7.25000      7.25000        -0.000000     -0.000000      0.000000
     13.05000      7.25000     10.15000        -0.000000     -0.000000      0.000000
     13.05000      7.25000     13.05000         0.000000     -0.000000     -0.000000
     13.05000     10.15000      1.45000         0.000000     -0.000000      0.000000
     13.05000     10.15000      4.35000         0.000000      0.000000      0.000000
     13.05000     10.15000      7.25000         0.000000     -0.000000      0.000000
     13.05000     10.15000     10.15000         0.000000      0.000000      0.000000
     13.05000     10.15000     13.05000         0.000000     -0.000000     -0.000000
     13.05000     13.05000      1.45000         0.000000     -0.000000      0.000000
     13.05000     13.05000      4.35000         0.000000     -0.000000     -0.000000
     13.05000     13.05000      7.25000         0.000000     -0.000000     -0.000000
     13.05000     13.05000     10.15000        -0.000000     -0.000000     -0.000000
     13.05000     13.05000     13.05000         0.000000     -0.000000     -0.000000
 -----------------------------------------------------------------------------------
    total drift:                                0.000000      0.000000      0.000000


--------------------------------------------------------------------------------------------------------



  FREE ENERGIE OF THE ION-ELECTRON SYSTEM (eV)
  ---------------------------------------------------
  free  energy   TOTEN  =     -1308.22708575 eV

  energy  without entropy=    -1308.11724184  energy(sigma->0) =    -1308.17216379
 


--------------------------------------------------------------------------------------------------------


    POTLOK:  cpu time    0.2975: real time    0.2984


--------------------------------------------------------------------------------------------------------


     LOOP+:  cpu time  666.0448: real time  798.9242
    4ORBIT:  cpu time    0.0000: real time    0.0000

 total amount of memory used by VASP MPI-rank0   583716. kBytes
=======================================================================

   base      :      30000. kBytes
   nonlr-proj:      69926. kBytes
   fftplans  :      13257. kBytes
   grid      :      30961. kBytes
   one-center:       7500. kBytes
   wavefun   :     432072. kBytes
 
  
  
 General timing and accounting informations for this job:
 ========================================================
  
                  Total CPU time used (sec):      681.204
                            User time (sec):      117.727
                          System time (sec):      563.477
                         Elapsed time (sec):      821.662
  
                   Maximum memory used (kb):      903784.
                   Average memory used (kb):           0.
  
                          Minor page faults:     16079754
                          Major page faults:           33
                 Voluntary context switches:        17308
