 256 256   0   0
  0.1660138E+02  0.1619800E-08  0.1619800E-08  0.1619800E-08  0.5000000E-15
  1.000000000000000E-004
  CAR 
 NiAl                                    
     10.10349304     -5.11389440  301      6.81061257      1.00000000
     -5.114  0.0000E+00  0.0000E+00
     -5.063  0.0000E+00  0.0000E+00
     -5.012  0.0000E+00  0.0000E+00
     -4.962  0.0000E+00  0.0000E+00
     -4.911  0.0000E+00  0.0000E+00
     -4.860  0.0000E+00  0.0000E+00
     -4.810  0.0000E+00  0.0000E+00
     -4.759  0.0000E+00  0.0000E+00
     -4.708  0.1642E-14  0.8327E-16
     -4.657  0.7133E-10  0.3618E-11
     -4.607  0.4477E-06  0.2272E-07
     -4.556  0.3823E-03  0.1941E-04
     -4.505  0.4617E-01  0.2361E-02
     -4.454  0.8437E+00  0.4516E-01
     -4.404  0.2563E+01  0.1752E+00
     -4.353  0.1975E+01  0.2753E+00
     -4.302  0.7640E+01  0.6629E+00
     -4.252  0.1554E+02  0.1451E+01
     -4.201  0.8134E+01  0.1863E+01
     -4.150  0.2091E+02  0.2924E+01
     -4.099  0.2881E+02  0.4385E+01
     -4.049  0.1019E+02  0.4902E+01
     -3.998  0.1751E+02  0.5790E+01
     -3.947  0.1640E+02  0.6622E+01
     -3.897  0.6760E+01  0.6965E+01
     -3.846  0.1494E+02  0.7723E+01
     -3.795  0.1120E+02  0.8291E+01
     -3.744  0.2696E+02  0.9658E+01
     -3.694  0.6240E+02  0.1282E+02
     -3.643  0.3031E+02  0.1436E+02
     -3.592  0.3919E+02  0.1635E+02
     -3.541  0.5952E+02  0.1937E+02
     -3.491  0.1662E+02  0.2021E+02
     -3.440  0.7649E+00  0.2025E+02
     -3.389  0.3040E+00  0.2027E+02
     -3.339  0.7275E+01  0.2063E+02
     -3.288  0.2897E+02  0.2210E+02
     -3.237  0.2209E+02  0.2322E+02
     -3.186  0.3235E+02  0.2487E+02
     -3.136  0.7784E+02  0.2881E+02
     -3.085  0.3905E+02  0.3079E+02
     -3.034  0.3831E+02  0.3274E+02
     -2.983  0.6049E+02  0.3581E+02
     -2.933  0.2541E+02  0.3710E+02
     -2.882  0.4860E+02  0.3956E+02
     -2.831  0.5271E+02  0.4223E+02
     -2.781  0.1476E+02  0.4298E+02
     -2.730  0.1950E+02  0.4397E+02
     -2.679  0.1518E+02  0.4474E+02
     -2.628  0.2548E+02  0.4603E+02
     -2.578  0.6232E+02  0.4920E+02
     -2.527  0.3586E+02  0.5101E+02
     -2.476  0.7414E+02  0.5478E+02
     -2.425  0.1203E+03  0.6088E+02
     -2.375  0.3524E+02  0.6266E+02
     -2.324  0.1703E+01  0.6275E+02
     -2.273  0.1733E+00  0.6276E+02
     -2.223  0.3789E+01  0.6295E+02
     -2.172  0.1464E+02  0.6369E+02
     -2.121  0.1338E+02  0.6437E+02
     -2.070  0.5234E+02  0.6703E+02
     -2.020  0.1248E+03  0.7336E+02
     -1.969  0.5976E+02  0.7639E+02
     -1.918  0.6157E+02  0.7951E+02
     -1.868  0.8869E+02  0.8401E+02
     -1.817  0.3292E+02  0.8568E+02
     -1.766  0.5217E+02  0.8832E+02
     -1.715  0.5009E+02  0.9087E+02
     -1.665  0.2578E+02  0.9217E+02
     -1.614  0.6035E+02  0.9523E+02
     -1.563  0.4074E+02  0.9730E+02
     -1.512  0.6240E+02  0.1005E+03
     -1.462  0.1243E+03  0.1068E+03
     -1.411  0.5170E+02  0.1094E+03
     -1.360  0.4562E+02  0.1117E+03
     -1.310  0.5639E+02  0.1146E+03
     -1.259  0.1298E+02  0.1152E+03
     -1.208  0.4976E+00  0.1153E+03
     -1.157  0.1295E+01  0.1153E+03
     -1.107  0.2192E+02  0.1164E+03
     -1.056  0.6189E+02  0.1196E+03
     -1.005  0.3507E+02  0.1213E+03
     -0.954  0.4686E+02  0.1237E+03
     -0.904  0.7612E+02  0.1276E+03
     -0.853  0.4742E+02  0.1300E+03
     -0.802  0.1493E+03  0.1376E+03
     -0.752  0.1540E+03  0.1454E+03
     -0.701  0.5013E+02  0.1479E+03
     -0.650  0.8046E+02  0.1520E+03
     -0.599  0.4904E+02  0.1545E+03
     -0.549  0.5151E+01  0.1547E+03
     -0.498  0.4573E+00  0.1548E+03
     -0.447  0.1754E+02  0.1557E+03
     -0.397  0.1306E+03  0.1623E+03
     -0.346  0.1685E+03  0.1708E+03
     -0.295  0.6410E+02  0.1741E+03
     -0.244  0.1148E+03  0.1799E+03
     -0.194  0.8452E+02  0.1842E+03
     -0.143  0.1082E+02  0.1847E+03
     -0.092  0.2553E+00  0.1848E+03
     -0.041  0.2114E+01  0.1849E+03
      0.009  0.1911E+02  0.1858E+03
      0.060  0.3018E+02  0.1874E+03
      0.111  0.2857E+02  0.1888E+03
      0.161  0.1061E+03  0.1942E+03
      0.212  0.9688E+02  0.1991E+03
      0.263  0.5554E+02  0.2019E+03
      0.314  0.1232E+03  0.2082E+03
      0.364  0.7181E+02  0.2118E+03
      0.415  0.7649E+02  0.2157E+03
      0.466  0.1211E+03  0.2218E+03
      0.517  0.4739E+02  0.2242E+03
      0.567  0.6487E+02  0.2275E+03
      0.618  0.6367E+02  0.2308E+03
      0.669  0.3390E+02  0.2325E+03
      0.719  0.6254E+02  0.2357E+03
      0.770  0.3944E+02  0.2377E+03
      0.821  0.1061E+03  0.2430E+03
      0.872  0.1816E+03  0.2523E+03
      0.922  0.5621E+02  0.2551E+03
      0.973  0.2912E+01  0.2552E+03
      1.024  0.1293E+01  0.2553E+03
      1.075  0.2172E+02  0.2564E+03
      1.125  0.6198E+02  0.2596E+03
      1.176  0.4398E+02  0.2618E+03
      1.227  0.1386E+03  0.2688E+03
      1.277  0.2431E+03  0.2812E+03
      1.328  0.9172E+02  0.2858E+03
      1.379  0.9902E+02  0.2908E+03
      1.430  0.1063E+03  0.2962E+03
      1.480  0.3753E+02  0.2981E+03
      1.531  0.6053E+02  0.3012E+03
      1.582  0.4056E+02  0.3033E+03
      1.632  0.4095E+02  0.3053E+03
      1.683  0.6038E+02  0.3084E+03
      1.734  0.4265E+02  0.3106E+03
      1.785  0.1505E+03  0.3182E+03
      1.835  0.1537E+03  0.3260E+03
      1.886  0.7021E+02  0.3296E+03
      1.937  0.1243E+03  0.3359E+03
      1.988  0.6163E+02  0.3390E+03
      2.038  0.5937E+01  0.3393E+03
      2.089  0.6586E+01  0.3396E+03
      2.140  0.9766E+01  0.3401E+03
      2.190  0.2682E+01  0.3403E+03
      2.241  0.6652E+01  0.3406E+03
      2.292  0.7199E+02  0.3442E+03
      2.343  0.1793E+03  0.3533E+03
      2.393  0.1443E+03  0.3607E+03
      2.444  0.1047E+03  0.3660E+03
      2.495  0.6841E+02  0.3694E+03
      2.546  0.8200E+02  0.3736E+03
      2.596  0.1742E+03  0.3824E+03
      2.647  0.9599E+02  0.3873E+03
      2.698  0.3676E+02  0.3892E+03
      2.748  0.6458E+02  0.3924E+03
      2.799  0.6559E+02  0.3958E+03
      2.850  0.1741E+03  0.4046E+03
      2.901  0.2084E+03  0.4152E+03
      2.951  0.1465E+03  0.4226E+03
      3.002  0.1154E+03  0.4285E+03
      3.053  0.2845E+02  0.4299E+03
      3.103  0.4863E+02  0.4324E+03
      3.154  0.1185E+03  0.4384E+03
      3.205  0.6042E+02  0.4414E+03
      3.256  0.6315E+01  0.4418E+03
      3.306  0.1055E+02  0.4423E+03
      3.357  0.7650E+02  0.4462E+03
      3.408  0.1540E+03  0.4540E+03
      3.459  0.1181E+03  0.4600E+03
      3.509  0.7781E+02  0.4639E+03
      3.560  0.4255E+02  0.4661E+03
      3.611  0.8496E+02  0.4704E+03
      3.661  0.1465E+03  0.4778E+03
      3.712  0.9296E+02  0.4825E+03
      3.763  0.3020E+02  0.4841E+03
      3.814  0.8858E+01  0.4845E+03
      3.864  0.3732E+02  0.4864E+03
      3.915  0.2166E+03  0.4974E+03
      3.966  0.3022E+03  0.5127E+03
      4.017  0.1156E+03  0.5186E+03
      4.067  0.3250E+02  0.5202E+03
      4.118  0.1776E+02  0.5211E+03
      4.169  0.8958E+02  0.5257E+03
      4.219  0.1127E+03  0.5314E+03
      4.270  0.4480E+02  0.5337E+03
      4.321  0.3048E+02  0.5352E+03
      4.372  0.4098E+02  0.5373E+03
      4.422  0.1706E+03  0.5460E+03
      4.473  0.2364E+03  0.5579E+03
      4.524  0.1291E+03  0.5645E+03
      4.575  0.3422E+02  0.5662E+03
      4.625  0.6631E+02  0.5696E+03
      4.676  0.1115E+03  0.5752E+03
      4.727  0.1232E+03  0.5815E+03
      4.777  0.5486E+02  0.5843E+03
      4.828  0.4433E+02  0.5865E+03
      4.879  0.7119E+02  0.5901E+03
      4.930  0.1071E+03  0.5956E+03
      4.980  0.1518E+03  0.6033E+03
      5.031  0.1061E+03  0.6087E+03
      5.082  0.9036E+02  0.6132E+03
      5.132  0.1228E+03  0.6195E+03
      5.183  0.1239E+03  0.6258E+03
      5.234  0.5427E+02  0.6285E+03
      5.285  0.2504E+02  0.6298E+03
      5.335  0.5198E+02  0.6324E+03
      5.386  0.5287E+02  0.6351E+03
      5.437  0.5304E+02  0.6378E+03
      5.488  0.8130E+02  0.6419E+03
      5.538  0.1062E+03  0.6473E+03
      5.589  0.1408E+03  0.6544E+03
      5.640  0.1781E+03  0.6635E+03
      5.690  0.1143E+03  0.6693E+03
      5.741  0.1572E+03  0.6772E+03
      5.792  0.1681E+03  0.6858E+03
      5.843  0.7871E+02  0.6898E+03
      5.893  0.5609E+02  0.6926E+03
      5.944  0.9697E+02  0.6975E+03
      5.995  0.9448E+02  0.7023E+03
      6.046  0.9215E+02  0.7070E+03
      6.096  0.1671E+03  0.7155E+03
      6.147  0.1642E+03  0.7238E+03
      6.198  0.1124E+03  0.7295E+03
      6.248  0.5616E+02  0.7323E+03
      6.299  0.6734E+02  0.7358E+03
      6.350  0.6413E+02  0.7390E+03
      6.401  0.5354E+02  0.7417E+03
      6.451  0.1568E+02  0.7425E+03
      6.502  0.5450E+02  0.7453E+03
      6.553  0.1348E+03  0.7521E+03
      6.603  0.1212E+03  0.7583E+03
      6.654  0.3649E+02  0.7601E+03
      6.705  0.3207E+01  0.7603E+03
      6.756  0.2138E+02  0.7614E+03
      6.806  0.1172E+03  0.7673E+03
      6.857  0.1479E+03  0.7748E+03
      6.908  0.1326E+03  0.7815E+03
      6.959  0.1142E+03  0.7873E+03
      7.009  0.1230E+03  0.7936E+03
      7.060  0.1788E+03  0.8026E+03
      7.111  0.2475E+03  0.8152E+03
      7.161  0.1805E+03  0.8244E+03
      7.212  0.5399E+02  0.8271E+03
      7.263  0.7693E+02  0.8310E+03
      7.314  0.1038E+03  0.8363E+03
      7.364  0.9204E+02  0.8409E+03
      7.415  0.5671E+02  0.8438E+03
      7.466  0.3324E+02  0.8455E+03
      7.517  0.1381E+03  0.8525E+03
      7.567  0.3014E+03  0.8678E+03
      7.618  0.2539E+03  0.8807E+03
      7.669  0.6171E+02  0.8838E+03
      7.719  0.9614E+02  0.8887E+03
      7.770  0.1423E+03  0.8959E+03
      7.821  0.1182E+03  0.9019E+03
      7.872  0.1511E+03  0.9095E+03
      7.922  0.1202E+03  0.9156E+03
      7.973  0.3835E+02  0.9176E+03
      8.024  0.3733E+01  0.9178E+03
      8.075  0.2034E+02  0.9188E+03
      8.125  0.1157E+03  0.9247E+03
      8.176  0.1583E+03  0.9327E+03
      8.227  0.1398E+03  0.9398E+03
      8.277  0.1245E+03  0.9461E+03
      8.328  0.3097E+02  0.9477E+03
      8.379  0.5248E+01  0.9480E+03
      8.430  0.3066E+02  0.9495E+03
      8.480  0.8651E+02  0.9539E+03
      8.531  0.1789E+03  0.9630E+03
      8.582  0.2075E+03  0.9735E+03
      8.632  0.8774E+02  0.9779E+03
      8.683  0.6324E+02  0.9812E+03
      8.734  0.7871E+02  0.9852E+03
      8.785  0.1043E+03  0.9904E+03
      8.835  0.9786E+02  0.9954E+03
      8.886  0.9460E+02  0.1000E+04
      8.937  0.1471E+03  0.1008E+04
      8.988  0.1485E+03  0.1015E+04
      9.038  0.9078E+02  0.1020E+04
      9.089  0.8161E+02  0.1024E+04
      9.140  0.7284E+02  0.1028E+04
      9.190  0.4304E+02  0.1030E+04
      9.241  0.1428E+02  0.1031E+04
      9.292  0.1370E+02  0.1031E+04
      9.343  0.8532E+01  0.1032E+04
      9.393  0.2999E+01  0.1032E+04
      9.444  0.2637E+01  0.1032E+04
      9.495  0.8444E+00  0.1032E+04
      9.546  0.4617E-01  0.1032E+04
      9.596  0.3823E-03  0.1032E+04
      9.647  0.4477E-06  0.1032E+04
      9.698  0.7133E-10  0.1032E+04
      9.748  0.1642E-14  0.1032E+04
      9.799  0.0000E+00  0.1032E+04
      9.850  0.0000E+00  0.1032E+04
      9.901  0.0000E+00  0.1032E+04
      9.951  0.0000E+00  0.1032E+04
     10.002  0.0000E+00  0.1032E+04
     10.053  0.0000E+00  0.1032E+04
     10.103  0.0000E+00  0.1032E+04
