       N       E                     dE             d eps       ncg     rms          rms(c)
DAV:   1     0.115022038395E+04    0.11502E+04   -0.18834E+05  4140   0.783E+02
DAV:   2    -0.835659363560E+03   -0.19859E+04   -0.18592E+04  5736   0.173E+02
DAV:   3    -0.961237838636E+03   -0.12558E+03   -0.11830E+03  5184   0.319E+01
DAV:   4    -0.966830021083E+03   -0.55922E+01   -0.55138E+01  5580   0.735E+00
DAV:   5    -0.966924622241E+03   -0.94601E-01   -0.94174E-01  5256   0.108E+00    0.152E+01
DAV:   6    -0.963523235659E+03    0.34014E+01   -0.44893E-01  5052   0.761E-01    0.943E+00
DAV:   7    -0.961029731483E+03    0.24935E+01   -0.12485E+00  4908   0.125E+00    0.361E-01
DAV:   8    -0.961029657910E+03    0.73573E-04   -0.11718E-02  5016   0.134E-01    0.936E-02
DAV:   9    -0.961029627103E+03    0.30807E-04   -0.42775E-04  5532   0.227E-02    0.380E-03
DAV:  10    -0.961029624593E+03    0.25103E-05   -0.63412E-06  3468   0.291E-03
   1 F= -.96102962E+03 E0= -.96092784E+03  d E =-.203564E+00
