 vasp.5.4.4.18Apr17-6-g9f103f2a35 (build May 02 2017 15:33:50) complex          
  
 executed on Intel-16.0.3.210-OMP date 2018.07.06  12:06:27
 running on    6 total cores
 distrk:  each k-point on    6 cores,    1 groups
 distr:  one band on NCORES_PER_BAND=   1 cores,    6 groups


--------------------------------------------------------------------------------------------------------


 INCAR:
 POTCAR:    PAW Al_GW 19Mar2012                   

 ----------------------------------------------------------------------------- 
|                                                                             |
|           W    W    AA    RRRRR   N    N  II  N    N   GGGG   !!!           |
|           W    W   A  A   R    R  NN   N  II  NN   N  G    G  !!!           |
|           W    W  A    A  R    R  N N  N  II  N N  N  G       !!!           |
|           W WW W  AAAAAA  RRRRR   N  N N  II  N  N N  G  GGG   !            |
|           WW  WW  A    A  R   R   N   NN  II  N   NN  G    G                |
|           W    W  A    A  R    R  N    N  II  N    N   GGGG   !!!           |
|                                                                             |
|      For optimal performance we recommend to set                            |
|        NCORE= 4 - approx SQRT( number of cores)                             |
|      NCORE specifies how many cores store one orbital (NPAR=cpu/NCORE).     |
|      This setting can  greatly improve the performance of VASP for DFT.     |
|      The default,   NCORE=1            might be grossly inefficient         |
|      on modern multi-core architectures or massively parallel machines.     |
|      Do your own testing !!!!                                               |
|      Unfortunately you need to use the default for GW and RPA calculations. |
|      (for HF NCORE is supported but not extensively tested yet)             |
|                                                                             |
 ----------------------------------------------------------------------------- 

 POTCAR:    PAW Al_GW 19Mar2012                   
   VRHFIN =Al: s2p1                                                             
   LEXCH  = PE                                                                  
   EATOM  =    53.5387 eV,    3.9350 Ry                                         
                                                                                
   TITEL  = PAW Al_GW 19Mar2012                                                 
   LULTRA =        F    use ultrasoft PP ?                                      
   IUNSCR =        1    unscreen: 0-lin 1-nonlin 2-no                           
   RPACOR =    1.500    partial core radius                                     
   POMASS =   26.982; ZVAL   =    3.000    mass and valenz                      
   RCORE  =    2.000    outmost cutoff radius                                   
   RWIGS  =    2.000; RWIGS  =    1.058    wigner-seitz radius (au A)           
   ENMAX  =  240.300; ENMIN  =  180.225 eV                                      
   ICORE  =        3    local potential                                         
   LCOR   =        T    correct aug charges                                     
   LPAW   =        T    paw PP                                                  
   EAUG   =  482.059                                                            
   DEXC   =    0.000                                                            
   RMAX   =    2.051    core radius for proj-oper                               
   RAUG   =    1.300    factor for augmentation sphere                          
   RDEP   =    2.096    radius for radial grids                                 
   RDEPT  =    1.856    core radius for aug-charge                              
                                                                                
   Atomic configuration                                                         
    7 entries                                                                   
     n  l   j            E        occ.                                          
     1  0  0.50     -1511.1048   2.0000                                         
     2  0  0.50      -108.1629   2.0000                                         
     2  1  1.50       -69.6402   6.0000                                         
     3  0  0.50        -7.7528   2.0000                                         
     3  1  1.50        -2.7121   1.0000                                         
     3  2  2.50        -2.7212   0.0000                                         
     4  3  2.50        -2.7212   0.0000                                         
   Description                                                                  
     l       E           TYP  RCUT    TYP  RCUT                                 
     0     -7.7528455     23  1.900                                             
     0     68.0291300     23  1.900                                             
     1     -2.7120682     23  1.900                                             
     1     68.0291300     23  1.900                                             
     2     -1.3605826     23  1.900                                             
     2     81.6349560     23  1.900                                             
     3     74.8320430     23  2.000                                             
  local pseudopotential read in
  partial core-charges read in
  partial kinetic energy density read in
  kinetic energy density of atom read in
  atomic valenz-charges read in
  non local Contribution for L=           0  read in
    real space projection operators read in
  non local Contribution for L=           0  read in
    real space projection operators read in
  non local Contribution for L=           1  read in
    real space projection operators read in
  non local Contribution for L=           1  read in
    real space projection operators read in
  non local Contribution for L=           2  read in
    real space projection operators read in
  non local Contribution for L=           2  read in
    real space projection operators read in
    PAW grid and wavefunctions read in
 
   number of l-projection  operators is LMAX  =           6
   number of lm-projection operators is LMMAX =          18
 
 Optimization of the real space projectors (new method)

 maximal supplied QI-value         = 18.90
 optimisation between [QCUT,QGAM] = [  8.69, 17.57] = [ 21.16, 86.49] Ry 
 Optimized for a Real-space Cutoff    1.59 Angstroem

   l    n(q)    QCUT    max X(q) W(low)/X(q) W(high)/X(q)  e(spline) 
   0      8     8.693    11.519    0.12E-03    0.31E-04    0.21E-06
   0      8     8.693     5.834    0.89E-04    0.32E-04    0.16E-06
   1      8     8.693    10.132    0.25E-03    0.39E-03    0.25E-06
   1      8     8.693     3.004    0.16E-03    0.27E-03    0.22E-06
   2      7     8.693     3.169    0.39E-03    0.93E-03    0.44E-06
   2      7     8.693     1.605    0.70E-04    0.91E-04    0.19E-06
  PAW Al_GW 19Mar2012                   :
 energy of atom  1       EATOM=  -53.5387
 kinetic energy error for atom=    0.0011 (will be added to EATOM!!)
 
 
 POSCAR: New structure                           
  positions in cartesian coordinates
  No initial velocities read in
 exchange correlation table for  LEXCH =        8
   RHO(1)=    0.500       N(1)  =     2000
   RHO(2)=  100.500       N(2)  =     4000
 


--------------------------------------------------------------------------------------------------------


 ion  position               nearest neighbor table
   1  0.000  0.000  0.000-
   2  0.000  0.125  0.125-
   3  0.125  0.000  0.125-
   4  0.125  0.125  0.000-
   5  0.000  0.000  0.250-
   6  0.000  0.125  0.375-
   7  0.125  0.000  0.375-
   8  0.125  0.125  0.250-
   9  0.000  0.000  0.500-
  10  0.000  0.125  0.625-
  11  0.125  0.000  0.625-
  12  0.125  0.125  0.500-
  13  0.000  0.000  0.750-
  14  0.000  0.125  0.875-
  15  0.125  0.000  0.875-
  16  0.125  0.125  0.750-
  17  0.000  0.250  0.000-
  18  0.000  0.375  0.125-
  19  0.125  0.250  0.125-
  20  0.125  0.375  0.000-
  21  0.000  0.250  0.250-
  22  0.000  0.375  0.375-
  23  0.125  0.250  0.375-
  24  0.125  0.375  0.250-
  25  0.000  0.250  0.500-
  26  0.000  0.375  0.625-
  27  0.125  0.250  0.625-
  28  0.125  0.375  0.500-
  29  0.000  0.250  0.750-
  30  0.000  0.375  0.875-
  31  0.125  0.250  0.875-
  32  0.125  0.375  0.750-
  33  0.000  0.500  0.000-
  34  0.000  0.625  0.125-
  35  0.125  0.500  0.125-
  36  0.125  0.625  0.000-
  37  0.000  0.500  0.250-
  38  0.000  0.625  0.375-
  39  0.125  0.500  0.375-
  40  0.125  0.625  0.250-
  41  0.000  0.500  0.500-
  42  0.000  0.625  0.625-
  43  0.125  0.500  0.625-
  44  0.125  0.625  0.500-
  45  0.000  0.500  0.750-
  46  0.000  0.625  0.875-
  47  0.125  0.500  0.875-
  48  0.125  0.625  0.750-
  49  0.000  0.750  0.000-
  50  0.000  0.875  0.125-
  51  0.125  0.750  0.125-
  52  0.125  0.875  0.000-
  53  0.000  0.750  0.250-
  54  0.000  0.875  0.375-
  55  0.125  0.750  0.375-
  56  0.125  0.875  0.250-
  57  0.000  0.750  0.500-
  58  0.000  0.875  0.625-
  59  0.125  0.750  0.625-
  60  0.125  0.875  0.500-
  61  0.000  0.750  0.750-
  62  0.000  0.875  0.875-
  63  0.125  0.750  0.875-
  64  0.125  0.875  0.750-
  65  0.250  0.000  0.000-
  66  0.250  0.125  0.125-
  67  0.375  0.000  0.125-
  68  0.375  0.125  0.000-
  69  0.250  0.000  0.250-
  70  0.250  0.125  0.375-
  71  0.375  0.000  0.375-
  72  0.375  0.125  0.250-
  73  0.250  0.000  0.500-
  74  0.250  0.125  0.625-
  75  0.375  0.000  0.625-
  76  0.375  0.125  0.500-
  77  0.250  0.000  0.750-
  78  0.250  0.125  0.875-
  79  0.375  0.000  0.875-
  80  0.375  0.125  0.750-
  81  0.250  0.250  0.000-
  82  0.250  0.375  0.125-
  83  0.375  0.250  0.125-
  84  0.375  0.375  0.000-
  85  0.250  0.250  0.250-
  86  0.250  0.375  0.375-
  87  0.375  0.250  0.375-
  88  0.375  0.375  0.250-
  89  0.250  0.250  0.500-
  90  0.250  0.375  0.625-
  91  0.375  0.250  0.625-
  92  0.375  0.375  0.500-
  93  0.250  0.250  0.750-
  94  0.250  0.375  0.875-
  95  0.375  0.250  0.875-
  96  0.375  0.375  0.750-
  97  0.250  0.500  0.000-
  98  0.250  0.625  0.125-
  99  0.375  0.500  0.125-
 100  0.375  0.625  0.000-
 101  0.250  0.500  0.250-
 102  0.250  0.625  0.375-
 103  0.375  0.500  0.375-
 104  0.375  0.625  0.250-
 105  0.250  0.500  0.500-
 106  0.250  0.625  0.625-
 107  0.375  0.500  0.625-
 108  0.375  0.625  0.500-
 109  0.250  0.500  0.750-
 110  0.250  0.625  0.875-
 111  0.375  0.500  0.875-
 112  0.375  0.625  0.750-
 113  0.250  0.750  0.000-
 114  0.250  0.875  0.125-
 115  0.375  0.750  0.125-
 116  0.375  0.875  0.000-
 117  0.250  0.750  0.250-
 118  0.250  0.875  0.375-
 119  0.375  0.750  0.375-
 120  0.375  0.875  0.250-
 121  0.250  0.750  0.500-
 122  0.250  0.875  0.625-
 123  0.375  0.750  0.625-
 124  0.375  0.875  0.500-
 125  0.250  0.750  0.750-
 126  0.250  0.875  0.875-
 127  0.375  0.750  0.875-
 128  0.375  0.875  0.750-
 129  0.500  0.000  0.000-
 130  0.500  0.125  0.125-
 131  0.625  0.000  0.125-
 132  0.625  0.125  0.000-
 133  0.500  0.000  0.250-
 134  0.500  0.125  0.375-
 135  0.625  0.000  0.375-
 136  0.625  0.125  0.250-
 137  0.500  0.000  0.500-
 138  0.500  0.125  0.625-
 139  0.625  0.000  0.625-
 140  0.625  0.125  0.500-
 141  0.500  0.000  0.750-
 142  0.500  0.125  0.875-
 143  0.625  0.000  0.875-
 144  0.625  0.125  0.750-
 145  0.500  0.250  0.000-
 146  0.500  0.375  0.125-
 147  0.625  0.250  0.125-
 148  0.625  0.375  0.000-
 149  0.500  0.250  0.250-
 150  0.500  0.375  0.375-
 151  0.625  0.250  0.375-
 152  0.625  0.375  0.250-
 153  0.500  0.250  0.500-
 154  0.500  0.375  0.625-
 155  0.625  0.250  0.625-
 156  0.625  0.375  0.500-
 157  0.500  0.250  0.750-
 158  0.500  0.375  0.875-
 159  0.625  0.250  0.875-
 160  0.625  0.375  0.750-
 161  0.500  0.500  0.000-
 162  0.500  0.625  0.125-
 163  0.625  0.500  0.125-
 164  0.625  0.625  0.000-
 165  0.500  0.500  0.250-
 166  0.500  0.625  0.375-
 167  0.625  0.500  0.375-
 168  0.625  0.625  0.250-
 169  0.500  0.500  0.500-
 170  0.500  0.625  0.625-
 171  0.625  0.500  0.625-
 172  0.625  0.625  0.500-
 173  0.500  0.500  0.750-
 174  0.500  0.625  0.875-
 175  0.625  0.500  0.875-
 176  0.625  0.625  0.750-
 177  0.500  0.750  0.000-
 178  0.500  0.875  0.125-
 179  0.625  0.750  0.125-
 180  0.625  0.875  0.000-
 181  0.500  0.750  0.250-
 182  0.500  0.875  0.375-
 183  0.625  0.750  0.375-
 184  0.625  0.875  0.250-
 185  0.500  0.750  0.500-
 186  0.500  0.875  0.625-
 187  0.625  0.750  0.625-
 188  0.625  0.875  0.500-
 189  0.500  0.750  0.750-
 190  0.500  0.875  0.875-
 191  0.625  0.750  0.875-
 192  0.625  0.875  0.750-
 193  0.750  0.000  0.000-
 194  0.750  0.125  0.125-
 195  0.875  0.000  0.125-
 196  0.875  0.125  0.000-
 197  0.750  0.000  0.250-
 198  0.750  0.125  0.375-
 199  0.875  0.000  0.375-
 200  0.875  0.125  0.250-
 201  0.750  0.000  0.500-
 202  0.750  0.125  0.625-
 203  0.875  0.000  0.625-
 204  0.875  0.125  0.500-
 205  0.750  0.000  0.750-
 206  0.750  0.125  0.875-
 207  0.875  0.000  0.875-
 208  0.875  0.125  0.750-
 209  0.750  0.250  0.000-
 210  0.750  0.375  0.125-
 211  0.875  0.250  0.125-
 212  0.875  0.375  0.000-
 213  0.750  0.250  0.250-
 214  0.750  0.375  0.375-
 215  0.875  0.250  0.375-
 216  0.875  0.375  0.250-
 217  0.750  0.250  0.500-
 218  0.750  0.375  0.625-
 219  0.875  0.250  0.625-
 220  0.875  0.375  0.500-
 221  0.750  0.250  0.750-
 222  0.750  0.375  0.875-
 223  0.875  0.250  0.875-
 224  0.875  0.375  0.750-
 225  0.750  0.500  0.000-
 226  0.750  0.625  0.125-
 227  0.875  0.500  0.125-
 228  0.875  0.625  0.000-
 229  0.750  0.500  0.250-
 230  0.750  0.625  0.375-
 231  0.875  0.500  0.375-
 232  0.875  0.625  0.250-
 233  0.750  0.500  0.500-
 234  0.750  0.625  0.625-
 235  0.875  0.500  0.625-
 236  0.875  0.625  0.500-
 237  0.750  0.500  0.750-
 238  0.750  0.625  0.875-
 239  0.875  0.500  0.875-
 240  0.875  0.625  0.750-
 241  0.750  0.750  0.000-
 242  0.750  0.875  0.125-
 243  0.875  0.750  0.125-
 244  0.875  0.875  0.000-
 245  0.750  0.750  0.250-
 246  0.750  0.875  0.375-
 247  0.875  0.750  0.375-
 248  0.875  0.875  0.250-
 249  0.750  0.750  0.500-
 250  0.750  0.875  0.625-
 251  0.875  0.750  0.625-
 252  0.875  0.875  0.500-
 253  0.750  0.750  0.750-
 254  0.750  0.875  0.875-
 255  0.875  0.750  0.875-
 256  0.875  0.875  0.750-
 
  LATTYP: Found a simple cubic cell.
 ALAT       =    16.1980000000
  
  Lattice vectors:
  
 A1 = (  16.1980000000,   0.0000000000,   0.0000000000)
 A2 = (   0.0000000000,  16.1980000000,   0.0000000000)
 A3 = (   0.0000000000,   0.0000000000,  16.1980000000)


Analysis of symmetry for initial positions (statically):
=====================================================================
 Subroutine PRICEL returns following result:
 
  LATTYP: Found a face centered cubic cell.
 ALAT       =     4.0495000000
  
  Lattice vectors:
  
 A1 = (   2.0247500000,   2.0247500000,   0.0000000000)
 A2 = (   2.0247500000,   0.0000000000,  -2.0247500000)
 A3 = (   0.0000000000,   2.0247500000,  -2.0247500000)
 
 256 primitive cells build up your supercell.
 

 Routine SETGRP: Setting up the symmetry group for a 
 simple cubic supercell.


 Subroutine GETGRP returns: Found 48 space group operations
 (whereof 48 operations were pure point group operations)
 out of a pool of 48 trial point group operations.


The static configuration has the point symmetry O_h .


Analysis of symmetry for dynamics (positions and initial velocities):
=====================================================================
 Subroutine PRICEL returns following result:
 
  LATTYP: Found a face centered cubic cell.
 ALAT       =     4.0495000000
  
  Lattice vectors:
  
 A1 = (   2.0247500000,   2.0247500000,   0.0000000000)
 A2 = (   2.0247500000,   0.0000000000,  -2.0247500000)
 A3 = (   0.0000000000,   2.0247500000,  -2.0247500000)
 
 256 primitive cells build up your supercell.
 

 Routine SETGRP: Setting up the symmetry group for a 
 simple cubic supercell.


 Subroutine GETGRP returns: Found 48 space group operations
 (whereof 48 operations were pure point group operations)
 out of a pool of 48 trial point group operations.


The dynamic configuration has the point symmetry O_h .


 Subroutine INISYM returns: Found 48 space group operations
 (whereof 48 operations are pure point group operations),
 and found   256 'primitive' translations

 
 
 KPOINTS: Automatic generation                    

Automatic generation of k-mesh.
Space group operators:
 irot       det(A)        alpha          n_x          n_y          n_z        tau_x        tau_y        tau_z
    1     1.000000     0.000000     1.000000     0.000000     0.000000     0.000000     0.000000     0.000000
    2    -1.000000     0.000000     1.000000     0.000000     0.000000     0.000000     0.000000     0.000000
    3     1.000000   120.000000    -0.577350    -0.577350    -0.577350     0.000000     0.000000     0.000000
    4    -1.000000   120.000000    -0.577350    -0.577350    -0.577350     0.000000     0.000000     0.000000
    5     1.000000   120.000000     0.577350     0.577350     0.577350     0.000000     0.000000     0.000000
    6    -1.000000   120.000000     0.577350     0.577350     0.577350     0.000000     0.000000     0.000000
    7     1.000000    90.000000     0.000000     0.000000    -1.000000     0.000000     0.000000     0.000000
    8    -1.000000    90.000000     0.000000     0.000000    -1.000000     0.000000     0.000000     0.000000
    9     1.000000   180.000000     0.000000     0.707107     0.707107     0.000000     0.000000     0.000000
   10    -1.000000   180.000000     0.000000     0.707107     0.707107     0.000000     0.000000     0.000000
   11     1.000000    90.000000     0.000000     1.000000     0.000000     0.000000     0.000000     0.000000
   12    -1.000000    90.000000     0.000000     1.000000     0.000000     0.000000     0.000000     0.000000
   13     1.000000   180.000000     0.000000     0.000000     1.000000     0.000000     0.000000     0.000000
   14    -1.000000   180.000000     0.000000     0.000000     1.000000     0.000000     0.000000     0.000000
   15     1.000000   120.000000    -0.577350     0.577350     0.577350     0.000000     0.000000     0.000000
   16    -1.000000   120.000000    -0.577350     0.577350     0.577350     0.000000     0.000000     0.000000
   17     1.000000   120.000000    -0.577350     0.577350    -0.577350     0.000000     0.000000     0.000000
   18    -1.000000   120.000000    -0.577350     0.577350    -0.577350     0.000000     0.000000     0.000000
   19     1.000000    90.000000     0.000000     0.000000     1.000000     0.000000     0.000000     0.000000
   20    -1.000000    90.000000     0.000000     0.000000     1.000000     0.000000     0.000000     0.000000
   21     1.000000    90.000000    -1.000000     0.000000     0.000000     0.000000     0.000000     0.000000
   22    -1.000000    90.000000    -1.000000     0.000000     0.000000     0.000000     0.000000     0.000000
   23     1.000000   180.000000     0.707107     0.000000     0.707107     0.000000     0.000000     0.000000
   24    -1.000000   180.000000     0.707107     0.000000     0.707107     0.000000     0.000000     0.000000
   25     1.000000   120.000000     0.577350    -0.577350     0.577350     0.000000     0.000000     0.000000
   26    -1.000000   120.000000     0.577350    -0.577350     0.577350     0.000000     0.000000     0.000000
   27     1.000000   120.000000    -0.577350    -0.577350     0.577350     0.000000     0.000000     0.000000
   28    -1.000000   120.000000    -0.577350    -0.577350     0.577350     0.000000     0.000000     0.000000
   29     1.000000   180.000000     1.000000     0.000000     0.000000     0.000000     0.000000     0.000000
   30    -1.000000   180.000000     1.000000     0.000000     0.000000     0.000000     0.000000     0.000000
   31     1.000000    90.000000     0.000000    -1.000000     0.000000     0.000000     0.000000     0.000000
   32    -1.000000    90.000000     0.000000    -1.000000     0.000000     0.000000     0.000000     0.000000
   33     1.000000   180.000000     0.707107     0.707107     0.000000     0.000000     0.000000     0.000000
   34    -1.000000   180.000000     0.707107     0.707107     0.000000     0.000000     0.000000     0.000000
   35     1.000000    90.000000     1.000000     0.000000     0.000000     0.000000     0.000000     0.000000
   36    -1.000000    90.000000     1.000000     0.000000     0.000000     0.000000     0.000000     0.000000
   37     1.000000   120.000000     0.577350    -0.577350    -0.577350     0.000000     0.000000     0.000000
   38    -1.000000   120.000000     0.577350    -0.577350    -0.577350     0.000000     0.000000     0.000000
   39     1.000000   180.000000     0.000000     1.000000     0.000000     0.000000     0.000000     0.000000
   40    -1.000000   180.000000     0.000000     1.000000     0.000000     0.000000     0.000000     0.000000
   41     1.000000   120.000000     0.577350     0.577350    -0.577350     0.000000     0.000000     0.000000
   42    -1.000000   120.000000     0.577350     0.577350    -0.577350     0.000000     0.000000     0.000000
   43     1.000000   180.000000     0.000000    -0.707107     0.707107     0.000000     0.000000     0.000000
   44    -1.000000   180.000000     0.000000    -0.707107     0.707107     0.000000     0.000000     0.000000
   45     1.000000   180.000000     0.707107    -0.707107     0.000000     0.000000     0.000000     0.000000
   46    -1.000000   180.000000     0.707107    -0.707107     0.000000     0.000000     0.000000     0.000000
   47     1.000000   180.000000     0.707107     0.000000    -0.707107     0.000000     0.000000     0.000000
   48    -1.000000   180.000000     0.707107     0.000000    -0.707107     0.000000     0.000000     0.000000
 
 Subroutine IBZKPT returns following result:
 ===========================================
 
 Found      4 irreducible k-points:
 
 Following reciprocal coordinates:
            Coordinates               Weight
  0.000000  0.000000  0.000000      1.000000
  0.500000  0.000000  0.000000      3.000000
  0.500000  0.500000  0.000000      3.000000
  0.500000  0.500000  0.500000      1.000000
 
 Following cartesian coordinates:
            Coordinates               Weight
  0.000000  0.000000  0.000000      1.000000
  0.030868  0.000000  0.000000      3.000000
  0.030868  0.030868  0.000000      3.000000
  0.030868  0.030868  0.030868      1.000000
 


--------------------------------------------------------------------------------------------------------




 Dimension of arrays:
   k-points           NKPTS =      4   k-points in BZ     NKDIM =      4   number of bands    NBANDS=    516
   number of dos      NEDOS =    301   number of ions     NIONS =    256
   non local maximal  LDIM  =      6   non local SUM 2l+1 LMDIM =     18
   total plane-waves  NPLWV = 343000
   max r-space proj   IRMAX =   1419   max aug-charges    IRDMAX=   3340
   dimension x,y,z NGX =    70 NGY =   70 NGZ =   70
   dimension x,y,z NGXF=   140 NGYF=  140 NGZF=  140
   support grid    NGXF=   140 NGYF=  140 NGZF=  140
   ions per type =             256
   NGX,Y,Z   is equivalent  to a cutoff of   7.18,  7.18,  7.18 a.u.
   NGXF,Y,Z  is equivalent  to a cutoff of  14.37, 14.37, 14.37 a.u.

 SYSTEM =  NiAl                                    
 POSCAR =  New structure                           

 Startparameter for this run:
   NWRITE =      2    write-flag & timer
   PREC   = normal    normal or accurate (medium, high low for compatibility)
   ISTART =      0    job   : 0-new  1-cont  2-samecut
   ICHARG =      2    charge: 1-file 2-atom 10-const
   ISPIN  =      1    spin polarized calculation?
   LNONCOLLINEAR =      F non collinear calculations
   LSORBIT =      F    spin-orbit coupling
   INIWAV =      1    electr: 0-lowe 1-rand  2-diag
   LASPH  =      F    aspherical Exc in radial PAW
   METAGGA=      F    non-selfconsistent MetaGGA calc.

 Electronic Relaxation 1
   ENCUT  =  300.0 eV  22.05 Ry    4.70 a.u.  22.88 22.88 22.88*2*pi/ulx,y,z
   ENINI  =  300.0     initial cutoff
   ENAUG  =  482.1 eV  augmentation charge cutoff
   NELM   =     60;   NELMIN=  6; NELMDL= -5     # of ELM steps 
   EDIFF  = 0.5E-05   stopping-criterion for ELM
   LREAL  =      T    real-space projection
   NLSPLINE    = F    spline interpolate recip. space projectors
   LCOMPAT=      F    compatible to vasp.4.4
   GGA_COMPAT  = T    GGA compatible to vasp.4.4-vasp.4.6
   LMAXPAW     = -100 max onsite density
   LMAXMIX     =    2 max onsite mixed and CHGCAR
   VOSKOWN=      0    Vosko Wilk Nusair interpolation
   ROPT   =   -0.00050
 Ionic relaxation
   EDIFFG = 0.5E-04   stopping-criterion for IOM
   NSW    =      0    number of steps for IOM
   NBLOCK =      1;   KBLOCK =      1    inner block; outer block 
   IBRION =     -1    ionic relax: 0-MD 1-quasi-New 2-CG
   NFREE  =      0    steps in history (QN), initial steepest desc. (CG)
   ISIF   =      2    stress and relaxation
   IWAVPR =     10    prediction:  0-non 1-charg 2-wave 3-comb
   ISYM   =      2    0-nonsym 1-usesym 2-fastsym
   LCORR  =      T    Harris-Foulkes like correction to forces

   POTIM  = 0.5000    time-step for ionic-motion
   TEIN   =    0.0    initial temperature
   TEBEG  =    0.0;   TEEND  =   0.0 temperature during run
   SMASS  =  -3.00    Nose mass-parameter (am)
   estimated Nose-frequenzy (Omega)   =  0.10E-29 period in steps =****** mass=  -0.600E-26a.u.
   SCALEE = 1.0000    scale energy and forces
   NPACO  =    256;   APACO  = 16.0  distance and # of slots for P.C.
   PSTRESS=    0.0 pullay stress

  Mass of Ions in am
   POMASS =  26.98
  Ionic Valenz
   ZVAL   =   3.00
  Atomic Wigner-Seitz radii
   RWIGS  =  -1.00
  virtual crystal weights 
   VCA    =   1.00
   NELECT =     768.0000    total number of electrons
   NUPDOWN=      -1.0000    fix difference up-down

 DOS related values:
   EMIN   =  10.00;   EMAX   =-10.00  energy-range for DOS
   EFERMI =   0.00
   ISMEAR =     0;   SIGMA  =   0.05  broadening in eV -4-tet -1-fermi 0-gaus

 Electronic relaxation 2 (details)
   IALGO  =     38    algorithm
   LDIAG  =      T    sub-space diagonalisation (order eigenvalues)
   LSUBROT=      F    optimize rotation matrix (better conditioning)
   TURBO    =      0    0=normal 1=particle mesh
   IRESTART =      0    0=no restart 2=restart with 2 vectors
   NREBOOT  =      0    no. of reboots
   NMIN     =      0    reboot dimension
   EREF     =   0.00    reference energy to select bands
   IMIX   =      4    mixing-type and parameters
     AMIX     =   0.40;   BMIX     =  1.00
     AMIX_MAG =   1.60;   BMIX_MAG =  1.00
     AMIN     =   0.10
     WC   =   100.;   INIMIX=   1;  MIXPRE=   1;  MAXMIX= -45

 Intra band minimization:
   WEIMIN = 0.0000     energy-eigenvalue tresh-hold
   EBREAK =  0.24E-08  absolut break condition
   DEPER  =   0.30     relativ break condition  

   TIME   =   0.40     timestep for ELM

  volume/ion in A,a.u.               =      16.60       112.03
  Fermi-wavevector in a.u.,A,eV,Ry     =   0.925551  1.749038 11.655366  0.856645
  Thomas-Fermi vector in A             =   2.051418
 
 Write flags
   LWAVE        =      F    write WAVECAR
   LDOWNSAMPLE  =      F    k-point downsampling of WAVECAR
   LCHARG       =      F    write CHGCAR
   LVTOT        =      F    write LOCPOT, total local potential
   LVHAR        =      F    write LOCPOT, Hartree potential only
   LELF         =      F    write electronic localiz. function (ELF)
   LORBIT       =      0    0 simple, 1 ext, 2 COOP (PROOUT), +10 PAW based schemes


 Dipole corrections
   LMONO  =      F    monopole corrections only (constant potential shift)
   LDIPOL =      F    correct potential (dipole corrections)
   IDIPOL =      0    1-x, 2-y, 3-z, 4-all directions 
   EPSILON=  1.0000000 bulk dielectric constant

 Exchange correlation treatment:
   GGA     =    --    GGA type
   LEXCH   =     8    internal setting for exchange type
   VOSKOWN=      0    Vosko Wilk Nusair interpolation
   LHFCALC =     F    Hartree Fock is set to
   LHFONE  =     F    Hartree Fock one center treatment
   AEXX    =    0.0000 exact exchange contribution

 Linear response parameters
   LEPSILON=     F    determine dielectric tensor
   LRPA    =     F    only Hartree local field effects (RPA)
   LNABLA  =     F    use nabla operator in PAW spheres
   LVEL    =     F    velocity operator in full k-point grid
   LINTERFAST=   F  fast interpolation
   KINTER  =     0    interpolate to denser k-point grid
   CSHIFT  =0.1000    complex shift for real part using Kramers Kronig
   OMEGAMAX=  -1.0    maximum frequency
   DEG_THRESHOLD= 0.2000000E-02 threshold for treating states as degnerate
   RTIME   =   -0.100 relaxation time in fs
  (WPLASMAI=    0.000 imaginary part of plasma frequency in eV, 0.658/RTIME)
   DFIELD  = 0.0000000 0.0000000 0.0000000 field for delta impulse in time
 
 Orbital magnetization related:
   ORBITALMAG=     F  switch on orbital magnetization
   LCHIMAG   =     F  perturbation theory with respect to B field
   DQ        =  0.001000  dq finite difference perturbation B field
   LLRAUG    =     F  two centre corrections for induced B field



--------------------------------------------------------------------------------------------------------


 Static calculation
 charge density and potential will be updated during run
 non-spin polarized calculation
 Variant of blocked Davidson
 Davidson routine will perform the subspace rotation
 perform sub-space diagonalisation
    after iterative eigenvector-optimisation
 modified Broyden-mixing scheme, WC =      100.0
 initial mixing is a Kerker type mixing with AMIX =  0.4000 and BMIX =      1.0000
 Hartree-type preconditioning will be used
 using additional bands          132
 real space projection scheme for non local part
 use partial core corrections
 calculate Harris-corrections to forces 
   (improved forces if not selfconsistent)
 use gradient corrections 
 use of overlap-Matrix (Vanderbilt PP)
 Gauss-broadening in eV      SIGMA  =   0.05


--------------------------------------------------------------------------------------------------------


  energy-cutoff  :      300.00
  volume of cell :     4249.95
      direct lattice vectors                 reciprocal lattice vectors
    16.198000000  0.000000000  0.000000000     0.061736017  0.000000000  0.000000000
     0.000000000 16.198000000  0.000000000     0.000000000  0.061736017  0.000000000
     0.000000000  0.000000000 16.198000000     0.000000000  0.000000000  0.061736017

  length of vectors
    16.198000000 16.198000000 16.198000000     0.061736017  0.061736017  0.061736017


 
 k-points in units of 2pi/SCALE and weight: Automatic generation                    
   0.00000000  0.00000000  0.00000000       0.125
   0.03086801  0.00000000  0.00000000       0.375
   0.03086801  0.03086801  0.00000000       0.375
   0.03086801  0.03086801  0.03086801       0.125
 
 k-points in reciprocal lattice and weights: Automatic generation                    
   0.00000000  0.00000000  0.00000000       0.125
   0.50000000  0.00000000  0.00000000       0.375
   0.50000000  0.50000000  0.00000000       0.375
   0.50000000  0.50000000  0.50000000       0.125
 
 position of ions in fractional coordinates (direct lattice) 
   0.00000000  0.00000000  0.00000000
   0.00000000  0.12500000  0.12500000
   0.12500000  0.00000000  0.12500000
   0.12500000  0.12500000  0.00000000
   0.00000000  0.00000000  0.25000000
   0.00000000  0.12500000  0.37500000
   0.12500000  0.00000000  0.37500000
   0.12500000  0.12500000  0.25000000
   0.00000000  0.00000000  0.50000000
   0.00000000  0.12500000  0.62500000
   0.12500000  0.00000000  0.62500000
   0.12500000  0.12500000  0.50000000
   0.00000000  0.00000000  0.75000000
   0.00000000  0.12500000  0.87500000
   0.12500000  0.00000000  0.87500000
   0.12500000  0.12500000  0.75000000
   0.00000000  0.25000000  0.00000000
   0.00000000  0.37500000  0.12500000
   0.12500000  0.25000000  0.12500000
   0.12500000  0.37500000  0.00000000
   0.00000000  0.25000000  0.25000000
   0.00000000  0.37500000  0.37500000
   0.12500000  0.25000000  0.37500000
   0.12500000  0.37500000  0.25000000
   0.00000000  0.25000000  0.50000000
   0.00000000  0.37500000  0.62500000
   0.12500000  0.25000000  0.62500000
   0.12500000  0.37500000  0.50000000
   0.00000000  0.25000000  0.75000000
   0.00000000  0.37500000  0.87500000
   0.12500000  0.25000000  0.87500000
   0.12500000  0.37500000  0.75000000
   0.00000000  0.50000000  0.00000000
   0.00000000  0.62500000  0.12500000
   0.12500000  0.50000000  0.12500000
   0.12500000  0.62500000  0.00000000
   0.00000000  0.50000000  0.25000000
   0.00000000  0.62500000  0.37500000
   0.12500000  0.50000000  0.37500000
   0.12500000  0.62500000  0.25000000
   0.00000000  0.50000000  0.50000000
   0.00000000  0.62500000  0.62500000
   0.12500000  0.50000000  0.62500000
   0.12500000  0.62500000  0.50000000
   0.00000000  0.50000000  0.75000000
   0.00000000  0.62500000  0.87500000
   0.12500000  0.50000000  0.87500000
   0.12500000  0.62500000  0.75000000
   0.00000000  0.75000000  0.00000000
   0.00000000  0.87500000  0.12500000
   0.12500000  0.75000000  0.12500000
   0.12500000  0.87500000  0.00000000
   0.00000000  0.75000000  0.25000000
   0.00000000  0.87500000  0.37500000
   0.12500000  0.75000000  0.37500000
   0.12500000  0.87500000  0.25000000
   0.00000000  0.75000000  0.50000000
   0.00000000  0.87500000  0.62500000
   0.12500000  0.75000000  0.62500000
   0.12500000  0.87500000  0.50000000
   0.00000000  0.75000000  0.75000000
   0.00000000  0.87500000  0.87500000
   0.12500000  0.75000000  0.87500000
   0.12500000  0.87500000  0.75000000
   0.25000000  0.00000000  0.00000000
   0.25000000  0.12500000  0.12500000
   0.37500000  0.00000000  0.12500000
   0.37500000  0.12500000  0.00000000
   0.25000000  0.00000000  0.25000000
   0.25000000  0.12500000  0.37500000
   0.37500000  0.00000000  0.37500000
   0.37500000  0.12500000  0.25000000
   0.25000000  0.00000000  0.50000000
   0.25000000  0.12500000  0.62500000
   0.37500000  0.00000000  0.62500000
   0.37500000  0.12500000  0.50000000
   0.25000000  0.00000000  0.75000000
   0.25000000  0.12500000  0.87500000
   0.37500000  0.00000000  0.87500000
   0.37500000  0.12500000  0.75000000
   0.25000000  0.25000000  0.00000000
   0.25000000  0.37500000  0.12500000
   0.37500000  0.25000000  0.12500000
   0.37500000  0.37500000  0.00000000
   0.25000000  0.25000000  0.25000000
   0.25000000  0.37500000  0.37500000
   0.37500000  0.25000000  0.37500000
   0.37500000  0.37500000  0.25000000
   0.25000000  0.25000000  0.50000000
   0.25000000  0.37500000  0.62500000
   0.37500000  0.25000000  0.62500000
   0.37500000  0.37500000  0.50000000
   0.25000000  0.25000000  0.75000000
   0.25000000  0.37500000  0.87500000
   0.37500000  0.25000000  0.87500000
   0.37500000  0.37500000  0.75000000
   0.25000000  0.50000000  0.00000000
   0.25000000  0.62500000  0.12500000
   0.37500000  0.50000000  0.12500000
   0.37500000  0.62500000  0.00000000
   0.25000000  0.50000000  0.25000000
   0.25000000  0.62500000  0.37500000
   0.37500000  0.50000000  0.37500000
   0.37500000  0.62500000  0.25000000
   0.25000000  0.50000000  0.50000000
   0.25000000  0.62500000  0.62500000
   0.37500000  0.50000000  0.62500000
   0.37500000  0.62500000  0.50000000
   0.25000000  0.50000000  0.75000000
   0.25000000  0.62500000  0.87500000
   0.37500000  0.50000000  0.87500000
   0.37500000  0.62500000  0.75000000
   0.25000000  0.75000000  0.00000000
   0.25000000  0.87500000  0.12500000
   0.37500000  0.75000000  0.12500000
   0.37500000  0.87500000  0.00000000
   0.25000000  0.75000000  0.25000000
   0.25000000  0.87500000  0.37500000
   0.37500000  0.75000000  0.37500000
   0.37500000  0.87500000  0.25000000
   0.25000000  0.75000000  0.50000000
   0.25000000  0.87500000  0.62500000
   0.37500000  0.75000000  0.62500000
   0.37500000  0.87500000  0.50000000
   0.25000000  0.75000000  0.75000000
   0.25000000  0.87500000  0.87500000
   0.37500000  0.75000000  0.87500000
   0.37500000  0.87500000  0.75000000
   0.50000000  0.00000000  0.00000000
   0.50000000  0.12500000  0.12500000
   0.62500000  0.00000000  0.12500000
   0.62500000  0.12500000  0.00000000
   0.50000000  0.00000000  0.25000000
   0.50000000  0.12500000  0.37500000
   0.62500000  0.00000000  0.37500000
   0.62500000  0.12500000  0.25000000
   0.50000000  0.00000000  0.50000000
   0.50000000  0.12500000  0.62500000
   0.62500000  0.00000000  0.62500000
   0.62500000  0.12500000  0.50000000
   0.50000000  0.00000000  0.75000000
   0.50000000  0.12500000  0.87500000
   0.62500000  0.00000000  0.87500000
   0.62500000  0.12500000  0.75000000
   0.50000000  0.25000000  0.00000000
   0.50000000  0.37500000  0.12500000
   0.62500000  0.25000000  0.12500000
   0.62500000  0.37500000  0.00000000
   0.50000000  0.25000000  0.25000000
   0.50000000  0.37500000  0.37500000
   0.62500000  0.25000000  0.37500000
   0.62500000  0.37500000  0.25000000
   0.50000000  0.25000000  0.50000000
   0.50000000  0.37500000  0.62500000
   0.62500000  0.25000000  0.62500000
   0.62500000  0.37500000  0.50000000
   0.50000000  0.25000000  0.75000000
   0.50000000  0.37500000  0.87500000
   0.62500000  0.25000000  0.87500000
   0.62500000  0.37500000  0.75000000
   0.50000000  0.50000000  0.00000000
   0.50000000  0.62500000  0.12500000
   0.62500000  0.50000000  0.12500000
   0.62500000  0.62500000  0.00000000
   0.50000000  0.50000000  0.25000000
   0.50000000  0.62500000  0.37500000
   0.62500000  0.50000000  0.37500000
   0.62500000  0.62500000  0.25000000
   0.50000000  0.50000000  0.50000000
   0.50000000  0.62500000  0.62500000
   0.62500000  0.50000000  0.62500000
   0.62500000  0.62500000  0.50000000
   0.50000000  0.50000000  0.75000000
   0.50000000  0.62500000  0.87500000
   0.62500000  0.50000000  0.87500000
   0.62500000  0.62500000  0.75000000
   0.50000000  0.75000000  0.00000000
   0.50000000  0.87500000  0.12500000
   0.62500000  0.75000000  0.12500000
   0.62500000  0.87500000  0.00000000
   0.50000000  0.75000000  0.25000000
   0.50000000  0.87500000  0.37500000
   0.62500000  0.75000000  0.37500000
   0.62500000  0.87500000  0.25000000
   0.50000000  0.75000000  0.50000000
   0.50000000  0.87500000  0.62500000
   0.62500000  0.75000000  0.62500000
   0.62500000  0.87500000  0.50000000
   0.50000000  0.75000000  0.75000000
   0.50000000  0.87500000  0.87500000
   0.62500000  0.75000000  0.87500000
   0.62500000  0.87500000  0.75000000
   0.75000000  0.00000000  0.00000000
   0.75000000  0.12500000  0.12500000
   0.87500000  0.00000000  0.12500000
   0.87500000  0.12500000  0.00000000
   0.75000000  0.00000000  0.25000000
   0.75000000  0.12500000  0.37500000
   0.87500000  0.00000000  0.37500000
   0.87500000  0.12500000  0.25000000
   0.75000000  0.00000000  0.50000000
   0.75000000  0.12500000  0.62500000
   0.87500000  0.00000000  0.62500000
   0.87500000  0.12500000  0.50000000
   0.75000000  0.00000000  0.75000000
   0.75000000  0.12500000  0.87500000
   0.87500000  0.00000000  0.87500000
   0.87500000  0.12500000  0.75000000
   0.75000000  0.25000000  0.00000000
   0.75000000  0.37500000  0.12500000
   0.87500000  0.25000000  0.12500000
   0.87500000  0.37500000  0.00000000
   0.75000000  0.25000000  0.25000000
   0.75000000  0.37500000  0.37500000
   0.87500000  0.25000000  0.37500000
   0.87500000  0.37500000  0.25000000
   0.75000000  0.25000000  0.50000000
   0.75000000  0.37500000  0.62500000
   0.87500000  0.25000000  0.62500000
   0.87500000  0.37500000  0.50000000
   0.75000000  0.25000000  0.75000000
   0.75000000  0.37500000  0.87500000
   0.87500000  0.25000000  0.87500000
   0.87500000  0.37500000  0.75000000
   0.75000000  0.50000000  0.00000000
   0.75000000  0.62500000  0.12500000
   0.87500000  0.50000000  0.12500000
   0.87500000  0.62500000  0.00000000
   0.75000000  0.50000000  0.25000000
   0.75000000  0.62500000  0.37500000
   0.87500000  0.50000000  0.37500000
   0.87500000  0.62500000  0.25000000
   0.75000000  0.50000000  0.50000000
   0.75000000  0.62500000  0.62500000
   0.87500000  0.50000000  0.62500000
   0.87500000  0.62500000  0.50000000
   0.75000000  0.50000000  0.75000000
   0.75000000  0.62500000  0.87500000
   0.87500000  0.50000000  0.87500000
   0.87500000  0.62500000  0.75000000
   0.75000000  0.75000000  0.00000000
   0.75000000  0.87500000  0.12500000
   0.87500000  0.75000000  0.12500000
   0.87500000  0.87500000  0.00000000
   0.75000000  0.75000000  0.25000000
   0.75000000  0.87500000  0.37500000
   0.87500000  0.75000000  0.37500000
   0.87500000  0.87500000  0.25000000
   0.75000000  0.75000000  0.50000000
   0.75000000  0.87500000  0.62500000
   0.87500000  0.75000000  0.62500000
   0.87500000  0.87500000  0.50000000
   0.75000000  0.75000000  0.75000000
   0.75000000  0.87500000  0.87500000
   0.87500000  0.75000000  0.87500000
   0.87500000  0.87500000  0.75000000
 
 position of ions in cartesian coordinates  (Angst):
   0.00000000  0.00000000  0.00000000
   0.00000000  2.02475000  2.02475000
   2.02475000  0.00000000  2.02475000
   2.02475000  2.02475000  0.00000000
   0.00000000  0.00000000  4.04950000
   0.00000000  2.02475000  6.07425000
   2.02475000  0.00000000  6.07425000
   2.02475000  2.02475000  4.04950000
   0.00000000  0.00000000  8.09900000
   0.00000000  2.02475000 10.12375000
   2.02475000  0.00000000 10.12375000
   2.02475000  2.02475000  8.09900000
   0.00000000  0.00000000 12.14850000
   0.00000000  2.02475000 14.17325000
   2.02475000  0.00000000 14.17325000
   2.02475000  2.02475000 12.14850000
   0.00000000  4.04950000  0.00000000
   0.00000000  6.07425000  2.02475000
   2.02475000  4.04950000  2.02475000
   2.02475000  6.07425000  0.00000000
   0.00000000  4.04950000  4.04950000
   0.00000000  6.07425000  6.07425000
   2.02475000  4.04950000  6.07425000
   2.02475000  6.07425000  4.04950000
   0.00000000  4.04950000  8.09900000
   0.00000000  6.07425000 10.12375000
   2.02475000  4.04950000 10.12375000
   2.02475000  6.07425000  8.09900000
   0.00000000  4.04950000 12.14850000
   0.00000000  6.07425000 14.17325000
   2.02475000  4.04950000 14.17325000
   2.02475000  6.07425000 12.14850000
   0.00000000  8.09900000  0.00000000
   0.00000000 10.12375000  2.02475000
   2.02475000  8.09900000  2.02475000
   2.02475000 10.12375000  0.00000000
   0.00000000  8.09900000  4.04950000
   0.00000000 10.12375000  6.07425000
   2.02475000  8.09900000  6.07425000
   2.02475000 10.12375000  4.04950000
   0.00000000  8.09900000  8.09900000
   0.00000000 10.12375000 10.12375000
   2.02475000  8.09900000 10.12375000
   2.02475000 10.12375000  8.09900000
   0.00000000  8.09900000 12.14850000
   0.00000000 10.12375000 14.17325000
   2.02475000  8.09900000 14.17325000
   2.02475000 10.12375000 12.14850000
   0.00000000 12.14850000  0.00000000
   0.00000000 14.17325000  2.02475000
   2.02475000 12.14850000  2.02475000
   2.02475000 14.17325000  0.00000000
   0.00000000 12.14850000  4.04950000
   0.00000000 14.17325000  6.07425000
   2.02475000 12.14850000  6.07425000
   2.02475000 14.17325000  4.04950000
   0.00000000 12.14850000  8.09900000
   0.00000000 14.17325000 10.12375000
   2.02475000 12.14850000 10.12375000
   2.02475000 14.17325000  8.09900000
   0.00000000 12.14850000 12.14850000
   0.00000000 14.17325000 14.17325000
   2.02475000 12.14850000 14.17325000
   2.02475000 14.17325000 12.14850000
   4.04950000  0.00000000  0.00000000
   4.04950000  2.02475000  2.02475000
   6.07425000  0.00000000  2.02475000
   6.07425000  2.02475000  0.00000000
   4.04950000  0.00000000  4.04950000
   4.04950000  2.02475000  6.07425000
   6.07425000  0.00000000  6.07425000
   6.07425000  2.02475000  4.04950000
   4.04950000  0.00000000  8.09900000
   4.04950000  2.02475000 10.12375000
   6.07425000  0.00000000 10.12375000
   6.07425000  2.02475000  8.09900000
   4.04950000  0.00000000 12.14850000
   4.04950000  2.02475000 14.17325000
   6.07425000  0.00000000 14.17325000
   6.07425000  2.02475000 12.14850000
   4.04950000  4.04950000  0.00000000
   4.04950000  6.07425000  2.02475000
   6.07425000  4.04950000  2.02475000
   6.07425000  6.07425000  0.00000000
   4.04950000  4.04950000  4.04950000
   4.04950000  6.07425000  6.07425000
   6.07425000  4.04950000  6.07425000
   6.07425000  6.07425000  4.04950000
   4.04950000  4.04950000  8.09900000
   4.04950000  6.07425000 10.12375000
   6.07425000  4.04950000 10.12375000
   6.07425000  6.07425000  8.09900000
   4.04950000  4.04950000 12.14850000
   4.04950000  6.07425000 14.17325000
   6.07425000  4.04950000 14.17325000
   6.07425000  6.07425000 12.14850000
   4.04950000  8.09900000  0.00000000
   4.04950000 10.12375000  2.02475000
   6.07425000  8.09900000  2.02475000
   6.07425000 10.12375000  0.00000000
   4.04950000  8.09900000  4.04950000
   4.04950000 10.12375000  6.07425000
   6.07425000  8.09900000  6.07425000
   6.07425000 10.12375000  4.04950000
   4.04950000  8.09900000  8.09900000
   4.04950000 10.12375000 10.12375000
   6.07425000  8.09900000 10.12375000
   6.07425000 10.12375000  8.09900000
   4.04950000  8.09900000 12.14850000
   4.04950000 10.12375000 14.17325000
   6.07425000  8.09900000 14.17325000
   6.07425000 10.12375000 12.14850000
   4.04950000 12.14850000  0.00000000
   4.04950000 14.17325000  2.02475000
   6.07425000 12.14850000  2.02475000
   6.07425000 14.17325000  0.00000000
   4.04950000 12.14850000  4.04950000
   4.04950000 14.17325000  6.07425000
   6.07425000 12.14850000  6.07425000
   6.07425000 14.17325000  4.04950000
   4.04950000 12.14850000  8.09900000
   4.04950000 14.17325000 10.12375000
   6.07425000 12.14850000 10.12375000
   6.07425000 14.17325000  8.09900000
   4.04950000 12.14850000 12.14850000
   4.04950000 14.17325000 14.17325000
   6.07425000 12.14850000 14.17325000
   6.07425000 14.17325000 12.14850000
   8.09900000  0.00000000  0.00000000
   8.09900000  2.02475000  2.02475000
  10.12375000  0.00000000  2.02475000
  10.12375000  2.02475000  0.00000000
   8.09900000  0.00000000  4.04950000
   8.09900000  2.02475000  6.07425000
  10.12375000  0.00000000  6.07425000
  10.12375000  2.02475000  4.04950000
   8.09900000  0.00000000  8.09900000
   8.09900000  2.02475000 10.12375000
  10.12375000  0.00000000 10.12375000
  10.12375000  2.02475000  8.09900000
   8.09900000  0.00000000 12.14850000
   8.09900000  2.02475000 14.17325000
  10.12375000  0.00000000 14.17325000
  10.12375000  2.02475000 12.14850000
   8.09900000  4.04950000  0.00000000
   8.09900000  6.07425000  2.02475000
  10.12375000  4.04950000  2.02475000
  10.12375000  6.07425000  0.00000000
   8.09900000  4.04950000  4.04950000
   8.09900000  6.07425000  6.07425000
  10.12375000  4.04950000  6.07425000
  10.12375000  6.07425000  4.04950000
   8.09900000  4.04950000  8.09900000
   8.09900000  6.07425000 10.12375000
  10.12375000  4.04950000 10.12375000
  10.12375000  6.07425000  8.09900000
   8.09900000  4.04950000 12.14850000
   8.09900000  6.07425000 14.17325000
  10.12375000  4.04950000 14.17325000
  10.12375000  6.07425000 12.14850000
   8.09900000  8.09900000  0.00000000
   8.09900000 10.12375000  2.02475000
  10.12375000  8.09900000  2.02475000
  10.12375000 10.12375000  0.00000000
   8.09900000  8.09900000  4.04950000
   8.09900000 10.12375000  6.07425000
  10.12375000  8.09900000  6.07425000
  10.12375000 10.12375000  4.04950000
   8.09900000  8.09900000  8.09900000
   8.09900000 10.12375000 10.12375000
  10.12375000  8.09900000 10.12375000
  10.12375000 10.12375000  8.09900000
   8.09900000  8.09900000 12.14850000
   8.09900000 10.12375000 14.17325000
  10.12375000  8.09900000 14.17325000
  10.12375000 10.12375000 12.14850000
   8.09900000 12.14850000  0.00000000
   8.09900000 14.17325000  2.02475000
  10.12375000 12.14850000  2.02475000
  10.12375000 14.17325000  0.00000000
   8.09900000 12.14850000  4.04950000
   8.09900000 14.17325000  6.07425000
  10.12375000 12.14850000  6.07425000
  10.12375000 14.17325000  4.04950000
   8.09900000 12.14850000  8.09900000
   8.09900000 14.17325000 10.12375000
  10.12375000 12.14850000 10.12375000
  10.12375000 14.17325000  8.09900000
   8.09900000 12.14850000 12.14850000
   8.09900000 14.17325000 14.17325000
  10.12375000 12.14850000 14.17325000
  10.12375000 14.17325000 12.14850000
  12.14850000  0.00000000  0.00000000
  12.14850000  2.02475000  2.02475000
  14.17325000  0.00000000  2.02475000
  14.17325000  2.02475000  0.00000000
  12.14850000  0.00000000  4.04950000
  12.14850000  2.02475000  6.07425000
  14.17325000  0.00000000  6.07425000
  14.17325000  2.02475000  4.04950000
  12.14850000  0.00000000  8.09900000
  12.14850000  2.02475000 10.12375000
  14.17325000  0.00000000 10.12375000
  14.17325000  2.02475000  8.09900000
  12.14850000  0.00000000 12.14850000
  12.14850000  2.02475000 14.17325000
  14.17325000  0.00000000 14.17325000
  14.17325000  2.02475000 12.14850000
  12.14850000  4.04950000  0.00000000
  12.14850000  6.07425000  2.02475000
  14.17325000  4.04950000  2.02475000
  14.17325000  6.07425000  0.00000000
  12.14850000  4.04950000  4.04950000
  12.14850000  6.07425000  6.07425000
  14.17325000  4.04950000  6.07425000
  14.17325000  6.07425000  4.04950000
  12.14850000  4.04950000  8.09900000
  12.14850000  6.07425000 10.12375000
  14.17325000  4.04950000 10.12375000
  14.17325000  6.07425000  8.09900000
  12.14850000  4.04950000 12.14850000
  12.14850000  6.07425000 14.17325000
  14.17325000  4.04950000 14.17325000
  14.17325000  6.07425000 12.14850000
  12.14850000  8.09900000  0.00000000
  12.14850000 10.12375000  2.02475000
  14.17325000  8.09900000  2.02475000
  14.17325000 10.12375000  0.00000000
  12.14850000  8.09900000  4.04950000
  12.14850000 10.12375000  6.07425000
  14.17325000  8.09900000  6.07425000
  14.17325000 10.12375000  4.04950000
  12.14850000  8.09900000  8.09900000
  12.14850000 10.12375000 10.12375000
  14.17325000  8.09900000 10.12375000
  14.17325000 10.12375000  8.09900000
  12.14850000  8.09900000 12.14850000
  12.14850000 10.12375000 14.17325000
  14.17325000  8.09900000 14.17325000
  14.17325000 10.12375000 12.14850000
  12.14850000 12.14850000  0.00000000
  12.14850000 14.17325000  2.02475000
  14.17325000 12.14850000  2.02475000
  14.17325000 14.17325000  0.00000000
  12.14850000 12.14850000  4.04950000
  12.14850000 14.17325000  6.07425000
  14.17325000 12.14850000  6.07425000
  14.17325000 14.17325000  4.04950000
  12.14850000 12.14850000  8.09900000
  12.14850000 14.17325000 10.12375000
  14.17325000 12.14850000 10.12375000
  14.17325000 14.17325000  8.09900000
  12.14850000 12.14850000 12.14850000
  12.14850000 14.17325000 14.17325000
  14.17325000 12.14850000 14.17325000
  14.17325000 14.17325000 12.14850000
 


--------------------------------------------------------------------------------------------------------


 k-point  1 :   0.0000 0.0000 0.0000  plane waves:   50181
 k-point  2 :   0.5000 0.0000 0.0000  plane waves:   50222
 k-point  3 :   0.5000 0.5000 0.0000  plane waves:   50144
 k-point  4 :   0.5000 0.5000 0.5000  plane waves:   50192

 maximum and minimum number of plane-waves per node :     50222    50144

 maximum number of plane-waves:     50222
 maximum index in each direction: 
   IXMAX=   22   IYMAX=   22   IZMAX=   22
   IXMIN=  -23   IYMIN=  -23   IZMIN=  -23


 serial   3D FFT for wavefunctions
 parallel 3D FFT for charge:
    minimum data exchange during FFTs selected (reduces bandwidth)


 total amount of memory used by VASP MPI-rank0   449736. kBytes
=======================================================================

   base      :      30000. kBytes
   nonlr-proj:      60067. kBytes
   fftplans  :      17290. kBytes
   grid      :      36592. kBytes
   one-center:       3981. kBytes
   wavefun   :     301806. kBytes
 
     INWAV:  cpu time    0.0000: real time    0.0001
 Broyden mixing: mesh for mixing (old mesh)
   NGX = 45   NGY = 45   NGZ = 45
  (NGX  =140   NGY  =140   NGZ  =140)
  gives a total of  91125 points

 initial charge density was supplied:
 charge density of overlapping atoms calculated
 number of electron     768.0000000 magnetization 
 keeping initial charge density in first step


--------------------------------------------------------------------------------------------------------


 Maximum index for non-local projection operator         1357
 Maximum index for augmentation-charges          704 (set IRDMAX)


--------------------------------------------------------------------------------------------------------


 First call to EWALD:  gamma=   0.109
 Maximum number of real-space cells 3x 3x 3
 Maximum number of reciprocal cells 3x 3x 3

    FEWALD:  cpu time    0.0398: real time    0.0404


----------------------------------------- Iteration    1(   1)  ---------------------------------------


    POTLOK:  cpu time    0.2850: real time    0.3344
    SETDIJ:  cpu time    0.0980: real time    0.1008
     EDDAV:  cpu time   16.5286: real time   20.5850
       DOS:  cpu time    0.0017: real time    0.0070
    --------------------------------------------
      LOOP:  cpu time   16.9154: real time   21.0439

 eigenvalue-minimisations  :  4140
 total energy-change (2. order) : 0.1150220E+04  (-0.1883397E+05)
 number of electron     768.0000000 magnetization 
 augmentation part      768.0000000 magnetization 

 Free energy of the ion-electron system (eV)
  ---------------------------------------------------
  alpha Z        PSCENC =       920.63483911
  Ewald energy   TEWEN  =    -18781.64485859
  -Hartree energ DENC   =       -26.55351430
  -exchange      EXHF   =         0.00000000
  -V(xc)+E(xc)   XCENC  =     -6720.21123647
  PAW double counting   =     16947.24023729    -8766.87891394
  entropy T*S    EENTRO =        -0.06602312
  eigenvalues    EBANDS =      3872.06810941
  atomic energy  EATOM  =     13705.63174457
  Solvation  Ediel_sol  =         0.00000000
  ---------------------------------------------------
  free energy    TOTEN  =      1150.22038395 eV

  energy without entropy =     1150.28640707  energy(sigma->0) =     1150.25339551


--------------------------------------------------------------------------------------------------------




----------------------------------------- Iteration    1(   2)  ---------------------------------------


     EDDAV:  cpu time   21.0533: real time   25.9093
       DOS:  cpu time    0.0030: real time    0.0030
    --------------------------------------------
      LOOP:  cpu time   21.0579: real time   25.9603

 eigenvalue-minimisations  :  5736
 total energy-change (2. order) :-0.1985880E+04  (-0.1859233E+04)
 number of electron     768.0000000 magnetization 
 augmentation part      768.0000000 magnetization 

 Free energy of the ion-electron system (eV)
  ---------------------------------------------------
  alpha Z        PSCENC =       920.63483911
  Ewald energy   TEWEN  =    -18781.64485859
  -Hartree energ DENC   =       -26.55351430
  -exchange      EXHF   =         0.00000000
  -V(xc)+E(xc)   XCENC  =     -6720.21123647
  PAW double counting   =     16947.24023729    -8766.87891394
  entropy T*S    EENTRO =        -0.09983552
  eigenvalues    EBANDS =      1886.22217429
  atomic energy  EATOM  =     13705.63174457
  Solvation  Ediel_sol  =         0.00000000
  ---------------------------------------------------
  free energy    TOTEN  =      -835.65936356 eV

  energy without entropy =     -835.55952804  energy(sigma->0) =     -835.60944580


--------------------------------------------------------------------------------------------------------




----------------------------------------- Iteration    1(   3)  ---------------------------------------


     EDDAV:  cpu time   19.3979: real time   24.0051
       DOS:  cpu time    0.0022: real time    0.0022
    --------------------------------------------
      LOOP:  cpu time   19.4016: real time   24.0426

 eigenvalue-minimisations  :  5184
 total energy-change (2. order) :-0.1255785E+03  (-0.1183047E+03)
 number of electron     768.0000000 magnetization 
 augmentation part      768.0000000 magnetization 

 Free energy of the ion-electron system (eV)
  ---------------------------------------------------
  alpha Z        PSCENC =       920.63483911
  Ewald energy   TEWEN  =    -18781.64485859
  -Hartree energ DENC   =       -26.55351430
  -exchange      EXHF   =         0.00000000
  -V(xc)+E(xc)   XCENC  =     -6720.21123647
  PAW double counting   =     16947.24023729    -8766.87891394
  entropy T*S    EENTRO =        -0.19555900
  eigenvalues    EBANDS =      1760.73942270
  atomic energy  EATOM  =     13705.63174457
  Solvation  Ediel_sol  =         0.00000000
  ---------------------------------------------------
  free energy    TOTEN  =      -961.23783864 eV

  energy without entropy =     -961.04227964  energy(sigma->0) =     -961.14005914


--------------------------------------------------------------------------------------------------------




----------------------------------------- Iteration    1(   4)  ---------------------------------------


     EDDAV:  cpu time   20.6053: real time   25.4320
       DOS:  cpu time    0.0162: real time    0.0165
    --------------------------------------------
      LOOP:  cpu time   20.6229: real time   25.4783

 eigenvalue-minimisations  :  5580
 total energy-change (2. order) :-0.5592182E+01  (-0.5513822E+01)
 number of electron     768.0000000 magnetization 
 augmentation part      768.0000000 magnetization 

 Free energy of the ion-electron system (eV)
  ---------------------------------------------------
  alpha Z        PSCENC =       920.63483911
  Ewald energy   TEWEN  =    -18781.64485859
  -Hartree energ DENC   =       -26.55351430
  -exchange      EXHF   =         0.00000000
  -V(xc)+E(xc)   XCENC  =     -6720.21123647
  PAW double counting   =     16947.24023729    -8766.87891394
  entropy T*S    EENTRO =        -0.21181469
  eigenvalues    EBANDS =      1755.16349595
  atomic energy  EATOM  =     13705.63174457
  Solvation  Ediel_sol  =         0.00000000
  ---------------------------------------------------
  free energy    TOTEN  =      -966.83002108 eV

  energy without entropy =     -966.61820639  energy(sigma->0) =     -966.72411374


--------------------------------------------------------------------------------------------------------




----------------------------------------- Iteration    1(   5)  ---------------------------------------


     EDDAV:  cpu time   19.6518: real time   24.3038
       DOS:  cpu time    0.0017: real time    0.0017
    CHARGE:  cpu time    2.2604: real time    2.3184
    MIXING:  cpu time    0.0114: real time    0.0114
    --------------------------------------------
      LOOP:  cpu time   21.9268: real time   26.6748

 eigenvalue-minimisations  :  5256
 total energy-change (2. order) :-0.9460116E-01  (-0.9417433E-01)
 number of electron     768.0000016 magnetization 
 augmentation part      -10.1881236 magnetization 

 Broyden mixing:
  rms(total) = 0.15192E+01    rms(broyden)= 0.15191E+01
  rms(prec ) = 0.17098E+01
  weight for this iteration     100.00

 Free energy of the ion-electron system (eV)
  ---------------------------------------------------
  alpha Z        PSCENC =       920.63483911
  Ewald energy   TEWEN  =    -18781.64485859
  -Hartree energ DENC   =       -26.55351430
  -exchange      EXHF   =         0.00000000
  -V(xc)+E(xc)   XCENC  =     -6720.21123647
  PAW double counting   =     16947.24023729    -8766.87891394
  entropy T*S    EENTRO =        -0.21187090
  eigenvalues    EBANDS =      1755.06895099
  atomic energy  EATOM  =     13705.63174457
  Solvation  Ediel_sol  =         0.00000000
  ---------------------------------------------------
  free energy    TOTEN  =      -966.92462224 eV

  energy without entropy =     -966.71275135  energy(sigma->0) =     -966.81868679


--------------------------------------------------------------------------------------------------------




----------------------------------------- Iteration    1(   6)  ---------------------------------------


    POTLOK:  cpu time    0.2821: real time    0.2825
    SETDIJ:  cpu time    0.0995: real time    0.0995
     EDDAV:  cpu time   19.1731: real time   23.6329
       DOS:  cpu time    0.0016: real time    0.0016
    CHARGE:  cpu time    2.2730: real time    2.3079
    MIXING:  cpu time    0.0123: real time    0.0180
    --------------------------------------------
      LOOP:  cpu time   21.8434: real time   26.4109

 eigenvalue-minimisations  :  5052
 total energy-change (2. order) : 0.3401387E+01  (-0.4489262E-01)
 number of electron     768.0000016 magnetization 
 augmentation part      -10.2801778 magnetization 

 Broyden mixing:
  rms(total) = 0.94348E+00    rms(broyden)= 0.94347E+00
  rms(prec ) = 0.10636E+01
  weight for this iteration     100.00

 eigenvalues of (default mixing * dielectric matrix)
  average eigenvalue GAMMA=   2.6299
  2.6299

 Free energy of the ion-electron system (eV)
  ---------------------------------------------------
  alpha Z        PSCENC =       920.63483911
  Ewald energy   TEWEN  =    -18781.64485859
  -Hartree energ DENC   =       -22.23478388
  -exchange      EXHF   =         0.00000000
  -V(xc)+E(xc)   XCENC  =     -6711.17624221
  PAW double counting   =     18806.66216383   -10627.39555071
  entropy T*S    EENTRO =        -0.20961673
  eigenvalues    EBANDS =      1746.20906895
  atomic energy  EATOM  =     13705.63174457
  Solvation  Ediel_sol  =         0.00000000
  ---------------------------------------------------
  free energy    TOTEN  =      -963.52323566 eV

  energy without entropy =     -963.31361893  energy(sigma->0) =     -963.41842729


--------------------------------------------------------------------------------------------------------




----------------------------------------- Iteration    1(   7)  ---------------------------------------


    POTLOK:  cpu time    0.2809: real time    0.2814
    SETDIJ:  cpu time    0.0992: real time    0.0992
     EDDAV:  cpu time   18.7511: real time   23.1547
       DOS:  cpu time    0.0018: real time    0.0018
    CHARGE:  cpu time    2.2463: real time    2.2805
    MIXING:  cpu time    0.0124: real time    0.0124
    --------------------------------------------
      LOOP:  cpu time   21.3936: real time   25.8570

 eigenvalue-minimisations  :  4908
 total energy-change (2. order) : 0.2493504E+01  (-0.1248524E+00)
 number of electron     768.0000017 magnetization 
 augmentation part      -10.4522941 magnetization 

 Broyden mixing:
  rms(total) = 0.36105E-01    rms(broyden)= 0.36099E-01
  rms(prec ) = 0.38455E-01
  weight for this iteration     100.00

 eigenvalues of (default mixing * dielectric matrix)
  average eigenvalue GAMMA=   2.4335
  2.4335  2.4335

 Free energy of the ion-electron system (eV)
  ---------------------------------------------------
  alpha Z        PSCENC =       920.63483911
  Ewald energy   TEWEN  =    -18781.64485859
  -Hartree energ DENC   =       -26.46480995
  -exchange      EXHF   =         0.00000000
  -V(xc)+E(xc)   XCENC  =     -6692.72114731
  PAW double counting   =     22193.33781145   -14016.46940810
  entropy T*S    EENTRO =        -0.20331274
  eigenvalues    EBANDS =      1736.86941008
  atomic energy  EATOM  =     13705.63174457
  Solvation  Ediel_sol  =         0.00000000
  ---------------------------------------------------
  free energy    TOTEN  =      -961.02973148 eV

  energy without entropy =     -960.82641875  energy(sigma->0) =     -960.92807511


--------------------------------------------------------------------------------------------------------




----------------------------------------- Iteration    1(   8)  ---------------------------------------


    POTLOK:  cpu time    0.2807: real time    0.2809
    SETDIJ:  cpu time    0.0995: real time    0.0995
     EDDAV:  cpu time   19.1366: real time   23.6140
       DOS:  cpu time    0.0016: real time    0.0016
    CHARGE:  cpu time    2.2741: real time    2.3082
    MIXING:  cpu time    0.0131: real time    0.0166
    --------------------------------------------
      LOOP:  cpu time   21.8074: real time   26.3522

 eigenvalue-minimisations  :  5016
 total energy-change (2. order) : 0.7357337E-04  (-0.1171760E-02)
 number of electron     768.0000017 magnetization 
 augmentation part      -10.4547693 magnetization 

 Broyden mixing:
  rms(total) = 0.93618E-02    rms(broyden)= 0.93603E-02
  rms(prec ) = 0.10504E-01
  weight for this iteration     100.00

 eigenvalues of (default mixing * dielectric matrix)
  average eigenvalue GAMMA=   2.0693
  1.0056  2.6647  2.5377

 Free energy of the ion-electron system (eV)
  ---------------------------------------------------
  alpha Z        PSCENC =       920.63483911
  Ewald energy   TEWEN  =    -18781.64485859
  -Hartree energ DENC   =       -26.92092355
  -exchange      EXHF   =         0.00000000
  -V(xc)+E(xc)   XCENC  =     -6692.29158598
  PAW double counting   =     22071.19141953   -13894.87360479
  entropy T*S    EENTRO =        -0.20354629
  eigenvalues    EBANDS =      1737.44685808
  atomic energy  EATOM  =     13705.63174457
  Solvation  Ediel_sol  =         0.00000000
  ---------------------------------------------------
  free energy    TOTEN  =      -961.02965791 eV

  energy without entropy =     -960.82611162  energy(sigma->0) =     -960.92788476


--------------------------------------------------------------------------------------------------------




----------------------------------------- Iteration    1(   9)  ---------------------------------------


    POTLOK:  cpu time    0.2804: real time    0.2810
    SETDIJ:  cpu time    0.0996: real time    0.0996
     EDDAV:  cpu time   20.6932: real time   25.4363
       DOS:  cpu time    0.0022: real time    0.0022
    CHARGE:  cpu time    2.2507: real time    2.2873
    MIXING:  cpu time    0.0135: real time    0.0135
    --------------------------------------------
      LOOP:  cpu time   23.3414: real time   28.1617

 eigenvalue-minimisations  :  5532
 total energy-change (2. order) : 0.3080658E-04  (-0.4277504E-04)
 number of electron     768.0000017 magnetization 
 augmentation part      -10.4564467 magnetization 

 Broyden mixing:
  rms(total) = 0.37968E-03    rms(broyden)= 0.37827E-03
  rms(prec ) = 0.39864E-03
  weight for this iteration     100.00

 eigenvalues of (default mixing * dielectric matrix)
  average eigenvalue GAMMA=   1.8369
  2.6670  2.5555  0.9623  1.1627

 Free energy of the ion-electron system (eV)
  ---------------------------------------------------
  alpha Z        PSCENC =       920.63483911
  Ewald energy   TEWEN  =    -18781.64485859
  -Hartree energ DENC   =       -27.14371536
  -exchange      EXHF   =         0.00000000
  -V(xc)+E(xc)   XCENC  =     -6691.99671834
  PAW double counting   =     22063.58397557   -13887.43935404
  entropy T*S    EENTRO =        -0.20356220
  eigenvalues    EBANDS =      1737.54802219
  atomic energy  EATOM  =     13705.63174457
  Solvation  Ediel_sol  =         0.00000000
  ---------------------------------------------------
  free energy    TOTEN  =      -961.02962710 eV

  energy without entropy =     -960.82606491  energy(sigma->0) =     -960.92784600


--------------------------------------------------------------------------------------------------------




----------------------------------------- Iteration    1(  10)  ---------------------------------------


    POTLOK:  cpu time    0.2817: real time    0.2822
    SETDIJ:  cpu time    0.0994: real time    0.1000
     EDDAV:  cpu time   14.8338: real time   18.4372
       DOS:  cpu time    0.0016: real time    0.0016
    --------------------------------------------
      LOOP:  cpu time   15.2181: real time   18.8539

 eigenvalue-minimisations  :  3468
 total energy-change (2. order) : 0.2510325E-05  (-0.6341168E-06)
 number of electron     768.0000017 magnetization 
 augmentation part      -10.4564467 magnetization 

 Free energy of the ion-electron system (eV)
  ---------------------------------------------------
  alpha Z        PSCENC =       920.63483911
  Ewald energy   TEWEN  =    -18781.64485859
  -Hartree energ DENC   =       -27.14541857
  -exchange      EXHF   =         0.00000000
  -V(xc)+E(xc)   XCENC  =     -6691.99708368
  PAW double counting   =     22061.66400806   -13885.51788029
  entropy T*S    EENTRO =        -0.20356396
  eigenvalues    EBANDS =      1737.54858876
  atomic energy  EATOM  =     13705.63174457
  Solvation  Ediel_sol  =         0.00000000
  ---------------------------------------------------
  free energy    TOTEN  =      -961.02962459 eV

  energy without entropy =     -960.82606064  energy(sigma->0) =     -960.92784261


--------------------------------------------------------------------------------------------------------




 average (electrostatic) potential at core
  the test charge radii are     1.0406
  (the norm of the test charge is              1.0000)
       1 -51.2731       2 -51.2733       3 -51.2733       4 -51.2733       5 -51.2731
       6 -51.2733       7 -51.2733       8 -51.2733       9 -51.2731      10 -51.2733
      11 -51.2733      12 -51.2733      13 -51.2731      14 -51.2733      15 -51.2733
      16 -51.2733      17 -51.2731      18 -51.2733      19 -51.2733      20 -51.2733
      21 -51.2731      22 -51.2733      23 -51.2733      24 -51.2733      25 -51.2731
      26 -51.2733      27 -51.2733      28 -51.2733      29 -51.2731      30 -51.2733
      31 -51.2733      32 -51.2733      33 -51.2731      34 -51.2733      35 -51.2733
      36 -51.2733      37 -51.2731      38 -51.2733      39 -51.2733      40 -51.2733
      41 -51.2731      42 -51.2733      43 -51.2733      44 -51.2733      45 -51.2731
      46 -51.2733      47 -51.2733      48 -51.2733      49 -51.2731      50 -51.2733
      51 -51.2733      52 -51.2733      53 -51.2731      54 -51.2733      55 -51.2733
      56 -51.2733      57 -51.2731      58 -51.2733      59 -51.2733      60 -51.2733
      61 -51.2731      62 -51.2733      63 -51.2733      64 -51.2733      65 -51.2731
      66 -51.2733      67 -51.2733      68 -51.2733      69 -51.2731      70 -51.2733
      71 -51.2733      72 -51.2733      73 -51.2731      74 -51.2733      75 -51.2733
      76 -51.2733      77 -51.2731      78 -51.2733      79 -51.2733      80 -51.2733
      81 -51.2731      82 -51.2733      83 -51.2733      84 -51.2733      85 -51.2731
      86 -51.2733      87 -51.2733      88 -51.2733      89 -51.2731      90 -51.2733
      91 -51.2733      92 -51.2733      93 -51.2731      94 -51.2733      95 -51.2733
      96 -51.2733      97 -51.2731      98 -51.2733      99 -51.2733     100 -51.2733
     101 -51.2731     102 -51.2733     103 -51.2733     104 -51.2733     105 -51.2731
     106 -51.2733     107 -51.2733     108 -51.2733     109 -51.2731     110 -51.2733
     111 -51.2733     112 -51.2733     113 -51.2731     114 -51.2733     115 -51.2733
     116 -51.2733     117 -51.2731     118 -51.2733     119 -51.2733     120 -51.2733
     121 -51.2731     122 -51.2733     123 -51.2733     124 -51.2733     125 -51.2731
     126 -51.2733     127 -51.2733     128 -51.2733     129 -51.2731     130 -51.2733
     131 -51.2733     132 -51.2733     133 -51.2731     134 -51.2733     135 -51.2733
     136 -51.2733     137 -51.2731     138 -51.2733     139 -51.2733     140 -51.2733
     141 -51.2731     142 -51.2733     143 -51.2733     144 -51.2733     145 -51.2731
     146 -51.2733     147 -51.2733     148 -51.2733     149 -51.2731     150 -51.2733
     151 -51.2733     152 -51.2733     153 -51.2731     154 -51.2733     155 -51.2733
     156 -51.2733     157 -51.2731     158 -51.2733     159 -51.2733     160 -51.2733
     161 -51.2731     162 -51.2733     163 -51.2733     164 -51.2733     165 -51.2731
     166 -51.2733     167 -51.2733     168 -51.2733     169 -51.2731     170 -51.2733
     171 -51.2733     172 -51.2733     173 -51.2731     174 -51.2733     175 -51.2733
     176 -51.2733     177 -51.2731     178 -51.2733     179 -51.2733     180 -51.2733
     181 -51.2731     182 -51.2733     183 -51.2733     184 -51.2733     185 -51.2731
     186 -51.2733     187 -51.2733     188 -51.2733     189 -51.2731     190 -51.2733
     191 -51.2733     192 -51.2733     193 -51.2731     194 -51.2733     195 -51.2733
     196 -51.2733     197 -51.2731     198 -51.2733     199 -51.2733     200 -51.2733
     201 -51.2731     202 -51.2733     203 -51.2733     204 -51.2733     205 -51.2731
     206 -51.2733     207 -51.2733     208 -51.2733     209 -51.2731     210 -51.2733
     211 -51.2733     212 -51.2733     213 -51.2731     214 -51.2733     215 -51.2733
     216 -51.2733     217 -51.2731     218 -51.2733     219 -51.2733     220 -51.2733
     221 -51.2731     222 -51.2733     223 -51.2733     224 -51.2733     225 -51.2731
     226 -51.2733     227 -51.2733     228 -51.2733     229 -51.2731     230 -51.2733
     231 -51.2733     232 -51.2733     233 -51.2731     234 -51.2733     235 -51.2733
     236 -51.2733     237 -51.2731     238 -51.2733     239 -51.2733     240 -51.2733
     241 -51.2731     242 -51.2733     243 -51.2733     244 -51.2733     245 -51.2731
     246 -51.2733     247 -51.2733     248 -51.2733     249 -51.2731     250 -51.2733
     251 -51.2733     252 -51.2733     253 -51.2731     254 -51.2733     255 -51.2733
     256 -51.2733
 
 
 
 E-fermi :   6.8106     XC(G=0): -10.1746     alpha+bet :-13.5416


 k-point     1 :       0.0000    0.0000    0.0000
  band No.  band energies     occupation 
      1      -4.4222      2.00000
      2      -3.8592      2.00000
      3      -3.8592      2.00000
      4      -3.8592      2.00000
      5      -3.8592      2.00000
      6      -3.8592      2.00000
      7      -3.8592      2.00000
      8      -3.2984      2.00000
      9      -3.2984      2.00000
     10      -3.2984      2.00000
     11      -3.2984      2.00000
     12      -3.2984      2.00000
     13      -3.2984      2.00000
     14      -3.2984      2.00000
     15      -3.2984      2.00000
     16      -3.2984      2.00000
     17      -3.2984      2.00000
     18      -3.2984      2.00000
     19      -3.2984      2.00000
     20      -2.7398      2.00000
     21      -2.7398      2.00000
     22      -2.7398      2.00000
     23      -2.7398      2.00000
     24      -2.7398      2.00000
     25      -2.7398      2.00000
     26      -2.7398      2.00000
     27      -2.7398      2.00000
     28      -2.1834      2.00000
     29      -2.1834      2.00000
     30      -2.1834      2.00000
     31      -2.1834      2.00000
     32      -2.1834      2.00000
     33      -2.1834      2.00000
     34      -1.6288      2.00000
     35      -1.6288      2.00000
     36      -1.6288      2.00000
     37      -1.6288      2.00000
     38      -1.6288      2.00000
     39      -1.6288      2.00000
     40      -1.6288      2.00000
     41      -1.6288      2.00000
     42      -1.6288      2.00000
     43      -1.6288      2.00000
     44      -1.6288      2.00000
     45      -1.6288      2.00000
     46      -1.6288      2.00000
     47      -1.6288      2.00000
     48      -1.6288      2.00000
     49      -1.6288      2.00000
     50      -1.6288      2.00000
     51      -1.6288      2.00000
     52      -1.6288      2.00000
     53      -1.6288      2.00000
     54      -1.6288      2.00000
     55      -1.6288      2.00000
     56      -1.6288      2.00000
     57      -1.6288      2.00000
     58      -1.0764      2.00000
     59      -1.0764      2.00000
     60      -1.0764      2.00000
     61      -1.0764      2.00000
     62      -1.0764      2.00000
     63      -1.0764      2.00000
     64      -1.0764      2.00000
     65      -1.0764      2.00000
     66      -1.0764      2.00000
     67      -1.0764      2.00000
     68      -1.0764      2.00000
     69      -1.0764      2.00000
     70      -1.0764      2.00000
     71      -1.0764      2.00000
     72      -1.0764      2.00000
     73      -1.0764      2.00000
     74      -1.0764      2.00000
     75      -1.0764      2.00000
     76      -1.0764      2.00000
     77      -1.0764      2.00000
     78      -1.0764      2.00000
     79      -1.0764      2.00000
     80      -1.0764      2.00000
     81      -1.0764      2.00000
     82       0.0220      2.00000
     83       0.0220      2.00000
     84       0.0220      2.00000
     85       0.0220      2.00000
     86       0.0220      2.00000
     87       0.0220      2.00000
     88       0.0220      2.00000
     89       0.0220      2.00000
     90       0.0220      2.00000
     91       0.0220      2.00000
     92       0.0220      2.00000
     93       0.0220      2.00000
     94       0.5613      2.00000
     95       0.5613      2.00000
     96       0.5613      2.00000
     97       0.5613      2.00000
     98       0.5613      2.00000
     99       0.5613      2.00000
    100       0.5682      2.00000
    101       0.5682      2.00000
    102       0.5682      2.00000
    103       0.5682      2.00000
    104       0.5682      2.00000
    105       0.5682      2.00000
    106       0.5682      2.00000
    107       0.5682      2.00000
    108       0.5682      2.00000
    109       0.5682      2.00000
    110       0.5682      2.00000
    111       0.5682      2.00000
    112       0.5683      2.00000
    113       0.5683      2.00000
    114       0.5683      2.00000
    115       0.5683      2.00000
    116       0.5683      2.00000
    117       0.5683      2.00000
    118       0.5683      2.00000
    119       0.5683      2.00000
    120       0.5683      2.00000
    121       0.5683      2.00000
    122       0.5683      2.00000
    123       0.5683      2.00000
    124       1.1050      2.00000
    125       1.1050      2.00000
    126       1.1050      2.00000
    127       1.1050      2.00000
    128       1.1050      2.00000
    129       1.1050      2.00000
    130       1.1050      2.00000
    131       1.1050      2.00000
    132       1.1050      2.00000
    133       1.1050      2.00000
    134       1.1050      2.00000
    135       1.1050      2.00000
    136       1.1050      2.00000
    137       1.1050      2.00000
    138       1.1050      2.00000
    139       1.1050      2.00000
    140       1.1050      2.00000
    141       1.1050      2.00000
    142       1.1050      2.00000
    143       1.1050      2.00000
    144       1.1050      2.00000
    145       1.1050      2.00000
    146       1.1050      2.00000
    147       1.1050      2.00000
    148       1.6463      2.00000
    149       1.6463      2.00000
    150       1.6463      2.00000
    151       1.6463      2.00000
    152       1.6463      2.00000
    153       1.6463      2.00000
    154       1.6463      2.00000
    155       1.6463      2.00000
    156       1.6463      2.00000
    157       1.6463      2.00000
    158       1.6463      2.00000
    159       1.6463      2.00000
    160       1.6463      2.00000
    161       1.6463      2.00000
    162       1.6463      2.00000
    163       1.6463      2.00000
    164       1.6463      2.00000
    165       1.6463      2.00000
    166       1.6463      2.00000
    167       1.6463      2.00000
    168       1.6463      2.00000
    169       1.6463      2.00000
    170       1.6463      2.00000
    171       1.6463      2.00000
    172       2.1008      2.00000
    173       2.1008      2.00000
    174       2.1008      2.00000
    175       2.1008      2.00000
    176       2.3015      2.00000
    177       2.3015      2.00000
    178       2.3015      2.00000
[...]
      2.02475     10.12375      8.09900         0.000000      0.000000      0.000000
      0.00000      8.09900     12.14850         0.000000     -0.000000      0.000000
      0.00000     10.12375     14.17325         0.000000      0.000000      0.000000
      2.02475      8.09900     14.17325        -0.000000      0.000000      0.000000
      2.02475     10.12375     12.14850         0.000000      0.000000      0.000000
      0.00000     12.14850      0.00000         0.000000     -0.000000     -0.000000
      0.00000     14.17325      2.02475         0.000000      0.000000     -0.000000
      2.02475     12.14850      2.02475        -0.000000     -0.000000     -0.000000
      2.02475     14.17325      0.00000         0.000000      0.000000     -0.000000
      0.00000     12.14850      4.04950         0.000000     -0.000000     -0.000000
      0.00000     14.17325      6.07425        -0.000000      0.000000      0.000000
      2.02475     12.14850      6.07425         0.000000      0.000000      0.000000
      2.02475     14.17325      4.04950         0.000000      0.000000     -0.000000
      0.00000     12.14850      8.09900        -0.000000      0.000000     -0.000000
      0.00000     14.17325     10.12375        -0.000000      0.000000      0.000000
      2.02475     12.14850     10.12375        -0.000000      0.000000     -0.000000
      2.02475     14.17325      8.09900        -0.000000      0.000000      0.000000
      0.00000     12.14850     12.14850        -0.000000     -0.000000      0.000000
      0.00000     14.17325     14.17325        -0.000000     -0.000000     -0.000000
      2.02475     12.14850     14.17325         0.000000      0.000000      0.000000
      2.02475     14.17325     12.14850        -0.000000     -0.000000      0.000000
      4.04950      0.00000      0.00000         0.000000      0.000000     -0.000000
      4.04950      2.02475      2.02475        -0.000000      0.000000     -0.000000
      6.07425      0.00000      2.02475         0.000000     -0.000000     -0.000000
      6.07425      2.02475      0.00000         0.000000      0.000000     -0.000000
      4.04950      0.00000      4.04950         0.000000     -0.000000     -0.000000
      4.04950      2.02475      6.07425        -0.000000     -0.000000     -0.000000
      6.07425      0.00000      6.07425        -0.000000      0.000000     -0.000000
      6.07425      2.02475      4.04950         0.000000     -0.000000     -0.000000
      4.04950      0.00000      8.09900        -0.000000      0.000000      0.000000
      4.04950      2.02475     10.12375        -0.000000      0.000000     -0.000000
      6.07425      0.00000     10.12375         0.000000      0.000000      0.000000
      6.07425      2.02475      8.09900        -0.000000      0.000000      0.000000
      4.04950      0.00000     12.14850        -0.000000     -0.000000      0.000000
      4.04950      2.02475     14.17325         0.000000     -0.000000     -0.000000
      6.07425      0.00000     14.17325        -0.000000      0.000000      0.000000
      6.07425      2.02475     12.14850        -0.000000     -0.000000      0.000000
      4.04950      4.04950      0.00000        -0.000000     -0.000000      0.000000
      4.04950      6.07425      2.02475        -0.000000      0.000000      0.000000
      6.07425      4.04950      2.02475        -0.000000     -0.000000     -0.000000
      6.07425      6.07425      0.00000        -0.000000      0.000000      0.000000
      4.04950      4.04950      4.04950        -0.000000     -0.000000     -0.000000
      4.04950      6.07425      6.07425         0.000000     -0.000000      0.000000
      6.07425      4.04950      6.07425        -0.000000     -0.000000      0.000000
      6.07425      6.07425      4.04950        -0.000000      0.000000     -0.000000
      4.04950      4.04950      8.09900         0.000000     -0.000000     -0.000000
      4.04950      6.07425     10.12375         0.000000      0.000000     -0.000000
      6.07425      4.04950     10.12375        -0.000000      0.000000      0.000000
      6.07425      6.07425      8.09900        -0.000000     -0.000000      0.000000
      4.04950      4.04950     12.14850         0.000000     -0.000000     -0.000000
      4.04950      6.07425     14.17325         0.000000     -0.000000     -0.000000
      6.07425      4.04950     14.17325         0.000000     -0.000000     -0.000000
      6.07425      6.07425     12.14850         0.000000      0.000000     -0.000000
      4.04950      8.09900      0.00000        -0.000000      0.000000      0.000000
      4.04950     10.12375      2.02475         0.000000     -0.000000      0.000000
      6.07425      8.09900      2.02475        -0.000000     -0.000000      0.000000
      6.07425     10.12375      0.00000        -0.000000      0.000000      0.000000
      4.04950      8.09900      4.04950         0.000000     -0.000000      0.000000
      4.04950     10.12375      6.07425        -0.000000      0.000000     -0.000000
      6.07425      8.09900      6.07425         0.000000     -0.000000      0.000000
      6.07425     10.12375      4.04950         0.000000     -0.000000      0.000000
      4.04950      8.09900      8.09900         0.000000      0.000000     -0.000000
      4.04950     10.12375     10.12375         0.000000     -0.000000      0.000000
      6.07425      8.09900     10.12375         0.000000      0.000000     -0.000000
      6.07425     10.12375      8.09900         0.000000      0.000000     -0.000000
      4.04950      8.09900     12.14850         0.000000     -0.000000     -0.000000
      4.04950     10.12375     14.17325         0.000000     -0.000000      0.000000
      6.07425      8.09900     14.17325         0.000000      0.000000     -0.000000
      6.07425     10.12375     12.14850         0.000000     -0.000000     -0.000000
      4.04950     12.14850      0.00000        -0.000000     -0.000000      0.000000
      4.04950     14.17325      2.02475         0.000000     -0.000000     -0.000000
      6.07425     12.14850      2.02475         0.000000     -0.000000      0.000000
      6.07425     14.17325      0.00000        -0.000000     -0.000000      0.000000
      4.04950     12.14850      4.04950        -0.000000      0.000000     -0.000000
      4.04950     14.17325      6.07425         0.000000      0.000000      0.000000
      6.07425     12.14850      6.07425        -0.000000     -0.000000     -0.000000
      6.07425     14.17325      4.04950        -0.000000      0.000000     -0.000000
      4.04950     12.14850      8.09900         0.000000      0.000000      0.000000
      4.04950     14.17325     10.12375        -0.000000      0.000000     -0.000000
      6.07425     12.14850     10.12375         0.000000      0.000000     -0.000000
      6.07425     14.17325      8.09900         0.000000     -0.000000      0.000000
      4.04950     12.14850     12.14850         0.000000      0.000000      0.000000
      4.04950     14.17325     14.17325        -0.000000     -0.000000      0.000000
      6.07425     12.14850     14.17325        -0.000000     -0.000000      0.000000
      6.07425     14.17325     12.14850        -0.000000     -0.000000     -0.000000
      8.09900      0.00000      0.00000        -0.000000      0.000000      0.000000
      8.09900      2.02475      2.02475         0.000000     -0.000000     -0.000000
     10.12375      0.00000      2.02475        -0.000000     -0.000000      0.000000
     10.12375      2.02475      0.00000        -0.000000     -0.000000      0.000000
      8.09900      0.00000      4.04950        -0.000000      0.000000      0.000000
      8.09900      2.02475      6.07425        -0.000000      0.000000     -0.000000
     10.12375      0.00000      6.07425        -0.000000     -0.000000     -0.000000
     10.12375      2.02475      4.04950        -0.000000      0.000000     -0.000000
      8.09900      0.00000      8.09900         0.000000      0.000000      0.000000
      8.09900      2.02475     10.12375         0.000000     -0.000000      0.000000
     10.12375      0.00000     10.12375         0.000000     -0.000000      0.000000
     10.12375      2.02475      8.09900         0.000000      0.000000     -0.000000
      8.09900      0.00000     12.14850         0.000000      0.000000     -0.000000
      8.09900      2.02475     14.17325        -0.000000     -0.000000      0.000000
     10.12375      0.00000     14.17325        -0.000000      0.000000      0.000000
     10.12375      2.02475     12.14850         0.000000     -0.000000     -0.000000
      8.09900      4.04950      0.00000         0.000000     -0.000000     -0.000000
      8.09900      6.07425      2.02475        -0.000000     -0.000000      0.000000
     10.12375      4.04950      2.02475         0.000000     -0.000000     -0.000000
     10.12375      6.07425      0.00000         0.000000      0.000000     -0.000000
      8.09900      4.04950      4.04950         0.000000     -0.000000     -0.000000
      8.09900      6.07425      6.07425        -0.000000      0.000000     -0.000000
     10.12375      4.04950      6.07425         0.000000      0.000000     -0.000000
     10.12375      6.07425      4.04950         0.000000     -0.000000     -0.000000
      8.09900      4.04950      8.09900        -0.000000      0.000000      0.000000
      8.09900      6.07425     10.12375        -0.000000      0.000000      0.000000
     10.12375      4.04950     10.12375        -0.000000     -0.000000      0.000000
     10.12375      6.07425      8.09900        -0.000000      0.000000      0.000000
      8.09900      4.04950     12.14850         0.000000     -0.000000      0.000000
      8.09900      6.07425     14.17325         0.000000     -0.000000     -0.000000
     10.12375      4.04950     14.17325         0.000000     -0.000000      0.000000
     10.12375      6.07425     12.14850        -0.000000     -0.000000      0.000000
      8.09900      8.09900      0.00000        -0.000000     -0.000000      0.000000
      8.09900     10.12375      2.02475        -0.000000      0.000000     -0.000000
     10.12375      8.09900      2.02475         0.000000     -0.000000      0.000000
     10.12375     10.12375      0.00000        -0.000000     -0.000000     -0.000000
      8.09900      8.09900      4.04950         0.000000     -0.000000     -0.000000
      8.09900     10.12375      6.07425         0.000000     -0.000000     -0.000000
     10.12375      8.09900      6.07425        -0.000000      0.000000     -0.000000
     10.12375     10.12375      4.04950         0.000000     -0.000000     -0.000000
      8.09900      8.09900      8.09900         0.000000     -0.000000      0.000000
      8.09900     10.12375     10.12375        -0.000000      0.000000     -0.000000
     10.12375      8.09900     10.12375        -0.000000      0.000000      0.000000
     10.12375     10.12375      8.09900         0.000000     -0.000000      0.000000
      8.09900      8.09900     12.14850        -0.000000      0.000000     -0.000000
      8.09900     10.12375     14.17325        -0.000000      0.000000     -0.000000
     10.12375      8.09900     14.17325        -0.000000      0.000000     -0.000000
     10.12375     10.12375     12.14850        -0.000000      0.000000     -0.000000
      8.09900     12.14850      0.00000        -0.000000      0.000000      0.000000
      8.09900     14.17325      2.02475        -0.000000     -0.000000      0.000000
     10.12375     12.14850      2.02475        -0.000000     -0.000000      0.000000
     10.12375     14.17325      0.00000        -0.000000      0.000000      0.000000
      8.09900     12.14850      4.04950        -0.000000     -0.000000      0.000000
      8.09900     14.17325      6.07425        -0.000000      0.000000     -0.000000
     10.12375     12.14850      6.07425         0.000000      0.000000     -0.000000
     10.12375     14.17325      4.04950        -0.000000     -0.000000      0.000000
      8.09900     12.14850      8.09900         0.000000      0.000000     -0.000000
      8.09900     14.17325     10.12375         0.000000      0.000000     -0.000000
     10.12375     12.14850     10.12375        -0.000000      0.000000     -0.000000
     10.12375     14.17325      8.09900         0.000000     -0.000000     -0.000000
      8.09900     12.14850     12.14850         0.000000     -0.000000     -0.000000
      8.09900     14.17325     14.17325        -0.000000      0.000000      0.000000
     10.12375     12.14850     14.17325         0.000000      0.000000     -0.000000
     10.12375     14.17325     12.14850         0.000000     -0.000000     -0.000000
     12.14850      0.00000      0.00000        -0.000000      0.000000      0.000000
     12.14850      2.02475      2.02475        -0.000000      0.000000      0.000000
     14.17325      0.00000      2.02475        -0.000000     -0.000000      0.000000
     14.17325      2.02475      0.00000        -0.000000      0.000000      0.000000
     12.14850      0.00000      4.04950        -0.000000     -0.000000     -0.000000
     12.14850      2.02475      6.07425        -0.000000     -0.000000     -0.000000
     14.17325      0.00000      6.07425         0.000000     -0.000000     -0.000000
     14.17325      2.02475      4.04950        -0.000000     -0.000000      0.000000
     12.14850      0.00000      8.09900         0.000000      0.000000      0.000000
     12.14850      2.02475     10.12375         0.000000     -0.000000      0.000000
     14.17325      0.00000     10.12375         0.000000     -0.000000     -0.000000
     14.17325      2.02475      8.09900         0.000000     -0.000000      0.000000
     12.14850      0.00000     12.14850         0.000000     -0.000000     -0.000000
     12.14850      2.02475     14.17325        -0.000000     -0.000000      0.000000
     14.17325      0.00000     14.17325        -0.000000      0.000000     -0.000000
     14.17325      2.02475     12.14850         0.000000     -0.000000     -0.000000
     12.14850      4.04950      0.00000        -0.000000     -0.000000      0.000000
     12.14850      6.07425      2.02475        -0.000000     -0.000000     -0.000000
     14.17325      4.04950      2.02475        -0.000000      0.000000      0.000000
     14.17325      6.07425      0.00000        -0.000000     -0.000000      0.000000
     12.14850      4.04950      4.04950        -0.000000      0.000000     -0.000000
     12.14850      6.07425      6.07425        -0.000000      0.000000     -0.000000
     14.17325      4.04950      6.07425        -0.000000     -0.000000      0.000000
     14.17325      6.07425      4.04950        -0.000000      0.000000     -0.000000
     12.14850      4.04950      8.09900        -0.000000     -0.000000      0.000000
     12.14850      6.07425     10.12375        -0.000000     -0.000000      0.000000
     14.17325      4.04950     10.12375         0.000000     -0.000000     -0.000000
     14.17325      6.07425      8.09900        -0.000000      0.000000      0.000000
     12.14850      4.04950     12.14850         0.000000     -0.000000     -0.000000
     12.14850      6.07425     14.17325         0.000000     -0.000000      0.000000
     14.17325      4.04950     14.17325         0.000000      0.000000      0.000000
     14.17325      6.07425     12.14850         0.000000      0.000000     -0.000000
     12.14850      8.09900      0.00000         0.000000      0.000000     -0.000000
     12.14850     10.12375      2.02475         0.000000      0.000000     -0.000000
     14.17325      8.09900      2.02475         0.000000     -0.000000     -0.000000
     14.17325     10.12375      0.00000         0.000000      0.000000     -0.000000
     12.14850      8.09900      4.04950         0.000000     -0.000000     -0.000000
     12.14850     10.12375      6.07425        -0.000000      0.000000     -0.000000
     14.17325      8.09900      6.07425        -0.000000     -0.000000     -0.000000
     14.17325     10.12375      4.04950         0.000000      0.000000     -0.000000
     12.14850      8.09900      8.09900        -0.000000      0.000000      0.000000
     12.14850     10.12375     10.12375        -0.000000      0.000000      0.000000
     14.17325      8.09900     10.12375        -0.000000     -0.000000      0.000000
     14.17325     10.12375      8.09900        -0.000000      0.000000     -0.000000
     12.14850      8.09900     12.14850        -0.000000     -0.000000      0.000000
     12.14850     10.12375     14.17325        -0.000000     -0.000000     -0.000000
     14.17325      8.09900     14.17325         0.000000      0.000000      0.000000
     14.17325     10.12375     12.14850        -0.000000     -0.000000      0.000000
     12.14850     12.14850      0.00000        -0.000000     -0.000000      0.000000
     12.14850     14.17325      2.02475        -0.000000     -0.000000      0.000000
     14.17325     12.14850      2.02475         0.000000      0.000000      0.000000
     14.17325     14.17325      0.00000        -0.000000     -0.000000      0.000000
     12.14850     12.14850      4.04950         0.000000     -0.000000     -0.000000
     12.14850     14.17325      6.07425         0.000000      0.000000      0.000000
     14.17325     12.14850      6.07425        -0.000000      0.000000     -0.000000
     14.17325     14.17325      4.04950         0.000000     -0.000000     -0.000000
     12.14850     12.14850      8.09900         0.000000      0.000000      0.000000
     12.14850     14.17325     10.12375         0.000000      0.000000     -0.000000
     14.17325     12.14850     10.12375        -0.000000      0.000000      0.000000
     14.17325     14.17325      8.09900         0.000000     -0.000000      0.000000
     12.14850     12.14850     12.14850         0.000000      0.000000     -0.000000
     12.14850     14.17325     14.17325         0.000000      0.000000     -0.000000
     14.17325     12.14850     14.17325        -0.000000     -0.000000     -0.000000
     14.17325     14.17325     12.14850         0.000000      0.000000     -0.000000
 -----------------------------------------------------------------------------------
    total drift:                               -0.000000     -0.000000     -0.000000


--------------------------------------------------------------------------------------------------------



  FREE ENERGIE OF THE ION-ELECTRON SYSTEM (eV)
  ---------------------------------------------------
  free  energy   TOTEN  =      -961.02962459 eV

  energy  without entropy=     -960.82606064  energy(sigma->0) =     -960.92784261
 


--------------------------------------------------------------------------------------------------------


    POTLOK:  cpu time    0.4014: real time    0.4147


--------------------------------------------------------------------------------------------------------


     LOOP+:  cpu time  218.3338: real time  270.7511
    4ORBIT:  cpu time    0.0000: real time    0.0000

 total amount of memory used by VASP MPI-rank0   449736. kBytes
=======================================================================

   base      :      30000. kBytes
   nonlr-proj:      60067. kBytes
   fftplans  :      17290. kBytes
   grid      :      36592. kBytes
   one-center:       3981. kBytes
   wavefun   :     301806. kBytes
 
  
  
 General timing and accounting informations for this job:
 ========================================================
  
                  Total CPU time used (sec):      231.198
                            User time (sec):       39.877
                          System time (sec):      191.321
                         Elapsed time (sec):      295.978
  
                   Maximum memory used (kb):      749228.
                   Average memory used (kb):           0.
  
                          Minor page faults:      6982585
                          Major page faults:           36
                 Voluntary context switches:        11753
