 254 254   0   0
  0.2268316E+02  0.1514622E-08  0.1514622E-08  0.2900000E-08  0.5000000E-15
  1.000000000000000E-004
  CAR 
 NiAl                                    
      5.83008874    -20.07055462  301     -0.59953727      1.00000000
    -20.071  0.0000E+00  0.0000E+00
    -19.984  0.0000E+00  0.0000E+00
    -19.898  0.0000E+00  0.0000E+00
    -19.812  0.0000E+00  0.0000E+00
    -19.725  0.0000E+00  0.0000E+00
    -19.639  0.0000E+00  0.0000E+00
    -19.553  0.0000E+00  0.0000E+00
    -19.466  0.0000E+00  0.0000E+00
    -19.380  0.0000E+00  0.0000E+00
    -19.294  0.0000E+00  0.0000E+00
    -19.207  0.0000E+00  0.0000E+00
    -19.121  0.1385E-08  0.1196E-09
    -19.035  0.7402E-03  0.6390E-04
    -18.948  0.1386E+01  0.1197E+00
    -18.862  0.1743E+02  0.1624E+01
    -18.776  0.4341E+01  0.1999E+01
    -18.689  0.1014E-01  0.2000E+01
    -18.603  0.9192E-07  0.2000E+01
    -18.517  0.2572E-14  0.2000E+01
    -18.430  0.0000E+00  0.2000E+01
    -18.344  0.0000E+00  0.2000E+01
    -18.258  0.0000E+00  0.2000E+01
    -18.171  0.0000E+00  0.2000E+01
    -18.085  0.0000E+00  0.2000E+01
    -17.999  0.0000E+00  0.2000E+01
    -17.912  0.0000E+00  0.2000E+01
    -17.826  0.0000E+00  0.2000E+01
    -17.739  0.0000E+00  0.2000E+01
    -17.653  0.0000E+00  0.2000E+01
    -17.567  0.0000E+00  0.2000E+01
    -17.480  0.0000E+00  0.2000E+01
    -17.394  0.0000E+00  0.2000E+01
    -17.308  0.0000E+00  0.2000E+01
    -17.221  0.0000E+00  0.2000E+01
    -17.135  0.0000E+00  0.2000E+01
    -17.049  0.0000E+00  0.2000E+01
    -16.962  0.0000E+00  0.2000E+01
    -16.876  0.0000E+00  0.2000E+01
    -16.790  0.0000E+00  0.2000E+01
    -16.703  0.0000E+00  0.2000E+01
    -16.617  0.0000E+00  0.2000E+01
    -16.531  0.0000E+00  0.2000E+01
    -16.444  0.0000E+00  0.2000E+01
    -16.358  0.0000E+00  0.2000E+01
    -16.272  0.0000E+00  0.2000E+01
    -16.185  0.0000E+00  0.2000E+01
    -16.099  0.0000E+00  0.2000E+01
    -16.013  0.0000E+00  0.2000E+01
    -15.926  0.0000E+00  0.2000E+01
    -15.840  0.0000E+00  0.2000E+01
    -15.754  0.0000E+00  0.2000E+01
    -15.667  0.0000E+00  0.2000E+01
    -15.581  0.0000E+00  0.2000E+01
    -15.495  0.0000E+00  0.2000E+01
    -15.408  0.0000E+00  0.2000E+01
    -15.322  0.0000E+00  0.2000E+01
    -15.236  0.0000E+00  0.2000E+01
    -15.149  0.0000E+00  0.2000E+01
    -15.063  0.0000E+00  0.2000E+01
    -14.977  0.0000E+00  0.2000E+01
    -14.890  0.0000E+00  0.2000E+01
    -14.804  0.0000E+00  0.2000E+01
    -14.718  0.0000E+00  0.2000E+01
    -14.631  0.0000E+00  0.2000E+01
    -14.545  0.0000E+00  0.2000E+01
    -14.459  0.0000E+00  0.2000E+01
    -14.372  0.0000E+00  0.2000E+01
    -14.286  0.0000E+00  0.2000E+01
    -14.200  0.0000E+00  0.2000E+01
    -14.113  0.0000E+00  0.2000E+01
    -14.027  0.0000E+00  0.2000E+01
    -13.941  0.0000E+00  0.2000E+01
    -13.854  0.0000E+00  0.2000E+01
    -13.768  0.0000E+00  0.2000E+01
    -13.682  0.0000E+00  0.2000E+01
    -13.595  0.0000E+00  0.2000E+01
    -13.509  0.0000E+00  0.2000E+01
    -13.423  0.0000E+00  0.2000E+01
    -13.336  0.0000E+00  0.2000E+01
    -13.250  0.0000E+00  0.2000E+01
    -13.164  0.0000E+00  0.2000E+01
    -13.077  0.0000E+00  0.2000E+01
    -12.991  0.0000E+00  0.2000E+01
    -12.905  0.0000E+00  0.2000E+01
    -12.818  0.0000E+00  0.2000E+01
    -12.732  0.0000E+00  0.2000E+01
    -12.646  0.0000E+00  0.2000E+01
    -12.559  0.0000E+00  0.2000E+01
    -12.473  0.0000E+00  0.2000E+01
    -12.387  0.0000E+00  0.2000E+01
    -12.300  0.0000E+00  0.2000E+01
    -12.214  0.0000E+00  0.2000E+01
    -12.128  0.0000E+00  0.2000E+01
    -12.041  0.0000E+00  0.2000E+01
    -11.955  0.0000E+00  0.2000E+01
    -11.869  0.0000E+00  0.2000E+01
    -11.782  0.0000E+00  0.2000E+01
    -11.696  0.0000E+00  0.2000E+01
    -11.610  0.0000E+00  0.2000E+01
    -11.523  0.0000E+00  0.2000E+01
    -11.437  0.0000E+00  0.2000E+01
    -11.351  0.1006E-08  0.2000E+01
    -11.264  0.6027E-03  0.2000E+01
    -11.178  0.1258E+01  0.2109E+01
    -11.092  0.1725E+02  0.3598E+01
    -11.005  0.4647E+01  0.3999E+01
    -10.919  0.1205E-01  0.4000E+01
    -10.833  0.1224E-06  0.4000E+01
    -10.746  0.5144E-14  0.4000E+01
    -10.660  0.0000E+00  0.4000E+01
    -10.574  0.0000E+00  0.4000E+01
    -10.487  0.0000E+00  0.4000E+01
    -10.401  0.0000E+00  0.4000E+01
    -10.315  0.0000E+00  0.4000E+01
    -10.228  0.0000E+00  0.4000E+01
    -10.142  0.0000E+00  0.4000E+01
    -10.056  0.0000E+00  0.4000E+01
     -9.969  0.0000E+00  0.4000E+01
     -9.883  0.0000E+00  0.4000E+01
     -9.797  0.0000E+00  0.4000E+01
     -9.710  0.0000E+00  0.4000E+01
     -9.624  0.0000E+00  0.4000E+01
     -9.538  0.0000E+00  0.4000E+01
     -9.451  0.0000E+00  0.4000E+01
     -9.365  0.7716E-14  0.4000E+01
     -9.279  0.1355E-06  0.4000E+01
     -9.192  0.7293E-02  0.4001E+01
     -9.106  0.1621E+01  0.4141E+01
     -9.020  0.3982E+01  0.4484E+01
     -8.933  0.6079E+00  0.4537E+01
     -8.847  0.1962E+02  0.6231E+01
     -8.761  0.1456E+02  0.7487E+01
     -8.674  0.1481E+00  0.7500E+01
     -8.588  0.1048E+01  0.7591E+01
     -8.502  0.4447E+01  0.7975E+01
     -8.415  0.1207E+02  0.9017E+01
     -8.329  0.3962E+02  0.1244E+02
     -8.243  0.1908E+02  0.1408E+02
     -8.156  0.2464E+02  0.1621E+02
     -8.070  0.9098E+01  0.1700E+02
     -7.984  0.1440E+00  0.1701E+02
     -7.897  0.1323E+02  0.1815E+02
     -7.811  0.2092E+02  0.1996E+02
     -7.725  0.6152E+01  0.2049E+02
     -7.638  0.2925E+02  0.2301E+02
     -7.552  0.3181E+02  0.2576E+02
     -7.466  0.7281E+02  0.3205E+02
     -7.379  0.5245E+01  0.3250E+02
     -7.293  0.4039E-02  0.3250E+02
     -7.207  0.7598E+00  0.3257E+02
     -7.120  0.3082E+02  0.3523E+02
     -7.034  0.8571E+02  0.4263E+02
     -6.948  0.2313E+02  0.4462E+02
     -6.861  0.2527E+02  0.4681E+02
     -6.775  0.8269E+01  0.4752E+02
     -6.689  0.1738E+02  0.4902E+02
     -6.602  0.2411E+02  0.5110E+02
     -6.516  0.3628E+02  0.5423E+02
     -6.430  0.3698E+02  0.5743E+02
     -6.343  0.6952E+02  0.6343E+02
     -6.257  0.6108E+02  0.6870E+02
     -6.171  0.7496E+01  0.6935E+02
     -6.084  0.5068E+02  0.7372E+02
     -5.998  0.5324E+02  0.7832E+02
     -5.912  0.1064E+03  0.8751E+02
     -5.825  0.2867E+02  0.8998E+02
     -5.739  0.8090E+00  0.9005E+02
     -5.653  0.5863E+01  0.9056E+02
     -5.566  0.2746E+02  0.9293E+02
     -5.480  0.6034E+02  0.9814E+02
     -5.394  0.1493E+03  0.1110E+03
     -5.307  0.8050E+02  0.1180E+03
     -5.221  0.5900E+02  0.1231E+03
     -5.135  0.1011E+03  0.1318E+03
     -5.048  0.1254E+03  0.1426E+03
     -4.962  0.1066E+03  0.1518E+03
     -4.876  0.3917E+02  0.1552E+03
     -4.789  0.1006E+03  0.1639E+03
     -4.703  0.3189E+03  0.1914E+03
     -4.617  0.1618E+03  0.2054E+03
     -4.530  0.2569E+03  0.2276E+03
     -4.444  0.2245E+03  0.2470E+03
     -4.357  0.3132E+03  0.2740E+03
     -4.271  0.2494E+03  0.2955E+03
     -4.185  0.2826E+03  0.3199E+03
     -4.098  0.2286E+03  0.3397E+03
     -4.012  0.3898E+03  0.3733E+03
     -3.926  0.4624E+03  0.4132E+03
     -3.839  0.5320E+03  0.4592E+03
     -3.753  0.4485E+03  0.4979E+03
     -3.667  0.4562E+03  0.5373E+03
     -3.580  0.4601E+03  0.5770E+03
     -3.494  0.3705E+03  0.6090E+03
     -3.408  0.3752E+03  0.6414E+03
     -3.321  0.3354E+03  0.6703E+03
     -3.235  0.4489E+03  0.7091E+03
     -3.149  0.5706E+03  0.7583E+03
     -3.062  0.3876E+03  0.7918E+03
     -2.976  0.4008E+03  0.8264E+03
     -2.890  0.6309E+03  0.8809E+03
     -2.803  0.5021E+03  0.9242E+03
     -2.717  0.5052E+03  0.9678E+03
     -2.631  0.5421E+03  0.1015E+04
     -2.544  0.6308E+03  0.1069E+04
     -2.458  0.6889E+03  0.1129E+04
     -2.372  0.7812E+03  0.1196E+04
     -2.285  0.9100E+03  0.1275E+04
     -2.199  0.8530E+03  0.1348E+04
     -2.113  0.8143E+03  0.1419E+04
     -2.026  0.9036E+03  0.1497E+04
     -1.940  0.7303E+03  0.1560E+04
     -1.854  0.5406E+03  0.1606E+04
     -1.767  0.6215E+03  0.1660E+04
     -1.681  0.5416E+03  0.1707E+04
     -1.595  0.5439E+03  0.1754E+04
     -1.508  0.6281E+03  0.1808E+04
     -1.422  0.8187E+03  0.1879E+04
     -1.336  0.7321E+03  0.1942E+04
     -1.249  0.4390E+03  0.1980E+04
     -1.163  0.6693E+03  0.2037E+04
     -1.077  0.7650E+03  0.2104E+04
     -0.990  0.8470E+03  0.2177E+04
     -0.904  0.7681E+03  0.2243E+04
     -0.818  0.6318E+03  0.2297E+04
     -0.731  0.8680E+03  0.2372E+04
     -0.645  0.1164E+04  0.2473E+04
     -0.559  0.1111E+04  0.2569E+04
     -0.472  0.6609E+03  0.2626E+04
     -0.386  0.3427E+03  0.2655E+04
     -0.300  0.1526E+03  0.2669E+04
     -0.213  0.1141E+03  0.2678E+04
     -0.127  0.1786E+03  0.2694E+04
     -0.041  0.1911E+03  0.2710E+04
      0.046  0.1029E+03  0.2719E+04
      0.132  0.3029E+02  0.2722E+04
      0.218  0.6838E+02  0.2728E+04
      0.305  0.1166E+02  0.2729E+04
      0.391  0.9813E+02  0.2737E+04
      0.477  0.1102E+03  0.2747E+04
      0.564  0.8951E+02  0.2755E+04
      0.650  0.1014E+03  0.2763E+04
      0.736  0.5891E+02  0.2768E+04
      0.823  0.9923E+02  0.2777E+04
      0.909  0.1290E+03  0.2788E+04
      0.995  0.1454E+03  0.2801E+04
      1.082  0.1958E+02  0.2802E+04
      1.168  0.2757E+02  0.2805E+04
      1.254  0.6830E+02  0.2811E+04
      1.341  0.1348E+03  0.2822E+04
      1.427  0.2777E+02  0.2825E+04
      1.513  0.3854E+02  0.2828E+04
      1.600  0.1066E+03  0.2837E+04
      1.686  0.9333E+02  0.2845E+04
      1.772  0.8544E+02  0.2853E+04
      1.859  0.6979E+02  0.2859E+04
      1.945  0.1169E+03  0.2869E+04
      2.031  0.5503E+02  0.2873E+04
      2.118  0.3602E+02  0.2877E+04
      2.204  0.1045E+03  0.2886E+04
      2.290  0.1020E+03  0.2894E+04
      2.377  0.1105E+03  0.2904E+04
      2.463  0.2126E+02  0.2906E+04
      2.549  0.4476E+02  0.2910E+04
      2.636  0.7576E+02  0.2916E+04
      2.722  0.1550E+02  0.2917E+04
      2.808  0.7499E+01  0.2918E+04
      2.895  0.5425E+02  0.2923E+04
      2.981  0.8834E+02  0.2930E+04
      3.067  0.2197E+03  0.2949E+04
      3.154  0.1560E+03  0.2963E+04
      3.240  0.3375E+02  0.2966E+04
      3.326  0.2745E+02  0.2968E+04
      3.413  0.2402E+02  0.2970E+04
      3.499  0.1287E+03  0.2981E+04
      3.585  0.2517E+02  0.2984E+04
      3.672  0.4080E+02  0.2987E+04
      3.758  0.8820E+02  0.2995E+04
      3.844  0.1066E+02  0.2996E+04
      3.931  0.2663E+02  0.2998E+04
      4.017  0.1297E+02  0.2999E+04
      4.103  0.2764E+02  0.3001E+04
      4.190  0.9754E+02  0.3010E+04
      4.276  0.2490E+02  0.3012E+04
      4.362  0.5096E+02  0.3016E+04
      4.449  0.1050E+03  0.3025E+04
      4.535  0.5499E+02  0.3030E+04
      4.621  0.3788E+02  0.3033E+04
      4.708  0.2876E+02  0.3036E+04
      4.794  0.8808E+00  0.3036E+04
      4.880  0.3786E-03  0.3036E+04
      4.967  0.6924E-09  0.3036E+04
      5.053  0.0000E+00  0.3036E+04
      5.139  0.0000E+00  0.3036E+04
      5.226  0.0000E+00  0.3036E+04
      5.312  0.0000E+00  0.3036E+04
      5.398  0.0000E+00  0.3036E+04
      5.485  0.0000E+00  0.3036E+04
      5.571  0.0000E+00  0.3036E+04
      5.657  0.0000E+00  0.3036E+04
      5.744  0.0000E+00  0.3036E+04
      5.830  0.0000E+00  0.3036E+04
