  254  254    1    1
  0.2268316E+02  0.1514622E-08  0.1514622E-08  0.2900000E-08  0.5000000E-15
  1.000000000000000E-004
  CAR 
 NiAl                                    
   2530      4   1518
 
  0.0000000E+00  0.0000000E+00  0.0000000E+00  0.2500000E+00
    1      -18.893113   1.000000
    2      -11.121168   1.000000
    3       -9.085473   1.000000
    4       -8.555763   1.000000
    5       -8.179051   1.000000
    6       -8.178892   1.000000
    7       -8.178768   1.000000
    8       -8.178683   1.000000
    9       -8.178555   1.000000
   10       -8.178212   1.000000
   11       -7.729001   1.000000
   12       -7.673107   1.000000
   13       -7.672893   1.000000
   14       -7.672880   1.000000
   15       -7.672759   1.000000
   16       -7.672523   1.000000
   17       -7.672250   1.000000
   18       -6.887514   1.000000
   19       -6.887371   1.000000
   20       -6.887243   1.000000
   21       -6.887204   1.000000
   22       -6.886922   1.000000
   23       -6.886765   1.000000
   24       -6.704215   1.000000
   25       -6.543385   1.000000
   26       -6.543358   1.000000
   27       -6.543145   1.000000
   28       -6.543075   1.000000
   29       -6.542915   1.000000
   30       -6.542862   1.000000
   31       -6.122934   1.000000
   32       -6.122873   1.000000
   33       -6.122692   1.000000
   34       -6.122606   1.000000
   35       -6.122499   1.000000
   36       -6.122444   1.000000
   37       -5.922122   1.000000
   38       -5.922095   1.000000
   39       -5.922071   1.000000
   40       -5.922002   1.000000
   41       -5.921969   1.000000
   42       -5.921951   1.000000
   43       -5.921515   1.000000
   44       -5.921424   1.000000
   45       -5.921358   1.000000
   46       -5.921289   1.000000
   47       -5.921108   1.000000
   48       -5.920918   1.000000
   49       -5.693836   1.000000
   50       -5.590401   1.000000
   51       -5.590366   1.000000
   52       -5.590335   1.000000
   53       -5.590273   1.000000
   54       -5.590218   1.000000
   55       -5.590200   1.000000
   56       -5.495712   1.000000
   57       -5.495635   1.000000
   58       -5.495566   1.000000
   59       -5.495420   1.000000
   60       -5.495383   1.000000
   61       -5.495315   1.000000
   62       -5.142655   1.000000
   63       -5.142627   1.000000
   64       -5.142601   1.000000
   65       -5.142572   1.000000
   66       -5.142555   1.000000
   67       -5.142501   1.000000
   68       -5.119660   1.000000
   69       -5.059394   1.000000
   70       -4.985547   1.000000
   71       -4.985406   1.000000
   72       -4.985348   1.000000
   73       -4.985278   1.000000
   74       -4.985034   1.000000
   75       -4.984907   1.000000
   76       -4.887662   1.000000
   77       -4.813047   1.000000
   78       -4.813043   1.000000
   79       -4.812970   1.000000
   80       -4.773559   1.000000
   81       -4.773509   1.000000
   82       -4.773439   1.000000
   83       -4.773314   1.000000
   84       -4.773276   1.000000
   85       -4.773167   1.000000
   86       -4.690042   1.000000
   87       -4.689851   1.000000
   88       -4.689809   1.000000
   89       -4.689770   1.000000
   90       -4.689749   1.000000
   91       -4.689688   1.000000
   92       -4.672247   1.000000
   93       -4.672137   1.000000
   94       -4.672043   1.000000
   95       -4.669245   1.000000
   96       -4.668598   1.000000
   97       -4.579491   1.000000
   98       -4.579445   1.000000
   99       -4.579357   1.000000
  100       -4.579313   1.000000
  101       -4.579226   1.000000
  102       -4.579187   1.000000
  103       -4.579065   1.000000
  104       -4.579013   1.000000
  105       -4.578946   1.000000
  106       -4.578932   1.000000
  107       -4.578745   1.000000
  108       -4.578680   1.000000
  109       -4.536860   1.000000
  110       -4.536854   1.000000
  111       -4.536775   1.000000
  112       -4.466472   1.000000
  113       -4.466453   1.000000
  114       -4.466341   1.000000
  115       -4.431724   1.000000
  116       -4.431430   1.000000
  117       -4.431374   1.000000
  118       -4.431234   1.000000
  119       -4.430857   1.000000
  120       -4.430442   1.000000
  121       -4.375812   1.000000
  122       -4.375711   1.000000
  123       -4.375657   1.000000
  124       -4.375641   1.000000
  125       -4.375523   1.000000
  126       -4.375508   1.000000
  127       -4.375435   1.000000
  128       -4.375357   1.000000
  129       -4.375317   1.000000
  130       -4.375263   1.000000
  131       -4.375156   1.000000
  132       -4.375116   1.000000
  133       -4.365054   1.000000
  134       -4.365021   1.000000
  135       -4.364868   1.000000
  136       -4.364788   1.000000
  137       -4.364687   1.000000
  138       -4.364655   1.000000
  139       -4.364621   1.000000
  140       -4.364507   1.000000
  141       -4.364462   1.000000
  142       -4.364340   1.000000
  143       -4.364260   1.000000
  144       -4.364209   1.000000
  145       -4.318746   1.000000
  146       -4.318553   1.000000
  147       -4.318346   1.000000
  148       -4.318199   1.000000
  149       -4.317995   1.000000
  150       -4.317480   1.000000
  151       -4.282131   1.000000
  152       -4.282076   1.000000
  153       -4.282036   1.000000
  154       -4.281969   1.000000
  155       -4.281931   1.000000
  156       -4.281889   1.000000
  157       -4.261447   1.000000
  158       -4.261437   1.000000
  159       -4.261300   1.000000
  160       -4.223574   1.000000
  161       -4.223536   1.000000
  162       -4.223502   1.000000
  163       -4.223370   1.000000
  164       -4.223332   1.000000
  165       -4.223273   1.000000
  166       -4.223195   1.000000
  167       -4.223102   1.000000
  168       -4.223006   1.000000
  169       -4.222959   1.000000
  170       -4.222933   1.000000
  171       -4.222796   1.000000
  172       -4.160968   1.000000
  173       -4.160966   1.000000
  174       -4.160788   1.000000
  175       -4.132134   1.000000
  176       -4.132107   1.000000
  177       -4.131979   1.000000
  178       -4.131898   1.000000
  179       -4.131717   1.000000
  180       -4.131673   1.000000
  181       -4.052631   1.000000
  182       -4.052611   1.000000
  183       -4.052500   1.000000
  184       -4.025644   1.000000
  185       -4.025568   1.000000
  186       -4.025511   1.000000
  187       -4.025457   1.000000
  188       -4.025292   1.000000
  189       -4.025264   1.000000
  190       -4.025250   1.000000
  191       -4.025206   1.000000
  192       -4.025057   1.000000
  193       -4.024990   1.000000
  194       -4.024911   1.000000
  195       -4.024814   1.000000
  196       -3.991702   1.000000
  197       -3.991700   1.000000
  198       -3.991546   1.000000
  199       -3.927163   1.000000
  200       -3.927137   1.000000
  201       -3.926965   1.000000
  202       -3.926521   1.000000
  203       -3.926486   1.000000
  204       -3.926400   1.000000
  205       -3.926374   1.000000
  206       -3.926314   1.000000
  207       -3.926258   1.000000
  208       -3.881627   1.000000
  209       -3.881312   1.000000
  210       -3.881278   1.000000
  211       -3.881208   1.000000
  212       -3.881109   1.000000
  213       -3.881080   1.000000
  214       -3.881010   1.000000
  215       -3.880949   1.000000
  216       -3.880911   1.000000
  217       -3.880638   1.000000
  218       -3.880613   1.000000
  219       -3.880370   1.000000
  220       -3.869435   1.000000
  221       -3.869388   1.000000
  222       -3.869328   1.000000
  223       -3.869269   1.000000
  224       -3.869237   1.000000
  225       -3.869108   1.000000
  226       -3.786404   1.000000
  227       -3.786281   1.000000
  228       -3.786233   1.000000
  229       -3.786209   1.000000
  230       -3.786083   1.000000
  231       -3.786042   1.000000
  232       -3.785963   1.000000
  233       -3.785938   1.000000
  234       -3.785860   1.000000
  235       -3.785740   1.000000
  236       -3.785715   1.000000
  237       -3.785633   1.000000
  238       -3.754991   1.000000
  239       -3.754967   1.000000
  240       -3.754731   1.000000
  241       -3.754705   1.000000
  242       -3.754483   1.000000
  243       -3.754427   1.000000
  244       -3.739152   1.000000
  245       -3.739101   1.000000
  246       -3.738837   1.000000
  247       -3.738762   1.000000
  248       -3.735166   1.000000
  249       -3.735122   1.000000
  250       -3.735022   1.000000
  251       -3.734990   1.000000
  252       -3.734975   1.000000
  253       -3.734935   1.000000
  254       -3.729602   1.000000
  255       -3.729512   1.000000
  256       -3.689189   1.000000
  257       -3.688943   1.000000
  258       -3.688850   1.000000
  259       -3.688829   1.000000
  260       -3.688820   1.000000
  261       -3.688756   1.000000
  262       -3.688666   1.000000
  263       -3.688598   1.000000
  264       -3.688460   1.000000
  265       -3.688330   1.000000
  266       -3.688152   1.000000
  267       -3.688041   1.000000
  268       -3.677989   1.000000
  269       -3.677973   1.000000
  270       -3.677875   1.000000
  271       -3.629445   1.000000
  272       -3.629365   1.000000
  273       -3.629257   1.000000
  274       -3.629176   1.000000
  275       -3.629165   1.000000
  276       -3.629034   1.000000
  277       -3.622540   1.000000
  278       -3.622499   1.000000
  279       -3.622470   1.000000
  280       -3.622379   1.000000
  281       -3.603070   1.000000
  282       -3.603066   1.000000
  283       -3.587308   1.000000
  284       -3.587248   1.000000
  285       -3.586947   1.000000
  286       -3.586810   1.000000
  287       -3.586552   1.000000
  288       -3.586431   1.000000
  289       -3.575945   1.000000
  290       -3.575894   1.000000
  291       -3.575689   1.000000
  292       -3.575661   1.000000
  293       -3.571174   1.000000
  294       -3.571158   1.000000
  295       -3.504717   1.000000
  296       -3.504712   1.000000
  297       -3.504120   1.000000
  298       -3.504109   1.000000
  299       -3.499556   1.000000
  300       -3.499408   1.000000
  301       -3.499362   1.000000
  302       -3.499296   1.000000
  303       -3.499247   1.000000
  304       -3.499112   1.000000
  305       -3.499075   1.000000
  306       -3.499045   1.000000
  307       -3.498970   1.000000
  308       -3.498896   1.000000
  309       -3.498785   1.000000
  310       -3.498707   1.000000
  311       -3.453171   1.000000
  312       -3.453133   1.000000
  313       -3.452843   1.000000
  314       -3.452664   1.000000
  315       -3.452439   1.000000
  316       -3.452359   1.000000
  317       -3.417376   1.000000
  318       -3.417344   1.000000
  319       -3.417093   1.000000
  320       -3.417041   1.000000
  321       -3.416785   1.000000
  322       -3.416677   1.000000
  323       -3.413489   1.000000
  324       -3.413338   1.000000
  325       -3.413261   1.000000
  326       -3.413196   1.000000
  327       -3.413040   1.000000
  328       -3.413009   1.000000
  329       -3.412881   1.000000
  330       -3.412851   1.000000
  331       -3.412762   1.000000
  332       -3.412661   1.000000
  333       -3.412591   1.000000
  334       -3.412452   1.000000
  335       -3.396648   1.000000
  336       -3.396640   1.000000
  337       -3.396590   1.000000
  338       -3.396538   1.000000
  339       -3.396505   1.000000
  340       -3.396369   1.000000
  341       -3.301990   1.000000
  342       -3.301958   1.000000
  343       -3.301930   1.000000
  344       -3.276962   1.000000
  345       -3.276878   1.000000
  346       -3.276730   1.000000
  347       -3.276598   1.000000
  348       -3.276429   1.000000
  349       -3.276354   1.000000
  350       -3.237169   1.000000
  351       -3.237139   1.000000
  352       -3.223299   1.000000
  353       -3.223168   1.000000
  354       -3.223107   1.000000
  355       -3.223057   1.000000
  356       -3.222978   1.000000
  357       -3.222934   1.000000
  358       -3.222838   1.000000
  359       -3.222806   1.000000
  360       -3.222717   1.000000
  361       -3.222613   1.000000
  362       -3.222593   1.000000
  363       -3.222453   1.000000
  364       -3.196611   1.000000
  365       -3.196586   1.000000
  366       -3.158664   1.000000
  367       -3.158618   1.000000
  368       -3.158555   1.000000
  369       -3.158530   1.000000
  370       -3.158514   1.000000
  371       -3.158499   1.000000
  372       -3.153829   1.000000
  373       -3.153690   1.000000
  374       -3.153580   1.000000
  375       -3.153491   1.000000
  376       -3.153425   1.000000
  377       -3.153293   1.000000
  378       -3.149594   1.000000
  379       -3.149544   1.000000
  380       -3.149459   1.000000
  381       -3.149246   1.000000
  382       -3.149175   1.000000
  383       -3.148989   1.000000
  384       -3.082912   1.000000
  385       -3.082881   1.000000
  386       -3.082804   1.000000
  387       -3.082765   1.000000
  388       -3.082735   1.000000
  389       -3.082707   1.000000
  390       -3.082624   1.000000
  391       -3.082583   1.000000
  392       -3.082514   1.000000
  393       -3.082408   1.000000
  394       -3.082275   1.000000
  395       -3.082215   1.000000
  396       -3.046108   1.000000
  397       -3.046072   1.000000
  398       -3.045935   1.000000
  399       -3.045865   1.000000
  400       -3.045631   1.000000
  401       -3.045581   1.000000
  402       -2.974238   1.000000
  403       -2.974140   1.000000
  404       -2.974028   1.000000
  405       -2.973993   1.000000
  406       -2.973898   1.000000
  407       -2.973547   1.000000
  408       -2.962405   1.000000
  409       -2.962389   1.000000
  410       -2.962233   1.000000
  411       -2.962203   1.000000
  412       -2.961973   1.000000
  413       -2.961936   1.000000
  414       -2.946531   1.000000
  415       -2.946462   1.000000
  416       -2.946424   1.000000
  417       -2.946367   1.000000
  418       -2.946322   1.000000
  419       -2.946263   1.000000
  420       -2.923361   1.000000
  421       -2.923276   1.000000
  422       -2.923220   1.000000
  423       -2.923052   1.000000
  424       -2.922966   1.000000
  425       -2.922897   1.000000
  426       -2.902148   1.000000
  427       -2.902144   1.000000
  428       -2.902084   1.000000
  429       -2.901969   1.000000
  430       -2.901896   1.000000
  431       -2.901805   1.000000
  432       -2.901777   1.000000
  433       -2.901665   1.000000
  434       -2.901637   1.000000
  435       -2.901530   1.000000
  436       -2.901407   1.000000
  437       -2.901381   1.000000
  438       -2.898849   1.000000
  439       -2.898840   1.000000
  440       -2.898798   1.000000
  441       -2.898785   1.000000
  442       -2.898782   1.000000
  443       -2.898737   1.000000
  444       -2.837970   1.000000
  445       -2.837922   1.000000
  446       -2.837876   1.000000
  447       -2.835309   1.000000
  448       -2.835160   1.000000
  449       -2.835091   1.000000
  450       -2.834989   1.000000
  451       -2.834948   1.000000
  452       -2.834923   1.000000
  453       -2.829236   1.000000
  454       -2.829129   1.000000
  455       -2.829098   1.000000
  456       -2.829021   1.000000
  457       -2.828973   1.000000
  458       -2.828918   1.000000
  459       -2.828847   1.000000
  460       -2.828819   1.000000
  461       -2.828784   1.000000
  462       -2.828727   1.000000
  463       -2.828666   1.000000
  464       -2.828626   1.000000
  465       -2.777369   1.000000
  466       -2.777339   1.000000
  467       -2.777047   1.000000
  468       -2.777031   1.000000
  469       -2.744772   1.000000
  470       -2.744702   1.000000
  471       -2.744513   1.000000
  472       -2.744416   1.000000
  473       -2.744395   1.000000
  474       -2.744278   1.000000
  475       -2.741507   1.000000
  476       -2.741462   1.000000
  477       -2.741429   1.000000
  478       -2.741335   1.000000
  479       -2.741261   1.000000
  480       -2.741236   1.000000
  481       -2.735918   1.000000
  482       -2.735866   1.000000
  483       -2.735751   1.000000
  484       -2.735636   1.000000
  485       -2.735593   1.000000
  486       -2.735540   1.000000
  487       -2.721288   1.000000
  488       -2.721268   1.000000
  489       -2.721223   1.000000
  490       -2.721196   1.000000
  491       -2.721163   1.000000
  492       -2.721042   1.000000
  493       -2.721011   1.000000
  494       -2.720930   1.000000
  495       -2.720884   1.000000
  496       -2.720803   1.000000
  497       -2.720685   1.000000
  498       -2.720609   1.000000
  499       -2.714822   1.000000
  500       -2.714809   1.000000
  501       -2.684975   1.000000
  502       -2.684815   1.000000
  503       -2.684788   1.000000
  504       -2.684631   1.000000
  505       -2.684519   1.000000
  506       -2.684482   1.000000
  507       -2.651096   1.000000
  508       -2.651076   1.000000
  509       -2.651062   1.000000
  510       -2.651029   1.000000
  511       -2.651011   1.000000
  512       -2.650977   1.000000
  513       -2.647235   1.000000
  514       -2.617005   1.000000
  515       -2.616973   1.000000
  516       -2.616255   1.000000
  517       -2.616247   1.000000
  518       -2.610406   1.000000
  519       -2.610274   1.000000
  520       -2.610089   1.000000
  521       -2.609983   1.000000
  522       -2.609876   1.000000
  523       -2.609830   1.000000
  524       -2.605984   1.000000
  525       -2.559572   1.000000
  526       -2.559480   1.000000
  527       -2.559400   1.000000
  528       -2.559318   1.000000
  529       -2.559281   1.000000
  530       -2.559227   1.000000
  531       -2.559129   1.000000
  532       -2.559054   1.000000
  533       -2.558920   1.000000
  534       -2.558798   1.000000
  535       -2.558769   1.000000
  536       -2.558646   1.000000
  537       -2.547170   1.000000
  538       -2.547064   1.000000
  539       -2.546903   1.000000
  540       -2.546817   1.000000
  541       -2.546729   1.000000
  542       -2.546646   1.000000
  543       -2.546265   1.000000
  544       -2.546260   1.000000
  545       -2.546111   1.000000
  546       -2.521959   1.000000
  547       -2.521868   1.000000
  548       -2.521783   1.000000
  549       -2.511043   1.000000
  550       -2.510931   1.000000
  551       -2.510859   1.000000
  552       -2.510845   1.000000
  553       -2.510763   1.000000
  554       -2.510650   1.000000
  555       -2.492559   1.000000
  556       -2.492490   1.000000
  557       -2.492462   1.000000
  558       -2.492397   1.000000
  559       -2.492343   1.000000
  560       -2.492246   1.000000
  561       -2.482097   1.000000
  562       -2.482057   1.000000
  563       -2.482041   1.000000
  564       -2.482013   1.000000
  565       -2.481909   1.000000
  566       -2.481863   1.000000
  567       -2.481835   1.000000
  568       -2.481765   1.000000
  569       -2.481698   1.000000
  570       -2.481662   1.000000
  571       -2.481638   1.000000
  572       -2.481525   1.000000
  573       -2.478127   1.000000
  574       -2.477907   1.000000
  575       -2.457512   1.000000
  576       -2.457369   1.000000
  577       -2.435723   1.000000
  578       -2.435620   1.000000
  579       -2.435569   1.000000
  580       -2.435497   1.000000
  581       -2.435476   1.000000
  582       -2.435403   1.000000
  583       -2.435232   1.000000
  584       -2.435215   1.000000
  585       -2.435158   1.000000
  586       -2.435122   1.000000
  587       -2.434851   1.000000
  588       -2.434637   1.000000
  589       -2.410756   1.000000
  590       -2.410715   1.000000
  591       -2.410686   1.000000
  592       -2.410625   1.000000
  593       -2.410496   1.000000
  594       -2.410401   1.000000
  595       -2.406281   1.000000
  596       -2.393039   1.000000
  597       -2.393035   1.000000
  598       -2.392859   1.000000
  599       -2.391727   1.000000
  600       -2.391601   1.000000
  601       -2.391572   1.000000
  602       -2.391455   1.000000
  603       -2.391332   1.000000
  604       -2.391272   1.000000
  605       -2.387181   1.000000
  606       -2.387142   1.000000
  607       -2.387118   1.000000
  608       -2.387033   1.000000
  609       -2.386937   1.000000
  610       -2.386849   1.000000
  611       -2.381006   1.000000
  612       -2.380786   1.000000
  613       -2.321641   1.000000
  614       -2.321571   1.000000
  615       -2.321466   1.000000
  616       -2.321366   1.000000
  617       -2.321262   1.000000
  618       -2.321177   1.000000
  619       -2.320765   1.000000
  620       -2.315175   1.000000
  621       -2.315008   1.000000
  622       -2.314166   1.000000
  623       -2.314053   1.000000
  624       -2.313959   1.000000
  625       -2.289484   1.000000
  626       -2.289448   1.000000
  627       -2.289390   1.000000
  628       -2.289347   1.000000
  629       -2.289303   1.000000
  630       -2.289207   1.000000
  631       -2.288189   1.000000
  632       -2.287892   1.000000
  633       -2.287765   1.000000
  634       -2.287645   1.000000
  635       -2.287477   1.000000
  636       -2.287399   1.000000
  637       -2.267573   1.000000
  638       -2.267498   1.000000
  639       -2.267460   1.000000
  640       -2.263017   1.000000
  641       -2.262967   1.000000
  642       -2.262923   1.000000
  643       -2.254414   1.000000
  644       -2.254200   1.000000
  645       -2.232974   1.000000
  646       -2.232838   1.000000
  647       -2.232809   1.000000
  648       -2.232732   1.000000
  649       -2.232540   1.000000
  650       -2.232492   1.000000
  651       -2.232461   1.000000
  652       -2.232378   1.000000
  653       -2.232261   1.000000
  654       -2.232219   1.000000
  655       -2.232153   1.000000
  656       -2.232060   1.000000
  657       -2.221771   1.000000
  658       -2.221708   1.000000
  659       -2.221633   1.000000
  660       -2.221538   1.000000
  661       -2.221538   1.000000
  662       -2.221465   1.000000
  663       -2.219297   1.000000
  664       -2.219147   1.000000
  665       -2.219057   1.000000
  666       -2.219001   1.000000
  667       -2.218882   1.000000
  668       -2.218877   1.000000
  669       -2.214203   1.000000
  670       -2.214201   1.000000
  671       -2.212580   1.000000
  672       -2.212577   1.000000
  673       -2.179530   1.000000
  674       -2.179341   1.000000
  675       -2.179313   1.000000
  676       -2.179184   1.000000
  677       -2.179085   1.000000
  678       -2.179040   1.000000
  679       -2.169460   1.000000
  680       -2.169357   1.000000
  681       -2.169274   1.000000
  682       -2.169217   1.000000
  683       -2.169173   1.000000
  684       -2.169063   1.000000
  685       -2.154919   1.000000
  686       -2.125533   1.000000
  687       -2.125413   1.000000
  688       -2.125345   1.000000
  689       -2.125192   1.000000
  690       -2.125126   1.000000
  691       -2.125066   1.000000
  692       -2.125023   1.000000
  693       -2.125009   1.000000
  694       -2.124948   1.000000
  695       -2.124813   1.000000
  696       -2.124654   1.000000
  697       -2.124629   1.000000
  698       -2.123072   1.000000
  699       -2.122879   1.000000
  700       -2.116854   1.000000
  701       -2.116659   1.000000
  702       -2.116528   1.000000
  703       -2.116382   1.000000
  704       -2.116288   1.000000
  705       -2.115862   1.000000
  706       -2.114851   1.000000
  707       -2.114830   1.000000
  708       -2.114803   1.000000
  709       -2.114578   1.000000
  710       -2.114503   1.000000
  711       -2.114435   1.000000
  712       -2.114264   1.000000
  713       -2.114172   1.000000
  714       -2.112907   1.000000
  715       -2.112904   1.000000
  716       -2.110724   1.000000
  717       -2.110719   1.000000
  718       -2.096376   1.000000
  719       -2.096095   1.000000
  720       -2.095968   1.000000
  721       -2.095822   1.000000
  722       -2.095710   1.000000
  723       -2.095479   1.000000
  724       -2.038690   1.000000
  725       -2.038646   1.000000
  726       -2.038602   1.000000
  727       -2.038571   1.000000
  728       -2.038562   1.000000
  729       -2.038540   1.000000
  730       -2.035044   1.000000
  731       -2.034948   1.000000
  732       -2.034871   1.000000
  733       -2.034827   1.000000
  734       -2.034785   1.000000
  735       -2.034697   1.000000
  736       -2.034668   1.000000
  737       -2.034632   1.000000
  738       -2.034614   1.000000
  739       -2.034584   1.000000
  740       -2.034478   1.000000
  741       -2.034311   1.000000
  742       -2.000183   1.000000
  743       -1.999898   1.000000
  744       -1.999862   1.000000
  745       -1.999588   1.000000
  746       -1.999485   1.000000
  747       -1.999220   1.000000
  748       -1.993216   1.000000
  749       -1.993092   1.000000
  750       -1.993035   1.000000
  751       -1.992976   1.000000
  752       -1.992863   1.000000
  753       -1.992586   1.000000
  754       -1.942463   1.000000
  755       -1.942329   1.000000
  756       -1.942235   1.000000
  757       -1.942129   1.000000
  758       -1.942072   1.000000
  759       -1.942006   1.000000
  760       -1.936138   1.000000
  761       -1.936109   1.000000
  762       -1.935986   1.000000
  763       -1.935945   1.000000
  764       -1.935902   1.000000
  765       -1.935881   1.000000
  766       -1.935832   1.000000
  767       -1.935774   1.000000
  768       -1.935741   1.000000
  769       -1.935708   1.000000
  770       -1.935578   1.000000
  771       -1.935556   1.000000
  772       -1.935091   1.000000
  773       -1.934993   1.000000
  774       -1.934793   1.000000
  775       -1.934738   1.000000
  776       -1.934559   1.000000
  777       -1.934496   1.000000
  778       -1.905294   1.000000
  779       -1.905226   1.000000
  780       -1.905178   1.000000
  781       -1.898380   1.000000
  782       -1.898113   1.000000
  783       -1.898026   1.000000
  784       -1.897749   1.000000
  785       -1.897601   1.000000
  786       -1.897406   1.000000
  787       -1.877050   1.000000
  788       -1.876981   1.000000
  789       -1.876843   1.000000
  790       -1.876757   1.000000
  791       -1.876568   1.000000
  792       -1.876421   1.000000
  793       -1.853676   1.000000
  794       -1.853578   1.000000
  795       -1.853477   1.000000
  796       -1.853376   1.000000
  797       -1.853336   1.000000
  798       -1.853235   1.000000
  799       -1.842675   1.000000
  800       -1.842652   1.000000
  801       -1.842608   1.000000
  802       -1.842562   1.000000
  803       -1.842543   1.000000
  804       -1.842509   1.000000
  805       -1.815500   1.000000
  806       -1.815419   1.000000
  807       -1.815353   1.000000
  808       -1.815263   1.000000
  809       -1.815236   1.000000
  810       -1.815212   1.000000
  811       -1.815099   1.000000
  812       -1.815026   1.000000
  813       -1.814954   1.000000
  814       -1.814857   1.000000
  815       -1.814827   1.000000
  816       -1.814709   1.000000
  817       -1.774750   1.000000
  818       -1.774722   1.000000
  819       -1.774651   1.000000
  820       -1.774602   1.000000
  821       -1.774587   1.000000
  822       -1.774483   1.000000
  823       -1.774434   1.000000
  824       -1.774421   1.000000
  825       -1.774391   1.000000
  826       -1.774331   1.000000
  827       -1.774291   1.000000
  828       -1.774204   1.000000
  829       -1.768520   1.000000
  830       -1.768410   1.000000
  831       -1.768366   1.000000
  832       -1.768171   1.000000
  833       -1.768112   1.000000
  834       -1.767933   1.000000
  835       -1.766519   1.000000
  836       -1.766443   1.000000
  837       -1.766388   1.000000
  838       -1.766292   1.000000
  839       -1.766188   1.000000
  840       -1.765989   1.000000
  841       -1.760966   1.000000
  842       -1.760948   1.000000
  843       -1.760772   1.000000
  844       -1.760697   1.000000
  845       -1.760497   1.000000
  846       -1.760433   1.000000
  847       -1.745511   1.000000
  848       -1.745413   1.000000
  849       -1.745357   1.000000
  850       -1.745308   1.000000
  851       -1.745107   1.000000
  852       -1.745063   1.000000
  853       -1.732167   1.000000
  854       -1.732118   1.000000
  855       -1.732111   1.000000
  856       -1.703375   1.000000
  857       -1.703351   1.000000
  858       -1.703339   1.000000
  859       -1.703302   1.000000
  860       -1.703281   1.000000
  861       -1.703274   1.000000
  862       -1.688982   1.000000
  863       -1.688948   1.000000
  864       -1.688871   1.000000
  865       -1.687611   1.000000
  866       -1.687574   1.000000
  867       -1.687450   1.000000
  868       -1.687367   1.000000
  869       -1.687228   1.000000
  870       -1.687083   1.000000
  871       -1.638760   1.000000
  872       -1.638662   1.000000
  873       -1.638597   1.000000
  874       -1.638563   1.000000
  875       -1.638515   1.000000
  876       -1.638417   1.000000
  877       -1.638374   1.000000
  878       -1.638332   1.000000
  879       -1.638268   1.000000
  880       -1.638246   1.000000
  881       -1.637982   1.000000
  882       -1.637923   1.000000
  883       -1.622676   1.000000
  884       -1.622558   1.000000
  885       -1.622463   1.000000
  886       -1.622306   1.000000
  887       -1.622165   1.000000
  888       -1.621912   1.000000
  889       -1.592619   1.000000
  890       -1.589936   1.000000
  891       -1.589840   1.000000
  892       -1.589758   1.000000
  893       -1.589734   1.000000
  894       -1.589595   1.000000
  895       -1.589405   1.000000
  896       -1.520867   1.000000
  897       -1.520798   1.000000
  898       -1.520760   1.000000
  899       -1.520724   1.000000
  900       -1.520696   1.000000
  901       -1.520601   1.000000