   2   2   0   0
  0.1963270E+02  0.3037782E-09  0.3037782E-09  0.4913221E-09  0.2000000E-15
  1.000000000000000E-004
  CAR 
 NiAl                                    
     17.79180397     -5.83385648  301      5.34267352      1.00000000
     -5.834  0.0000E+00  0.0000E+00
     -5.755  0.0000E+00  0.0000E+00
     -5.676  0.0000E+00  0.0000E+00
     -5.598  0.0000E+00  0.0000E+00
     -5.519  0.0000E+00  0.0000E+00
     -5.440  0.0000E+00  0.0000E+00
     -5.361  0.0000E+00  0.0000E+00
     -5.283  0.0000E+00  0.0000E+00
     -5.204  0.0000E+00  0.0000E+00
     -5.125  0.0000E+00  0.0000E+00
     -5.046  0.1175E-16  0.9252E-18
     -4.968  0.9092E-10  0.7160E-11
     -4.889  0.5661E-05  0.4458E-06
     -4.810  0.3303E-02  0.2606E-03
     -4.731  0.3018E-01  0.2637E-02
     -4.653  0.1231E-01  0.3607E-02
     -4.574  0.1092E+00  0.1220E-01
     -4.495  0.2073E+00  0.2853E-01
     -4.416  0.8415E-01  0.3515E-01
     -4.338  0.3731E+00  0.6454E-01
     -4.259  0.6914E-01  0.6998E-01
     -4.180  0.1191E-01  0.7092E-01
     -4.101  0.1901E+00  0.8589E-01
     -4.023  0.1424E+00  0.9711E-01
     -3.944  0.3332E+00  0.1233E+00
     -3.865  0.6566E+00  0.1751E+00
     -3.786  0.3127E+00  0.1997E+00
     -3.708  0.3713E+00  0.2289E+00
     -3.629  0.9796E-01  0.2366E+00
     -3.550  0.1112E-02  0.2367E+00
     -3.471  0.1055E+00  0.2450E+00
     -3.393  0.3622E+00  0.2736E+00
     -3.314  0.1036E+00  0.2817E+00
     -3.235  0.6377E+00  0.3319E+00
     -3.156  0.4535E+00  0.3676E+00
     -3.078  0.7471E+00  0.4265E+00
     -2.999  0.5916E+00  0.4731E+00
     -2.920  0.1349E+00  0.4837E+00
     -2.841  0.1436E+00  0.4950E+00
     -2.763  0.1089E+00  0.5036E+00
     -2.684  0.2425E+00  0.5227E+00
     -2.605  0.8940E+00  0.5931E+00
     -2.526  0.8593E+00  0.6608E+00
     -2.448  0.5726E-01  0.6653E+00
     -2.369  0.3384E+00  0.6919E+00
     -2.290  0.1488E+00  0.7036E+00
     -2.211  0.2200E+00  0.7210E+00
     -2.133  0.4865E+00  0.7593E+00
     -2.054  0.3711E+00  0.7885E+00
     -1.975  0.6789E+00  0.8420E+00
     -1.896  0.1973E+00  0.8575E+00
     -1.817  0.1100E+01  0.9441E+00
     -1.739  0.1044E+01  0.1026E+01
     -1.660  0.2978E+00  0.1050E+01
     -1.581  0.8531E-01  0.1057E+01
     -1.502  0.3792E+00  0.1086E+01
     -1.424  0.3564E+00  0.1114E+01
     -1.345  0.1051E+01  0.1197E+01
     -1.266  0.9684E+00  0.1274E+01
     -1.187  0.7527E+00  0.1333E+01
     -1.109  0.2173E+00  0.1350E+01
     -1.030  0.1314E-02  0.1350E+01
     -0.951  0.8939E-07  0.1350E+01
     -0.872  0.2190E-03  0.1350E+01
     -0.794  0.7916E-01  0.1356E+01
     -0.715  0.8481E+00  0.1423E+01
     -0.636  0.7708E+00  0.1484E+01
     -0.557  0.1595E+01  0.1609E+01
     -0.479  0.1126E+01  0.1698E+01
     -0.400  0.3031E+00  0.1722E+01
     -0.321  0.7131E+00  0.1778E+01
     -0.242  0.2897E+00  0.1801E+01
     -0.164  0.9780E+00  0.1878E+01
     -0.085  0.1052E+01  0.1961E+01
     -0.006  0.4555E+00  0.1997E+01
      0.073  0.3305E+00  0.2023E+01
      0.151  0.6002E+00  0.2070E+01
      0.230  0.1453E+00  0.2081E+01
      0.309  0.8669E+00  0.2150E+01
      0.388  0.7301E+00  0.2207E+01
      0.466  0.4992E+00  0.2246E+01
      0.545  0.2544E+00  0.2266E+01
      0.624  0.2122E+00  0.2283E+01
      0.703  0.9459E+00  0.2358E+01
      0.781  0.9002E+00  0.2429E+01
      0.860  0.3927E+00  0.2460E+01
      0.939  0.1334E+01  0.2565E+01
      1.018  0.4891E+00  0.2603E+01
      1.096  0.8028E+00  0.2666E+01
      1.175  0.1018E+01  0.2747E+01
      1.254  0.3904E+00  0.2777E+01
      1.333  0.8964E+00  0.2848E+01
      1.411  0.6308E+00  0.2898E+01
      1.490  0.4179E+00  0.2930E+01
      1.569  0.9045E+00  0.3002E+01
      1.648  0.5138E+00  0.3042E+01
      1.726  0.1629E+00  0.3055E+01
      1.805  0.6838E+00  0.3109E+01
      1.884  0.9735E+00  0.3185E+01
      1.963  0.1983E+01  0.3342E+01
      2.041  0.7222E+00  0.3398E+01
      2.120  0.5736E+00  0.3444E+01
      2.199  0.1254E+01  0.3542E+01
      2.278  0.7517E+00  0.3602E+01
      2.356  0.5467E+00  0.3645E+01
      2.435  0.4875E+00  0.3683E+01
      2.514  0.4477E+00  0.3718E+01
      2.593  0.6075E+00  0.3766E+01
      2.671  0.6797E+00  0.3820E+01
      2.750  0.6911E+00  0.3874E+01
      2.829  0.7593E+00  0.3934E+01
      2.908  0.5014E+00  0.3973E+01
      2.986  0.6079E+00  0.4021E+01
      3.065  0.6181E+00  0.4070E+01
      3.144  0.2906E+00  0.4093E+01
      3.223  0.8930E+00  0.4163E+01
      3.301  0.1974E+01  0.4319E+01
      3.380  0.1049E+01  0.4401E+01
      3.459  0.6855E+00  0.4455E+01
      3.538  0.3237E+00  0.4481E+01
      3.616  0.9334E+00  0.4554E+01
      3.695  0.1235E+01  0.4651E+01
      3.774  0.1536E+01  0.4772E+01
      3.853  0.1039E+01  0.4854E+01
      3.931  0.6957E+00  0.4909E+01
      4.010  0.9991E+00  0.4988E+01
      4.089  0.9265E+00  0.5061E+01
      4.168  0.2416E+00  0.5080E+01
      4.246  0.7820E+00  0.5141E+01
      4.325  0.9392E+00  0.5215E+01
      4.404  0.1986E+01  0.5372E+01
      4.483  0.5206E+00  0.5413E+01
      4.561  0.3487E+00  0.5440E+01
      4.640  0.1479E+00  0.5452E+01
      4.719  0.3987E+00  0.5483E+01
      4.798  0.1102E+01  0.5570E+01
      4.876  0.1896E+01  0.5719E+01
      4.955  0.8494E+00  0.5786E+01
      5.034  0.6303E+00  0.5836E+01
      5.113  0.8297E+00  0.5901E+01
      5.191  0.7191E+00  0.5958E+01
      5.270  0.1619E+00  0.5970E+01
      5.349  0.4461E+00  0.6006E+01
      5.428  0.9069E+00  0.6077E+01
      5.506  0.1301E+01  0.6179E+01
      5.585  0.1399E+01  0.6290E+01
      5.664  0.1990E+01  0.6446E+01
      5.743  0.1218E+01  0.6542E+01
      5.821  0.1255E+01  0.6641E+01
      5.900  0.1256E+01  0.6740E+01
      5.979  0.1120E+01  0.6828E+01
      6.058  0.1259E+01  0.6927E+01
      6.136  0.3781E+00  0.6957E+01
      6.215  0.1317E+01  0.7061E+01
      6.294  0.4820E+00  0.7099E+01
      6.373  0.7796E+00  0.7160E+01
      6.451  0.9169E+00  0.7232E+01
      6.530  0.6195E+00  0.7281E+01
      6.609  0.6422E+00  0.7332E+01
      6.688  0.7122E+00  0.7388E+01
      6.766  0.1299E+01  0.7490E+01
      6.845  0.1238E+01  0.7588E+01
      6.924  0.1642E+01  0.7717E+01
      7.003  0.1050E+01  0.7800E+01
      7.082  0.1238E+01  0.7897E+01
      7.160  0.1309E+01  0.8000E+01
      7.239  0.1119E+01  0.8088E+01
      7.318  0.5865E+00  0.8134E+01
      7.397  0.3640E+00  0.8163E+01
      7.475  0.8144E+00  0.8227E+01
      7.554  0.2739E+00  0.8249E+01
      7.633  0.1003E+01  0.8328E+01
      7.712  0.1730E+01  0.8464E+01
      7.790  0.1577E+01  0.8588E+01
      7.869  0.2746E+00  0.8610E+01
      7.948  0.1120E+01  0.8698E+01
      8.027  0.5410E+00  0.8741E+01
      8.105  0.9102E+00  0.8812E+01
      8.184  0.1382E+01  0.8921E+01
      8.263  0.1104E+01  0.9008E+01
      8.342  0.7658E+00  0.9069E+01
      8.420  0.2118E+01  0.9235E+01
      8.499  0.1489E+01  0.9353E+01
      8.578  0.1298E+01  0.9455E+01
      8.657  0.1259E+01  0.9554E+01
      8.735  0.8476E+00  0.9621E+01
      8.814  0.3498E-01  0.9623E+01
      8.893  0.2073E+00  0.9640E+01
      8.972  0.1345E+01  0.9746E+01
      9.050  0.2332E+01  0.9929E+01
      9.129  0.1496E+01  0.1005E+02
      9.208  0.2227E+01  0.1022E+02
      9.287  0.7618E+00  0.1028E+02
      9.365  0.2889E-01  0.1028E+02
      9.444  0.9528E+00  0.1036E+02
      9.523  0.1866E+01  0.1051E+02
      9.602  0.9382E+00  0.1058E+02
      9.680  0.8074E+00  0.1064E+02
      9.759  0.1523E+01  0.1076E+02
      9.838  0.2651E+01  0.1097E+02
      9.917  0.5933E+00  0.1102E+02
      9.995  0.1088E+01  0.1111E+02
     10.074  0.9743E+00  0.1118E+02
     10.153  0.5772E+00  0.1123E+02
     10.232  0.6904E+00  0.1128E+02
     10.310  0.1147E+01  0.1137E+02
     10.389  0.5300E+00  0.1141E+02
     10.468  0.3600E+00  0.1144E+02
     10.547  0.9833E+00  0.1152E+02
     10.625  0.1352E+01  0.1163E+02
     10.704  0.9829E+00  0.1170E+02
     10.783  0.2134E+01  0.1187E+02
     10.862  0.1418E+01  0.1198E+02
     10.940  0.8098E+00  0.1205E+02
     11.019  0.1474E+01  0.1216E+02
     11.098  0.7413E+00  0.1222E+02
     11.177  0.6737E+00  0.1227E+02
     11.255  0.1792E+01  0.1242E+02
     11.334  0.1316E+01  0.1252E+02
     11.413  0.1502E+01  0.1264E+02
     11.492  0.1308E+01  0.1274E+02
     11.570  0.1226E+01  0.1284E+02
     11.649  0.1119E+01  0.1293E+02
     11.728  0.1376E+01  0.1303E+02
     11.807  0.1045E+01  0.1312E+02
     11.885  0.1357E+01  0.1322E+02
     11.964  0.1254E+01  0.1332E+02
     12.043  0.4038E+00  0.1335E+02
     12.122  0.1772E+01  0.1349E+02
     12.200  0.1180E+01  0.1359E+02
     12.279  0.1034E+01  0.1367E+02
     12.358  0.1629E+01  0.1380E+02
     12.437  0.1145E+01  0.1389E+02
     12.515  0.9676E+00  0.1396E+02
     12.594  0.2457E+01  0.1416E+02
     12.673  0.8387E+00  0.1422E+02
     12.752  0.1111E+00  0.1423E+02
     12.830  0.6859E+00  0.1428E+02
     12.909  0.2077E+01  0.1445E+02
     12.988  0.7798E+00  0.1451E+02
     13.067  0.1088E+01  0.1460E+02
     13.145  0.1163E+01  0.1469E+02
     13.224  0.3183E+00  0.1471E+02
     13.303  0.6451E+00  0.1476E+02
     13.382  0.6380E+00  0.1481E+02
     13.460  0.1497E+01  0.1493E+02
     13.539  0.7738E+00  0.1499E+02
     13.618  0.1550E+01  0.1511E+02
     13.697  0.8575E+00  0.1518E+02
     13.775  0.3481E+00  0.1521E+02
     13.854  0.3492E+00  0.1524E+02
     13.933  0.1717E+00  0.1525E+02
     14.012  0.2477E+00  0.1527E+02
     14.090  0.6846E+00  0.1532E+02
     14.169  0.6585E+00  0.1537E+02
     14.248  0.7968E+00  0.1544E+02
     14.327  0.6552E+00  0.1549E+02
     14.405  0.5478E+00  0.1553E+02
     14.484  0.6456E+00  0.1558E+02
     14.563  0.6473E+00  0.1563E+02
     14.642  0.3157E-01  0.1564E+02
     14.720  0.4043E-03  0.1564E+02
     14.799  0.5999E-01  0.1564E+02
     14.878  0.4217E+00  0.1567E+02
     14.957  0.1926E+00  0.1569E+02
     15.035  0.3229E-02  0.1569E+02
     15.114  0.6189E-01  0.1569E+02
     15.193  0.5315E+00  0.1574E+02
     15.272  0.5381E+00  0.1578E+02
     15.350  0.9988E+00  0.1586E+02
     15.429  0.7874E+00  0.1592E+02
     15.508  0.1913E+00  0.1593E+02
     15.587  0.1024E+00  0.1594E+02
     15.665  0.2345E-01  0.1594E+02
     15.744  0.1239E+00  0.1595E+02
     15.823  0.2674E-01  0.1596E+02
     15.902  0.1056E-03  0.1596E+02
     15.981  0.4141E-08  0.1596E+02
     16.059  0.1316E-14  0.1596E+02
     16.138  0.0000E+00  0.1596E+02
     16.217  0.0000E+00  0.1596E+02
     16.296  0.4699E-17  0.1596E+02
     16.374  0.4104E-10  0.1596E+02
     16.453  0.3381E-05  0.1596E+02
     16.532  0.2582E-02  0.1596E+02
     16.611  0.4073E-01  0.1596E+02
     16.689  0.2296E+00  0.1598E+02
     16.768  0.2567E+00  0.1600E+02
     16.847  0.2058E-01  0.1600E+02
     16.926  0.3405E-04  0.1600E+02
     17.004  0.5456E-09  0.1600E+02
     17.083  0.5639E-16  0.1600E+02
     17.162  0.0000E+00  0.1600E+02
     17.241  0.0000E+00  0.1600E+02
     17.319  0.0000E+00  0.1600E+02
     17.398  0.0000E+00  0.1600E+02
     17.477  0.0000E+00  0.1600E+02
     17.556  0.0000E+00  0.1600E+02
     17.634  0.0000E+00  0.1600E+02
     17.713  0.0000E+00  0.1600E+02
     17.792  0.0000E+00  0.1600E+02
