    2    2    1    1
  0.1963270E+02  0.3037782E-09  0.3037782E-09  0.4913221E-09  0.2000000E-15
  1.000000000000000E-004
  CAR 
 NiAl                                    
      6     56      8
 
  0.0000000E+00  0.0000000E+00  0.0000000E+00  0.1666667E-02
    1       -4.759963   1.000000
    2        1.174832   1.000000
    3        1.353494   1.000000
    4       14.253210   0.000000
    5       14.253229   0.000000
    6       15.121994   0.000000
    7       15.122007   0.000000
    8       16.586496   0.000000
 
  0.1000000E+00  0.0000000E+00  0.0000000E+00  0.1000000E-01
    1       -4.546422   1.000000
    2        1.386391   1.000000
    3        1.553722   1.000000
    4       11.662141   0.000000
    5       12.947984   0.000000
    6       14.439665   0.000000
    7       16.670794   0.000000
    8       16.717910   0.000000
 
  0.2000000E+00  0.0000000E+00  0.0000000E+00  0.1000000E-01
    1       -3.907537   1.000000
    2        2.017100   1.000000
    3        2.153741   1.000000
    4        8.425763   0.000000
    5       11.654889   0.000000
    6       13.176131   0.000000
    7       13.869104   0.000000
    8       14.056830   0.000000
 
  0.3000000E+00  0.0000000E+00  0.0000000E+00  0.1000000E-01
    1       -2.848745   1.000000
    2        3.047832   1.000000
    3        3.150005   1.000000
    4        5.457405   0.000587
    5       10.722243   0.000000
    6       11.005796   0.000000
    7       11.202940   0.000000
    8       12.327586   0.000000
 
  0.4000000E+00  0.0000000E+00  0.0000000E+00  0.1000000E-01
    1       -1.380655   1.000000
    2        2.761946   1.000000
    3        4.524551   1.000000
    4        4.547615   1.000000
    5        8.535486   0.000000
    6        8.671389   0.000000
    7       10.161638   0.000000
    8       11.710904   0.000000
 
  0.5000000E+00  0.0000000E+00  0.0000000E+00  0.5000000E-02
    1        0.293087   1.000000
    2        0.716671   1.000000
    3        5.866165   0.000000
    4        6.169318   0.000000
    5        6.544490   0.000000
    6        6.940075   0.000000
    7        9.974769   0.000000
    8       11.505843   0.000000
 
  0.1000000E+00  0.1000000E+00  0.0000000E+00  0.1000000E-01
    1       -4.120218   1.000000
    2        1.807559   1.000000
    3        1.953866   1.000000
    4       10.022198   0.000000
    5       10.311337   0.000000
    6       15.176291   0.000000
    7       15.308112   0.000000
    8       15.382724   0.000000
 
  0.2000000E+00  0.1000000E+00  0.0000000E+00  0.2000000E-01
    1       -3.271302   1.000000
    2        2.640712   1.000000
    3        2.752381   1.000000
    4        7.040919   0.000000
    5        9.011582   0.000000
    6       12.563294   0.000000
    7       12.643516   0.000000
    8       14.340160   0.000000
 
  0.3000000E+00  0.1000000E+00  0.0000000E+00  0.2000000E-01
    1       -2.007198   1.000000
    2        3.762986   1.000000
    3        3.941603   1.000000
    4        4.352418   1.000000
    5        8.206330   0.000000
    6        9.954498   0.000000
    7       10.005422   0.000000
    8       13.633888   0.000000
 
  0.4000000E+00  0.1000000E+00  0.0000000E+00  0.2000000E-01
    1       -0.346924   1.000000
    2        1.760277   1.000000
    3        5.462401   0.000354
    4        5.530200   0.000000
    5        7.426608   0.000000
    6        7.724485   0.000000
    7        8.021005   0.000000
    8       13.276137   0.000000
 
  0.2000000E+00  0.2000000E+00  0.0000000E+00  0.1000000E-01
    1       -2.216824   1.000000
    2        3.652002   1.000000
    3        3.745438   1.000000
    4        5.921748   0.000000
    5        6.205193   0.000000
    6       11.185528   0.000000
    7       11.464579   0.000000
    8       11.851947   0.000000
 
  0.3000000E+00  0.2000000E+00  0.0000000E+00  0.2000000E-01
    1       -0.754513   1.000000
    2        3.356330   1.000000
    3        5.054541   1.000000
    4        5.113858   1.000000
    5        5.567425   0.000000
    6        9.123251   0.000000
    7        9.169850   0.000000
    8       11.123351   0.000000
 
  0.4000000E+00  0.2000000E+00  0.0000000E+00  0.1000000E-01
    1        0.920746   1.000000
    2        1.320169   1.000000
    3        5.192737   0.999989
    4        6.459062   0.000000
    5        6.753345   0.000000
    6        7.272190   0.000000
    7        7.452924   0.000000
    8       10.927811   0.000000
 
  0.3000000E+00  0.3000000E+00  0.0000000E+00  0.1000000E-01
    1        0.888385   1.000000
    2        2.776243   1.000000
    3        3.209002   1.000000
    4        6.600691   0.000000
    5        6.754849   0.000000
    6        8.236673   0.000000
    7        8.614984   0.000000
    8        9.022727   0.000000
 
  0.0000000E+00  0.0000000E+00  0.1666667E+00  0.3333333E-02
    1       -4.589654   1.000000
    2       -0.555897   1.000000
    3        3.389157   1.000000
    4       14.379621   0.000000
    5       14.395434   0.000000
    6       14.395453   0.000000
    7       15.272809   0.000000
    8       15.272822   0.000000
 
  0.1000000E+00  0.0000000E+00  0.1666667E+00  0.2000000E-01
    1       -4.376312   1.000000
    2       -0.347193   1.000000
    3        3.591407   1.000000
    4       11.802049   0.000000
    5       13.095461   0.000000
    6       14.167773   0.000000
    7       15.338703   0.000000
    8       15.399933   0.000000
 
  0.2000000E+00  0.0000000E+00  0.1666667E+00  0.2000000E-01
    1       -3.738085   1.000000
    2        0.276600   1.000000
    3        4.194195   1.000000
    4        8.580315   0.000000
    5       11.803442   0.000000
    6       12.304840   0.000000
    7       13.299777   0.000000
    8       15.178544   0.000000
 
  0.3000000E+00  0.0000000E+00  0.1666667E+00  0.2000000E-01
    1       -2.680310   1.000000
    2        1.308682   1.000000
    3        5.127810   1.000000
    4        5.668383   0.000000
    5        9.437533   0.000000
    6       10.871151   0.000000
    7       12.374720   0.000000
    8       13.045320   0.000000
 
  0.4000000E+00  0.0000000E+00  0.1666667E+00  0.2000000E-01
    1       -1.213566   1.000000
    2        2.663550   1.000000
    3        3.033010   1.000000
    4        6.362324   0.000000
    5        7.116727   0.000000
    6       10.310681   0.000000
    7       10.572298   0.000000
    8       11.863347   0.000000
 
  0.5000000E+00  0.0000000E+00  0.1666667E+00  0.1000000E-01
    1        0.459848   1.000000
    2        0.878813   1.000000
    3        4.406373   1.000000
    4        4.756633   1.000000
    5        8.288093   0.000000
    6        8.634539   0.000000
    7       10.123804   0.000000
    8       11.656124   0.000000
 
  0.1000000E+00  0.1000000E+00  0.1666667E+00  0.2000000E-01
    1       -3.950535   1.000000
    2        0.068990   1.000000
    3        3.994149   1.000000
    4       10.175751   0.000000
    5       10.451785   0.000000
    6       13.778691   0.000000
    7       14.210019   0.000000
    8       14.865887   0.000000
 
  0.2000000E+00  0.1000000E+00  0.1666667E+00  0.4000000E-01
    1       -3.102485   1.000000
    2        0.897211   1.000000
    3        4.787588   1.000000
    4        7.201490   0.000000
    5        9.159197   0.000000
    6       10.991475   0.000000
    7       12.859021   0.000000
    8       14.496999   0.000000
 
  0.3000000E+00  0.1000000E+00  0.1666667E+00  0.4000000E-01
    1       -1.839544   1.000000
    2        2.124559   1.000000
    3        4.368733   1.000000
    4        5.989390   0.000000
    5        8.145261   0.000000
    6        8.536528   0.000000
    7       11.659509   0.000000
    8       12.528788   0.000000
 
  0.4000000E+00  0.1000000E+00  0.1666667E+00  0.4000000E-01
    1       -0.180830   1.000000
    2        1.919934   1.000000
    3        3.769129   1.000000
    4        5.766253   0.000000
    5        7.590835   0.000000
    6        8.098990   0.000000
    7        9.625905   0.000000
    8       11.908732   0.000000
 
  0.2000000E+00  0.2000000E+00  0.1666667E+00  0.2000000E-01
    1       -2.048969   1.000000
    2        1.923030   1.000000
    3        5.645275   0.000000
    4        6.189579   0.000000
    5        6.360845   0.000000
    6        9.807427   0.000000
    7       10.273157   0.000000
    8       13.421684   0.000000
 
  0.3000000E+00  0.2000000E+00  0.1666667E+00  0.4000000E-01
    1       -0.588111   1.000000
    2        3.251119   1.000000
    3        3.649861   1.000000
    4        5.596759   0.000000
    5        6.947892   0.000000
    6        7.705701   0.000000
    7        9.461354   0.000000
    8       11.365806   0.000000
 
  0.4000000E+00  0.2000000E+00  0.1666667E+00  0.2000000E-01
    1        1.086328   1.000000
    2        1.481803   1.000000
    3        4.926721   1.000000
    4        5.348997   0.429024
    5        5.497343   0.000006
    6        8.662523   0.000000
    7        8.945389   0.000000
    8        9.940407   0.000000
 
  0.3000000E+00  0.3000000E+00  0.1666667E+00  0.2000000E-01
    1        1.052922   1.000000
    2        2.931387   1.000000
    3        3.368505   1.000000
    4        4.997536   1.000000
    5        6.850479   0.000000
    6        7.059800   0.000000
    7        9.025996   0.000000
    8       10.680448   0.000000
 
  0.0000000E+00  0.0000000E+00  0.3333333E+00  0.3333333E-02
    1       -4.079990   1.000000
    2       -2.056866   1.000000
    3        5.802228   0.000000
    4       11.390304   0.000000
    5       14.821139   0.000000
    6       14.821158   0.000000
    7       15.708871   0.000000
    8       15.708890   0.000000
 
  0.1000000E+00  0.0000000E+00  0.3333333E+00  0.2000000E-01
    1       -3.867233   1.000000
    2       -1.846490   1.000000
    3        5.998986   0.000000
    4       11.468082   0.000000
    5       12.395729   0.000000
    6       13.537084   0.000000
    7       14.097817   0.000000
    8       15.290263   0.000000
 
  0.2000000E+00  0.0000000E+00  0.3333333E+00  0.2000000E-01
    1       -3.230812   1.000000
    2       -1.217212   1.000000
    3        6.576814   0.000000
    4        9.033174   0.000000
    5       10.950900   0.000000
    6       12.097737   0.000000
    7       12.248719   0.000000
    8       14.018864   0.000000
 
  0.3000000E+00  0.0000000E+00  0.3333333E+00  0.2000000E-01
    1       -2.176026   1.000000
    2       -0.174696   1.000000
    3        6.047088   0.000000
    4        7.402082   0.000000
    5        8.228371   0.000000
    6       11.317646   0.000000
    7       12.432033   0.000000
    8       13.097320   0.000000
 
  0.4000000E+00  0.0000000E+00  0.3333333E+00  0.2000000E-01
    1       -0.713473   1.000000
    2        1.266801   1.000000
    3        3.446352   1.000000
    4        5.359649   0.315566
    5        9.022607   0.000000
    6       10.757714   0.000000
    7       12.163622   0.000000
    8       12.541574   0.000000
 
  0.5000000E+00  0.0000000E+00  0.3333333E+00  0.1000000E-01
    1        0.957500   1.000000
    2        1.361572   1.000000
    3        2.958025   1.000000
    4        3.325022   1.000000
    5       10.571048   0.000000
    6       10.574247   0.000000
    7       10.831867   0.000000
    8       12.072195   0.000000
 
  0.1000000E+00  0.1000000E+00  0.3333333E+00  0.2000000E-01
    1       -3.442648   1.000000
    2       -1.426627   1.000000
    3        6.387824   0.000000
    4       10.633435   0.000000
    5       10.764690   0.000000
    6       12.140823   0.000000
    7       12.548064   0.000000
    8       12.894873   0.000000
 
  0.2000000E+00  0.1000000E+00  0.3333333E+00  0.4000000E-01
    1       -2.596994   1.000000
    2       -0.590682   1.000000
    3        7.092990   0.000000
    4        7.707275   0.000000
    5        9.457532   0.000000
    6        9.773805   0.000000
    7       11.561437   0.000000
    8       12.848319   0.000000
 
  0.3000000E+00  0.1000000E+00  0.3333333E+00  0.4000000E-01
    1       -1.337681   1.000000
    2        0.652905   1.000000
    3        4.853989   1.000000
    4        6.713929   0.000000
    5        8.389760   0.000000
    6        8.926541   0.000000
    7       10.794255   0.000000
    8       13.576202   0.000000
 
  0.4000000E+00  0.1000000E+00  0.3333333E+00  0.4000000E-01
    1        0.316064   1.000000
    2        2.200362   1.000000
    3        2.519450   1.000000
    4        4.367579   1.000000
    5        8.433080   0.000000
    6        9.779779   0.000000
    7       10.537937   0.000000
    8       12.097850   0.000000
 
  0.2000000E+00  0.2000000E+00  0.3333333E+00  0.2000000E-01
    1       -1.546521   1.000000
    2        0.446926   1.000000
    3        6.477533   0.000000
    4        6.820407   0.000000
    5        7.907159   0.000000
    6        8.421109   0.000000
    7        9.196823   0.000000
    8       13.665982   0.000000
 
  0.3000000E+00  0.2000000E+00  0.3333333E+00  0.4000000E-01
    1       -0.090051   1.000000
    2        1.879656   1.000000
    3        4.046579   1.000000
    4        5.859830   0.000000
    5        6.188171   0.000000
    6        7.915265   0.000000
    7        9.807668   0.000000
    8       13.414798   0.000000
 
  0.4000000E+00  0.2000000E+00  0.3333333E+00  0.2000000E-01
    1        1.579899   1.000000
    2        1.962153   1.000000
    3        3.566804   1.000000
    4        3.926429   1.000000
    5        5.902101   0.000000
    6        7.752652   0.000000
    7       11.219609   0.000000
    8       11.745617   0.000000
 
  0.3000000E+00  0.3000000E+00  0.3333333E+00  0.2000000E-01
    1        1.544420   1.000000
    2        3.247182   1.000000
    3        3.726186   1.000000
    4        3.843160   1.000000
    5        5.434338   0.004762
    6        5.759148   0.000000
    7       11.242101   0.000000
    8       12.849430   0.000000
 
  0.0000000E+00  0.0000000E+00  0.5000000E+00  0.1666667E-02
    1       -3.234017   1.000000
    2       -3.234017   1.000000
    3        8.484931   0.000000
    4        8.484931   0.000000
    5       15.519678   0.000000
    6       15.519678   0.000000
    7       15.519698   0.000000
    8       15.519698   0.000000
 
  0.1000000E+00  0.0000000E+00  0.5000000E+00  0.1000000E-01
    1       -3.022259   1.000000
    2       -3.022259   1.000000
    3        8.668087   0.000000
    4        8.668087   0.000000
    5       13.065522   0.000000
    6       13.065522   0.000000
    7       14.270076   0.000000
    8       14.270076   0.000000
 
  0.2000000E+00  0.0000000E+00  0.5000000E+00  0.1000000E-01
    1       -2.388817   1.000000
    2       -2.388817   1.000000
    3        9.071769   0.000000
    4        9.071769   0.000000
    5       10.051758   0.000000
    6       10.051758   0.000000
    7       12.989146   0.000000
    8       12.989146   0.000000
 
  0.3000000E+00  0.0000000E+00  0.5000000E+00  0.1000000E-01
    1       -1.339021   1.000000
    2       -1.339021   1.000000
    3        6.837356   0.000000
    4        6.837356   0.000000
    5       10.268908   0.000000
    6       10.268908   0.000000
    7       12.060981   0.000000
    8       12.060981   0.000000
 
  0.4000000E+00  0.0000000E+00  0.5000000E+00  0.1000000E-01
    1        0.115944   1.000000
    2        0.115944   1.000000
    3        4.248947   1.000000
    4        4.248947   1.000000
    5       11.452141   0.000000
    6       11.452141   0.000000
    7       11.502273   0.000000
    8       11.502273   0.000000
 
  0.5000000E+00  0.0000000E+00  0.5000000E+00  0.5000000E-02
    1        1.752096   1.000000
    2        1.752096   1.000000
    3        2.229370   1.000000
    4        2.229370   1.000000
    5       11.315953   0.000000
    6       11.315953   0.000000
    7       12.333400   0.000000
    8       12.333400   0.000000
 
  0.1000000E+00  0.1000000E+00  0.5000000E+00  0.1000000E-01
    1       -2.599676   1.000000
    2       -2.599676   1.000000
    3        9.008840   0.000000
    4        9.008840   0.000000
    5       11.357513   0.000000
    6       11.357513   0.000000
    7       11.916679   0.000000
    8       11.916679   0.000000
 
  0.2000000E+00  0.1000000E+00  0.5000000E+00  0.2000000E-01
    1       -1.758015   1.000000
    2       -1.758015   1.000000
    3        8.358443   0.000000
    4        8.358443   0.000000
    5        9.733479   0.000000
    6        9.733479   0.000000
    7       10.743739   0.000000
    8       10.743739   0.000000
 
  0.3000000E+00  0.1000000E+00  0.5000000E+00  0.2000000E-01
    1       -0.504866   1.000000
    2       -0.504865   1.000000
    3        5.649864   0.000000
    4        5.649864   0.000000
    5        9.534693   0.000000
    6        9.534693   0.000000
    7       11.228388   0.000000
    8       11.228388   0.000000
 
  0.4000000E+00  0.1000000E+00  0.5000000E+00  0.2000000E-01
    1        1.138017   1.000000
    2        1.138017   1.000000
    3        3.245656   1.000000
    4        3.245656   1.000000
    5        9.199928   0.000000
    6        9.199928   0.000000
    7       12.571434   0.000000
    8       12.571434   0.000000
 
  0.2000000E+00  0.2000000E+00  0.5000000E+00  0.1000000E-01
    1       -0.712624   1.000000
    2       -0.712624   1.000000
    3        7.239638   0.000000
    4        7.239638   0.000000
    5        7.638554   0.000000
    6        7.638554   0.000000
    7       11.029147   0.000000
    8       11.029147   0.000000
 
  0.3000000E+00  0.2000000E+00  0.5000000E+00  0.2000000E-01
    1        0.735652   1.000000
    2        0.735652   1.000000
    3        4.840577   1.000000
    4        4.840577   1.000000
    5        6.887205   0.000000
    6        6.887205   0.000000
    7       12.287144   0.000000
    8       12.287144   0.000000
 
  0.4000000E+00  0.2000000E+00  0.5000000E+00  0.1000000E-01
    1        2.357766   1.000000
    2        2.357766   1.000000
    3        2.844755   1.000000
    4        2.844755   1.000000
    5        6.683869   0.000000
    6        6.683869   0.000000
    7       13.426358   0.000000
    8       13.426358   0.000000
 
  0.3000000E+00  0.3000000E+00  0.5000000E+00  0.1000000E-01
    1        2.351984   1.000000
    2        2.351984   1.000000
    3        4.257455   1.000000
    4        4.257455   1.000000
    5        4.700025   1.000000
    6        4.700025   1.000000
    7       13.566616   0.000000
    8       13.566616   0.000000
