 vasp.5.4.4.18Apr17-6-g9f103f2a35 (build Apr 28 2017 10:40:22) complex          
  
 executed on Intel-16.0.3.210-OMP date 2018.10.24  15:47:09
 running on    4 total cores
 distrk:  each k-point on    4 cores,    1 groups
 distr:  one band on NCORES_PER_BAND=   1 cores,    4 groups


--------------------------------------------------------------------------------------------------------


 INCAR:
 POTCAR:    PAW Al_GW 19Mar2012                   
 POTCAR:    PAW Al_GW 19Mar2012                   
   VRHFIN =Al: s2p1                                                             
   LEXCH  = PE                                                                  
   EATOM  =    53.5387 eV,    3.9350 Ry                                         
                                                                                
   TITEL  = PAW Al_GW 19Mar2012                                                 
   LULTRA =        F    use ultrasoft PP ?                                      
   IUNSCR =        1    unscreen: 0-lin 1-nonlin 2-no                           
   RPACOR =    1.500    partial core radius                                     
   POMASS =   26.982; ZVAL   =    3.000    mass and valenz                      
   RCORE  =    2.000    outmost cutoff radius                                   
   RWIGS  =    2.000; RWIGS  =    1.058    wigner-seitz radius (au A)           
   ENMAX  =  240.300; ENMIN  =  180.225 eV                                      
   ICORE  =        3    local potential                                         
   LCOR   =        T    correct aug charges                                     
   LPAW   =        T    paw PP                                                  
   EAUG   =  482.059                                                            
   DEXC   =    0.000                                                            
   RMAX   =    2.051    core radius for proj-oper                               
   RAUG   =    1.300    factor for augmentation sphere                          
   RDEP   =    2.096    radius for radial grids                                 
   RDEPT  =    1.856    core radius for aug-charge                              
                                                                                
   Atomic configuration                                                         
    7 entries                                                                   
     n  l   j            E        occ.                                          
     1  0  0.50     -1511.1048   2.0000                                         
     2  0  0.50      -108.1629   2.0000                                         
     2  1  1.50       -69.6402   6.0000                                         
     3  0  0.50        -7.7528   2.0000                                         
     3  1  1.50        -2.7121   1.0000                                         
     3  2  2.50        -2.7212   0.0000                                         
     4  3  2.50        -2.7212   0.0000                                         
   Description                                                                  
     l       E           TYP  RCUT    TYP  RCUT                                 
     0     -7.7528455     23  1.900                                             
     0     68.0291300     23  1.900                                             
     1     -2.7120682     23  1.900                                             
     1     68.0291300     23  1.900                                             
     2     -1.3605826     23  1.900                                             
     2     81.6349560     23  1.900                                             
     3     74.8320430     23  2.000                                             
  local pseudopotential read in
  partial core-charges read in
  partial kinetic energy density read in
  kinetic energy density of atom read in
  atomic valenz-charges read in
  non local Contribution for L=           0  read in
    real space projection operators read in
  non local Contribution for L=           0  read in
    real space projection operators read in
  non local Contribution for L=           1  read in
    real space projection operators read in
  non local Contribution for L=           1  read in
    real space projection operators read in
  non local Contribution for L=           2  read in
    real space projection operators read in
  non local Contribution for L=           2  read in
    real space projection operators read in
    PAW grid and wavefunctions read in
 
   number of l-projection  operators is LMAX  =           6
   number of lm-projection operators is LMMAX =          18
 

 ----------------------------------------------------------------------------- 
|                                                                             |
|  ADVICE TO THIS USER RUNNING 'VASP/VAMP'   (HEAR YOUR MASTER'S VOICE ...):  |
|                                                                             |
|      You have a (more or less) 'small supercell' and for smaller cells      |
|      it is recommended  to use the reciprocal-space projection scheme!      |
|      The real space optimization is not  efficient for small cells and it   |
|      is also less accurate ...                                              |
|      Therefore set LREAL=.FALSE. in the  INCAR file                         |
|                                                                             |
 ----------------------------------------------------------------------------- 

 Optimization of the real space projectors (new method)

 maximal supplied QI-value         = 18.90
 optimisation between [QCUT,QGAM] = [  8.69, 17.57] = [ 21.16, 86.49] Ry 
 Optimized for a Real-space Cutoff    1.59 Angstroem

   l    n(q)    QCUT    max X(q) W(low)/X(q) W(high)/X(q)  e(spline) 
   0      8     8.693    11.519    0.12E-03    0.31E-04    0.21E-06
   0      8     8.693     5.834    0.89E-04    0.32E-04    0.16E-06
   1      8     8.693    10.132    0.25E-03    0.39E-03    0.25E-06
   1      8     8.693     3.004    0.16E-03    0.27E-03    0.22E-06
   2      7     8.693     3.169    0.39E-03    0.93E-03    0.44E-06
   2      7     8.693     1.605    0.70E-04    0.91E-04    0.19E-06
  PAW Al_GW 19Mar2012                   :
 energy of atom  1       EATOM=  -53.5387
 kinetic energy error for atom=    0.0011 (will be added to EATOM!!)
 
 
 POSCAR: New structure                           
  positions in direct lattice
  No initial velocities read in
 exchange correlation table for  LEXCH =        8
   RHO(1)=    0.500       N(1)  =     2000
   RHO(2)=  100.500       N(2)  =     4000
 


--------------------------------------------------------------------------------------------------------


 ion  position               nearest neighbor table
   1  0.333  0.667  0.000-
   2  0.667  0.333  0.500-
 
  LATTYP: Found a hexagonal cell.
 ALAT       =     3.0377817386
 C/A-ratio  =     1.6173712069
  
  Lattice vectors:
  
 A1 = (   3.0377817386,   0.0000000000,   0.0000000000)
 A2 = (  -1.5188908693,   2.6307961568,   0.0000000000)
 A3 = (   0.0000000000,   0.0000000000,   4.9132207171)


Analysis of symmetry for initial positions (statically):
=====================================================================
 Subroutine PRICEL returns:
 Original cell was already a primitive cell.
 

 Routine SETGRP: Setting up the symmetry group for a 
 hexagonal supercell.


 Subroutine GETGRP returns: Found 24 space group operations
 (whereof 12 operations were pure point group operations)
 out of a pool of 24 trial point group operations.


The static configuration has the point symmetry D_3h.
 The point group associated with its full space group is D_6h.


Analysis of symmetry for dynamics (positions and initial velocities):
=====================================================================
 Subroutine PRICEL returns:
 Original cell was already a primitive cell.
 

 Routine SETGRP: Setting up the symmetry group for a 
 hexagonal supercell.


 Subroutine GETGRP returns: Found 24 space group operations
 (whereof 12 operations were pure point group operations)
 out of a pool of 24 trial point group operations.


The dynamic configuration has the point symmetry D_3h.
 The point group associated with its full space group is D_6h.


 Subroutine INISYM returns: Found 24 space group operations
 (whereof 12 operations are pure point group operations),
 and found     1 'primitive' translations

 
 
 KPOINTS: Automatic generation                    

Automatic generation of k-mesh.
Space group operators:
 irot       det(A)        alpha          n_x          n_y          n_z        tau_x        tau_y        tau_z
    1     1.000000     0.000000     1.000000     0.000000     0.000000     0.000000     0.000000     0.000000
    2    -1.000000    60.000000     0.000000     0.000000    -1.000000     0.000000     0.000000     0.000000
    3     1.000000   120.000000     0.000000     0.000000    -1.000000     0.000000     0.000000     0.000000
    4    -1.000000   180.000000     0.000000     0.000000     1.000000     0.000000     0.000000     0.000000
    5     1.000000   120.000000     0.000000     0.000000     1.000000     0.000000     0.000000     0.000000
    6    -1.000000    60.000000     0.000000     0.000000     1.000000     0.000000     0.000000     0.000000
    7    -1.000000   179.999999     1.000000    -0.000000     0.000000     0.000000     0.000000     0.000000
    8     1.000000   180.000000     0.866025    -0.500000     0.000000     0.000000     0.000000     0.000000
    9    -1.000000   180.000000     0.500000    -0.866025     0.000000     0.000000     0.000000     0.000000
   10     1.000000   180.000000     0.000000     1.000000     0.000000     0.000000     0.000000     0.000000
   11    -1.000000   180.000000    -0.500000    -0.866025     0.000000     0.000000     0.000000     0.000000
   12     1.000000   180.000000     0.866025     0.500000     0.000000     0.000000     0.000000     0.000000
   13    -1.000000     0.000000     1.000000     0.000000     0.000000     0.000000     0.000000     0.500000
   14     1.000000    60.000000     0.000000     0.000000    -1.000000     0.000000     0.000000     0.500000
   15    -1.000000   120.000000     0.000000     0.000000    -1.000000     0.000000     0.000000     0.500000
   16     1.000000   180.000000     0.000000     0.000000     1.000000     0.000000     0.000000     0.500000
   17    -1.000000   120.000000     0.000000     0.000000     1.000000     0.000000     0.000000     0.500000
   18     1.000000    60.000000     0.000000     0.000000     1.000000     0.000000     0.000000     0.500000
   19     1.000000   179.999999     1.000000    -0.000000     0.000000     0.000000     0.000000     0.500000
   20    -1.000000   180.000000     0.866025    -0.500000     0.000000     0.000000     0.000000     0.500000
   21     1.000000   180.000000     0.500000    -0.866025     0.000000     0.000000     0.000000     0.500000
   22    -1.000000   180.000000     0.000000     1.000000     0.000000     0.000000     0.000000     0.500000
   23     1.000000   180.000000    -0.500000    -0.866025     0.000000     0.000000     0.000000     0.500000
   24    -1.000000   180.000000     0.866025     0.500000     0.000000     0.000000     0.000000     0.500000
 
 Subroutine IBZKPT returns following result:
 ===========================================
 
 Found     56 irreducible k-points:
 
 Following reciprocal coordinates:
            Coordinates               Weight
  0.000000  0.000000  0.000000      1.000000
  0.100000  0.000000  0.000000      6.000000
  0.200000  0.000000  0.000000      6.000000
  0.300000  0.000000  0.000000      6.000000
  0.400000  0.000000  0.000000      6.000000
  0.500000  0.000000  0.000000      3.000000
  0.100000  0.100000  0.000000      6.000000
  0.200000  0.100000  0.000000     12.000000
  0.300000  0.100000  0.000000     12.000000
  0.400000  0.100000  0.000000     12.000000
  0.200000  0.200000  0.000000      6.000000
  0.300000  0.200000  0.000000     12.000000
  0.400000  0.200000  0.000000      6.000000
  0.300000  0.300000  0.000000      6.000000
  0.000000  0.000000  0.166667      2.000000
  0.100000  0.000000  0.166667     12.000000
  0.200000  0.000000  0.166667     12.000000
  0.300000  0.000000  0.166667     12.000000
  0.400000  0.000000  0.166667     12.000000
  0.500000  0.000000  0.166667      6.000000
  0.100000  0.100000  0.166667     12.000000
  0.200000  0.100000  0.166667     24.000000
  0.300000  0.100000  0.166667     24.000000
  0.400000  0.100000  0.166667     24.000000
  0.200000  0.200000  0.166667     12.000000
  0.300000  0.200000  0.166667     24.000000
  0.400000  0.200000  0.166667     12.000000
  0.300000  0.300000  0.166667     12.000000
  0.000000  0.000000  0.333333      2.000000
  0.100000  0.000000  0.333333     12.000000
  0.200000  0.000000  0.333333     12.000000
  0.300000  0.000000  0.333333     12.000000
  0.400000  0.000000  0.333333     12.000000
  0.500000  0.000000  0.333333      6.000000
  0.100000  0.100000  0.333333     12.000000
  0.200000  0.100000  0.333333     24.000000
  0.300000  0.100000  0.333333     24.000000
  0.400000  0.100000  0.333333     24.000000
  0.200000  0.200000  0.333333     12.000000
  0.300000  0.200000  0.333333     24.000000
  0.400000  0.200000  0.333333     12.000000
  0.300000  0.300000  0.333333     12.000000
  0.000000  0.000000  0.500000      1.000000
  0.100000  0.000000  0.500000      6.000000
  0.200000  0.000000  0.500000      6.000000
  0.300000  0.000000  0.500000      6.000000
  0.400000  0.000000  0.500000      6.000000
  0.500000  0.000000  0.500000      3.000000
  0.100000  0.100000  0.500000      6.000000
  0.200000  0.100000  0.500000     12.000000
  0.300000  0.100000  0.500000     12.000000
  0.400000  0.100000  0.500000     12.000000
  0.200000  0.200000  0.500000      6.000000
  0.300000  0.200000  0.500000     12.000000
  0.400000  0.200000  0.500000      6.000000
  0.300000  0.300000  0.500000      6.000000
 
 Following cartesian coordinates:
            Coordinates               Weight
  0.000000  0.000000  0.000000      1.000000
  0.032919  0.019006  0.000000      6.000000
  0.065838  0.038011  0.000000      6.000000
  0.098756  0.057017  0.000000      6.000000
  0.131675  0.076023  0.000000      6.000000
  0.164594  0.095028  0.000000      3.000000
  0.032919  0.057017  0.000000      6.000000
  0.065838  0.076023  0.000000     12.000000
  0.098756  0.095028  0.000000     12.000000
  0.131675  0.114034  0.000000     12.000000
  0.065838  0.114034  0.000000      6.000000
  0.098756  0.133040  0.000000     12.000000
  0.131675  0.152045  0.000000      6.000000
  0.098756  0.171051  0.000000      6.000000
  0.000000  0.000000  0.033922      2.000000
  0.032919  0.019006  0.033922     12.000000
  0.065838  0.038011  0.033922     12.000000
  0.098756  0.057017  0.033922     12.000000
  0.131675  0.076023  0.033922     12.000000
  0.164594  0.095028  0.033922      6.000000
  0.032919  0.057017  0.033922     12.000000
  0.065838  0.076023  0.033922     24.000000
  0.098756  0.095028  0.033922     24.000000
  0.131675  0.114034  0.033922     24.000000
  0.065838  0.114034  0.033922     12.000000
  0.098756  0.133040  0.033922     24.000000
  0.131675  0.152045  0.033922     12.000000
  0.098756  0.171051  0.033922     12.000000
  0.000000  0.000000  0.067844      2.000000
  0.032919  0.019006  0.067844     12.000000
  0.065838  0.038011  0.067844     12.000000
  0.098756  0.057017  0.067844     12.000000
  0.131675  0.076023  0.067844     12.000000
  0.164594  0.095028  0.067844      6.000000
  0.032919  0.057017  0.067844     12.000000
  0.065838  0.076023  0.067844     24.000000
  0.098756  0.095028  0.067844     24.000000
  0.131675  0.114034  0.067844     24.000000
  0.065838  0.114034  0.067844     12.000000
  0.098756  0.133040  0.067844     24.000000
  0.131675  0.152045  0.067844     12.000000
  0.098756  0.171051  0.067844     12.000000
  0.000000  0.000000  0.101766      1.000000
  0.032919  0.019006  0.101766      6.000000
  0.065838  0.038011  0.101766      6.000000
  0.098756  0.057017  0.101766      6.000000
  0.131675  0.076023  0.101766      6.000000
  0.164594  0.095028  0.101766      3.000000
  0.032919  0.057017  0.101766      6.000000
  0.065838  0.076023  0.101766     12.000000
  0.098756  0.095028  0.101766     12.000000
  0.131675  0.114034  0.101766     12.000000
  0.065838  0.114034  0.101766      6.000000
  0.098756  0.133040  0.101766     12.000000
  0.131675  0.152045  0.101766      6.000000
  0.098756  0.171051  0.101766      6.000000
 


--------------------------------------------------------------------------------------------------------




 Dimension of arrays:
   k-points           NKPTS =     56   k-points in BZ     NKDIM =     56   number of bands    NBANDS=      8
   number of dos      NEDOS =    301   number of ions     NIONS =      2
   non local maximal  LDIM  =      6   non local SUM 2l+1 LMDIM =     18
   total plane-waves  NPLWV =   4704
   max r-space proj   IRMAX =   2082   max aug-charges    IRDMAX=   4862
   dimension x,y,z NGX =    14 NGY =   14 NGZ =   24
   dimension x,y,z NGXF=    28 NGYF=   28 NGZF=   48
   support grid    NGXF=    28 NGYF=   28 NGZF=   48
   ions per type =               2
   NGX,Y,Z   is equivalent  to a cutoff of   7.66,  7.66,  8.12 a.u.
   NGXF,Y,Z  is equivalent  to a cutoff of  15.32, 15.32, 16.24 a.u.

 SYSTEM =  NiAl                                    
 POSCAR =  New structure                           

 Startparameter for this run:
   NWRITE =      2    write-flag & timer
   PREC   = normal    normal or accurate (medium, high low for compatibility)
   ISTART =      0    job   : 0-new  1-cont  2-samecut
   ICHARG =      2    charge: 1-file 2-atom 10-const
   ISPIN  =      1    spin polarized calculation?
   LNONCOLLINEAR =      F non collinear calculations
   LSORBIT =      F    spin-orbit coupling
   INIWAV =      1    electr: 0-lowe 1-rand  2-diag
   LASPH  =      F    aspherical Exc in radial PAW
   METAGGA=      F    non-selfconsistent MetaGGA calc.

 Electronic Relaxation 1
   ENCUT  =  300.0 eV  22.05 Ry    4.70 a.u.   4.29  4.29  6.94*2*pi/ulx,y,z
   ENINI  =  300.0     initial cutoff
   ENAUG  =  482.1 eV  augmentation charge cutoff
   NELM   =     60;   NELMIN=  6; NELMDL= -5     # of ELM steps 
   EDIFF  = 0.5E-05   stopping-criterion for ELM
   LREAL  =      T    real-space projection
   NLSPLINE    = F    spline interpolate recip. space projectors
   LCOMPAT=      F    compatible to vasp.4.4
   GGA_COMPAT  = T    GGA compatible to vasp.4.4-vasp.4.6
   LMAXPAW     = -100 max onsite density
   LMAXMIX     =    2 max onsite mixed and CHGCAR
   VOSKOWN=      0    Vosko Wilk Nusair interpolation
   ROPT   =   -0.00050
 Ionic relaxation
   EDIFFG = 0.5E-04   stopping-criterion for IOM
   NSW    =      0    number of steps for IOM
   NBLOCK =      1;   KBLOCK =      1    inner block; outer block 
   IBRION =     -1    ionic relax: 0-MD 1-quasi-New 2-CG
   NFREE  =      1    steps in history (QN), initial steepest desc. (CG)
   ISIF   =      6    stress and relaxation
   IWAVPR =     10    prediction:  0-non 1-charg 2-wave 3-comb
   ISYM   =      2    0-nonsym 1-usesym 2-fastsym
   LCORR  =      T    Harris-Foulkes like correction to forces

   POTIM  = 0.2000    time-step for ionic-motion
   TEIN   =    0.0    initial temperature
   TEBEG  =    0.0;   TEEND  =   0.0 temperature during run
   SMASS  =  -3.00    Nose mass-parameter (am)
   estimated Nose-frequenzy (Omega)   =  0.10E-29 period in steps =****** mass=  -0.211E-27a.u.
   SCALEE = 1.0000    scale energy and forces
   NPACO  =    256;   APACO  = 16.0  distance and # of slots for P.C.
   PSTRESS=    0.0 pullay stress

  Mass of Ions in am
   POMASS =  26.98
  Ionic Valenz
   ZVAL   =   3.00
  Atomic Wigner-Seitz radii
   RWIGS  =  -1.00
  virtual crystal weights 
   VCA    =   1.00
   NELECT =       6.0000    total number of electrons
   NUPDOWN=      -1.0000    fix difference up-down

 DOS related values:
   EMIN   =  10.00;   EMAX   =-10.00  energy-range for DOS
   EFERMI =   0.00
   ISMEAR =     0;   SIGMA  =   0.05  broadening in eV -4-tet -1-fermi 0-gaus

 Electronic relaxation 2 (details)
   IALGO  =     38    algorithm
   LDIAG  =      T    sub-space diagonalisation (order eigenvalues)
   LSUBROT=      F    optimize rotation matrix (better conditioning)
   TURBO    =      0    0=normal 1=particle mesh
   IRESTART =      0    0=no restart 2=restart with 2 vectors
   NREBOOT  =      0    no. of reboots
   NMIN     =      0    reboot dimension
   EREF     =   0.00    reference energy to select bands
   IMIX   =      4    mixing-type and parameters
     AMIX     =   0.40;   BMIX     =  1.00
     AMIX_MAG =   1.60;   BMIX_MAG =  1.00
     AMIN     =   0.10
     WC   =   100.;   INIMIX=   1;  MIXPRE=   1;  MAXMIX= -45

 Intra band minimization:
   WEIMIN = 0.0000     energy-eigenvalue tresh-hold
   EBREAK =  0.16E-06  absolut break condition
   DEPER  =   0.30     relativ break condition  

   TIME   =   0.40     timestep for ELM

  volume/ion in A,a.u.               =      19.63       132.49
  Fermi-wavevector in a.u.,A,eV,Ry     =   0.875229  1.653944 10.422423  0.766027
  Thomas-Fermi vector in A             =   1.994871
 
 Write flags
   LWAVE        =      F    write WAVECAR
   LDOWNSAMPLE  =      F    k-point downsampling of WAVECAR
   LCHARG       =      F    write CHGCAR
   LVTOT        =      F    write LOCPOT, total local potential
   LVHAR        =      F    write LOCPOT, Hartree potential only
   LELF         =      F    write electronic localiz. function (ELF)
   LORBIT       =      0    0 simple, 1 ext, 2 COOP (PROOUT), +10 PAW based schemes


 Dipole corrections
   LMONO  =      F    monopole corrections only (constant potential shift)
   LDIPOL =      F    correct potential (dipole corrections)
   IDIPOL =      0    1-x, 2-y, 3-z, 4-all directions 
   EPSILON=  1.0000000 bulk dielectric constant

 Exchange correlation treatment:
   GGA     =    --    GGA type
   LEXCH   =     8    internal setting for exchange type
   VOSKOWN=      0    Vosko Wilk Nusair interpolation
   LHFCALC =     F    Hartree Fock is set to
   LHFONE  =     F    Hartree Fock one center treatment
   AEXX    =    0.0000 exact exchange contribution

 Linear response parameters
   LEPSILON=     F    determine dielectric tensor
   LRPA    =     F    only Hartree local field effects (RPA)
   LNABLA  =     F    use nabla operator in PAW spheres
   LVEL    =     F    velocity operator in full k-point grid
   LINTERFAST=   F  fast interpolation
   KINTER  =     0    interpolate to denser k-point grid
   CSHIFT  =0.1000    complex shift for real part using Kramers Kronig
   OMEGAMAX=  -1.0    maximum frequency
   DEG_THRESHOLD= 0.2000000E-02 threshold for treating states as degnerate
   RTIME   =   -0.100 relaxation time in fs
  (WPLASMAI=    0.000 imaginary part of plasma frequency in eV, 0.658/RTIME)
   DFIELD  = 0.0000000 0.0000000 0.0000000 field for delta impulse in time
 
 Orbital magnetization related:
   ORBITALMAG=     F  switch on orbital magnetization
   LCHIMAG   =     F  perturbation theory with respect to B field
   DQ        =  0.001000  dq finite difference perturbation B field
   LLRAUG    =     F  two centre corrections for induced B field



--------------------------------------------------------------------------------------------------------


 Static calculation
 charge density and potential will be updated during run
 non-spin polarized calculation
 Variant of blocked Davidson
 Davidson routine will perform the subspace rotation
 perform sub-space diagonalisation
    after iterative eigenvector-optimisation
 modified Broyden-mixing scheme, WC =      100.0
 initial mixing is a Kerker type mixing with AMIX =  0.4000 and BMIX =      1.0000
 Hartree-type preconditioning will be used
 using additional bands            5
 real space projection scheme for non local part
 use partial core corrections
 calculate Harris-corrections to forces 
   (improved forces if not selfconsistent)
 use gradient corrections 
 use of overlap-Matrix (Vanderbilt PP)
 Gauss-broadening in eV      SIGMA  =   0.05


--------------------------------------------------------------------------------------------------------


  energy-cutoff  :      300.00
  volume of cell :       39.27
      direct lattice vectors                 reciprocal lattice vectors
     3.037781739  0.000000000  0.000000000     0.329187574  0.190056534  0.000000000
    -1.518890869  2.630796157  0.000000000     0.000000000  0.380113069  0.000000000
     0.000000000  0.000000000  4.913220717     0.000000000  0.000000000  0.203532481

  length of vectors
     3.037781739  3.037781739  4.913220717     0.380113069  0.380113069  0.203532481


 
 k-points in units of 2pi/SCALE and weight: Automatic generation                    
   0.00000000  0.00000000  0.00000000       0.002
   0.03291876  0.01900565  0.00000000       0.010
   0.06583751  0.03801131  0.00000000       0.010
   0.09875627  0.05701696  0.00000000       0.010
   0.13167503  0.07602261  0.00000000       0.010
   0.16459379  0.09502827  0.00000000       0.005
   0.03291876  0.05701696  0.00000000       0.010
   0.06583751  0.07602261  0.00000000       0.020
   0.09875627  0.09502827  0.00000000       0.020
   0.13167503  0.11403392  0.00000000       0.020
   0.06583751  0.11403392  0.00000000       0.010
   0.09875627  0.13303957  0.00000000       0.020
   0.13167503  0.15204523  0.00000000       0.010
   0.09875627  0.17105088  0.00000000       0.010
   0.00000000  0.00000000  0.03392208       0.003
   0.03291876  0.01900565  0.03392208       0.020
   0.06583751  0.03801131  0.03392208       0.020
   0.09875627  0.05701696  0.03392208       0.020
   0.13167503  0.07602261  0.03392208       0.020
   0.16459379  0.09502827  0.03392208       0.010
   0.03291876  0.05701696  0.03392208       0.020
   0.06583751  0.07602261  0.03392208       0.040
   0.09875627  0.09502827  0.03392208       0.040
   0.13167503  0.11403392  0.03392208       0.040
   0.06583751  0.11403392  0.03392208       0.020
   0.09875627  0.13303957  0.03392208       0.040
   0.13167503  0.15204523  0.03392208       0.020
   0.09875627  0.17105088  0.03392208       0.020
   0.00000000  0.00000000  0.06784416       0.003
   0.03291876  0.01900565  0.06784416       0.020
   0.06583751  0.03801131  0.06784416       0.020
   0.09875627  0.05701696  0.06784416       0.020
   0.13167503  0.07602261  0.06784416       0.020
   0.16459379  0.09502827  0.06784416       0.010
   0.03291876  0.05701696  0.06784416       0.020
   0.06583751  0.07602261  0.06784416       0.040
   0.09875627  0.09502827  0.06784416       0.040
   0.13167503  0.11403392  0.06784416       0.040
   0.06583751  0.11403392  0.06784416       0.020
   0.09875627  0.13303957  0.06784416       0.040
   0.13167503  0.15204523  0.06784416       0.020
   0.09875627  0.17105088  0.06784416       0.020
   0.00000000  0.00000000  0.10176624       0.002
   0.03291876  0.01900565  0.10176624       0.010
   0.06583751  0.03801131  0.10176624       0.010
   0.09875627  0.05701696  0.10176624       0.010
   0.13167503  0.07602261  0.10176624       0.010
   0.16459379  0.09502827  0.10176624       0.005
   0.03291876  0.05701696  0.10176624       0.010
   0.06583751  0.07602261  0.10176624       0.020
   0.09875627  0.09502827  0.10176624       0.020
   0.13167503  0.11403392  0.10176624       0.020
   0.06583751  0.11403392  0.10176624       0.010
   0.09875627  0.13303957  0.10176624       0.020
   0.13167503  0.15204523  0.10176624       0.010
   0.09875627  0.17105088  0.10176624       0.010
 
 k-points in reciprocal lattice and weights: Automatic generation                    
   0.00000000  0.00000000  0.00000000       0.002
   0.10000000  0.00000000  0.00000000       0.010
   0.20000000  0.00000000  0.00000000       0.010
   0.30000000  0.00000000  0.00000000       0.010
   0.40000000  0.00000000  0.00000000       0.010
   0.50000000  0.00000000  0.00000000       0.005
   0.10000000  0.10000000  0.00000000       0.010
   0.20000000  0.10000000  0.00000000       0.020
   0.30000000  0.10000000  0.00000000       0.020
   0.40000000  0.10000000  0.00000000       0.020
   0.20000000  0.20000000  0.00000000       0.010
   0.30000000  0.20000000  0.00000000       0.020
   0.40000000  0.20000000  0.00000000       0.010
   0.30000000  0.30000000  0.00000000       0.010
   0.00000000  0.00000000  0.16666667       0.003
   0.10000000  0.00000000  0.16666667       0.020
   0.20000000  0.00000000  0.16666667       0.020
   0.30000000  0.00000000  0.16666667       0.020
   0.40000000  0.00000000  0.16666667       0.020
   0.50000000  0.00000000  0.16666667       0.010
   0.10000000  0.10000000  0.16666667       0.020
   0.20000000  0.10000000  0.16666667       0.040
   0.30000000  0.10000000  0.16666667       0.040
   0.40000000  0.10000000  0.16666667       0.040
   0.20000000  0.20000000  0.16666667       0.020
   0.30000000  0.20000000  0.16666667       0.040
   0.40000000  0.20000000  0.16666667       0.020
   0.30000000  0.30000000  0.16666667       0.020
   0.00000000  0.00000000  0.33333333       0.003
   0.10000000  0.00000000  0.33333333       0.020
   0.20000000  0.00000000  0.33333333       0.020
   0.30000000  0.00000000  0.33333333       0.020
   0.40000000  0.00000000  0.33333333       0.020
   0.50000000  0.00000000  0.33333333       0.010
   0.10000000  0.10000000  0.33333333       0.020
   0.20000000  0.10000000  0.33333333       0.040
   0.30000000  0.10000000  0.33333333       0.040
   0.40000000  0.10000000  0.33333333       0.040
   0.20000000  0.20000000  0.33333333       0.020
   0.30000000  0.20000000  0.33333333       0.040
   0.40000000  0.20000000  0.33333333       0.020
   0.30000000  0.30000000  0.33333333       0.020
   0.00000000  0.00000000  0.50000000       0.002
   0.10000000  0.00000000  0.50000000       0.010
   0.20000000  0.00000000  0.50000000       0.010
   0.30000000  0.00000000  0.50000000       0.010
   0.40000000  0.00000000  0.50000000       0.010
   0.50000000  0.00000000  0.50000000       0.005
   0.10000000  0.10000000  0.50000000       0.010
   0.20000000  0.10000000  0.50000000       0.020
   0.30000000  0.10000000  0.50000000       0.020
   0.40000000  0.10000000  0.50000000       0.020
   0.20000000  0.20000000  0.50000000       0.010
   0.30000000  0.20000000  0.50000000       0.020
   0.40000000  0.20000000  0.50000000       0.010
   0.30000000  0.30000000  0.50000000       0.010
 
 position of ions in fractional coordinates (direct lattice) 
   0.33333333  0.66666667  0.00000000
   0.66666667  0.33333333  0.50000000
 
 position of ions in cartesian coordinates  (Angst):
   0.00000000  1.75386410  0.00000000
   1.51889087  0.87693205  2.45661036
 


--------------------------------------------------------------------------------------------------------


 k-point  1 :   0.0000 0.0000 0.0000  plane waves:     463
 k-point  2 :   0.1000 0.0000 0.0000  plane waves:     469
 k-point  3 :   0.2000 0.0000 0.0000  plane waves:     463
 k-point  4 :   0.3000 0.0000 0.0000  plane waves:     458
 k-point  5 :   0.4000 0.0000 0.0000  plane waves:     464
 k-point  6 :   0.5000 0.0000 0.0000  plane waves:     460
 k-point  7 :   0.1000 0.1000 0.0000  plane waves:     465
 k-point  8 :   0.2000 0.1000 0.0000  plane waves:     459
 k-point  9 :   0.3000 0.1000 0.0000  plane waves:     461
 k-point 10 :   0.4000 0.1000 0.0000  plane waves:     459
 k-point 11 :   0.2000 0.2000 0.0000  plane waves:     468
 k-point 12 :   0.3000 0.2000 0.0000  plane waves:     460
 k-point 13 :   0.4000 0.2000 0.0000  plane waves:     464
 k-point 14 :   0.3000 0.3000 0.0000  plane waves:     462
 k-point 15 :   0.0000 0.0000 0.1667  plane waves:     470
 k-point 16 :   0.1000 0.0000 0.1667  plane waves:     467
 k-point 17 :   0.2000 0.0000 0.1667  plane waves:     461
 k-point 18 :   0.3000 0.0000 0.1667  plane waves:     459
 k-point 19 :   0.4000 0.0000 0.1667  plane waves:     461
 k-point 20 :   0.5000 0.0000 0.1667  plane waves:     462
 k-point 21 :   0.1000 0.1000 0.1667  plane waves:     465
 k-point 22 :   0.2000 0.1000 0.1667  plane waves:     463
 k-point 23 :   0.3000 0.1000 0.1667  plane waves:     462
 k-point 24 :   0.4000 0.1000 0.1667  plane waves:     459
 k-point 25 :   0.2000 0.2000 0.1667  plane waves:     463
 k-point 26 :   0.3000 0.2000 0.1667  plane waves:     467
 k-point 27 :   0.4000 0.2000 0.1667  plane waves:     466
 k-point 28 :   0.3000 0.3000 0.1667  plane waves:     463
 k-point 29 :   0.0000 0.0000 0.3333  plane waves:     488
 k-point 30 :   0.1000 0.0000 0.3333  plane waves:     474
 k-point 31 :   0.2000 0.0000 0.3333  plane waves:     464
 k-point 32 :   0.3000 0.0000 0.3333  plane waves:     461
 k-point 33 :   0.4000 0.0000 0.3333  plane waves:     465
 k-point 34 :   0.5000 0.0000 0.3333  plane waves:     458
 k-point 35 :   0.1000 0.1000 0.3333  plane waves:     465
 k-point 36 :   0.2000 0.1000 0.3333  plane waves:     460
 k-point 37 :   0.3000 0.1000 0.3333  plane waves:     463
 k-point 38 :   0.4000 0.1000 0.3333  plane waves:     467
 k-point 39 :   0.2000 0.2000 0.3333  plane waves:     459
 k-point 40 :   0.3000 0.2000 0.3333  plane waves:     463
 k-point 41 :   0.4000 0.2000 0.3333  plane waves:     464
 k-point 42 :   0.3000 0.3000 0.3333  plane waves:     462
 k-point 43 :   0.0000 0.0000 0.5000  plane waves:     494
 k-point 44 :   0.1000 0.0000 0.5000  plane waves:     478
 k-point 45 :   0.2000 0.0000 0.5000  plane waves:     464
 k-point 46 :   0.3000 0.0000 0.5000  plane waves:     462
 k-point 47 :   0.4000 0.0000 0.5000  plane waves:     458
 k-point 48 :   0.5000 0.0000 0.5000  plane waves:     456
 k-point 49 :   0.1000 0.1000 0.5000  plane waves:     470
 k-point 50 :   0.2000 0.1000 0.5000  plane waves:     466
 k-point 51 :   0.3000 0.1000 0.5000  plane waves:     460
 k-point 52 :   0.4000 0.1000 0.5000  plane waves:     468
 k-point 53 :   0.2000 0.2000 0.5000  plane waves:     458
 k-point 54 :   0.3000 0.2000 0.5000  plane waves:     464
 k-point 55 :   0.4000 0.2000 0.5000  plane waves:     472
 k-point 56 :   0.3000 0.3000 0.5000  plane waves:     460

 maximum and minimum number of plane-waves per node :       494      456

 maximum number of plane-waves:       494
 maximum index in each direction: 
   IXMAX=    4   IYMAX=    4   IZMAX=    6
   IXMIN=   -4   IYMIN=   -4   IZMIN=   -7


 serial   3D FFT for wavefunctions
 parallel 3D FFT for charge:
    minimum data exchange during FFTs selected (reduces bandwidth)


 total amount of memory used by VASP MPI-rank0    32681. kBytes
=======================================================================

   base      :      30000. kBytes
   nonlr-proj:        696. kBytes
   fftplans  :        346. kBytes
   grid      :        655. kBytes
   one-center:         31. kBytes
   wavefun   :        953. kBytes
 
     INWAV:  cpu time    0.0000: real time    0.0000
 Broyden mixing: mesh for mixing (old mesh)
   NGX =  9   NGY =  9   NGZ = 13
  (NGX  = 28   NGY  = 28   NGZ  = 48)
  gives a total of   1053 points

 initial charge density was supplied:
 charge density of overlapping atoms calculated
 number of electron       6.0000000 magnetization 
 keeping initial charge density in first step


--------------------------------------------------------------------------------------------------------


 Maximum index for non-local projection operator         1980
 Maximum index for augmentation-charges         1138 (set IRDMAX)


--------------------------------------------------------------------------------------------------------


 First call to EWALD:  gamma=   0.521
 Maximum number of real-space cells 3x 3x 2
 Maximum number of reciprocal cells 3x 3x 4

    FEWALD:  cpu time    0.0016: real time    0.0016


--------------------------------------- Iteration      1(   1)  ---------------------------------------


    POTLOK:  cpu time    0.0086: real time    0.0094
    SETDIJ:  cpu time    0.0031: real time    0.0031
     EDDAV:  cpu time    0.2046: real time    0.2418
       DOS:  cpu time    0.0006: real time    0.0006
    --------------------------------------------
      LOOP:  cpu time    0.2169: real time    0.2550

 eigenvalue-minimisations  :   896
 total energy-change (2. order) :-0.3644863E+01  (-0.1633215E+03)
 number of electron       6.0000000 magnetization 
 augmentation part        6.0000000 magnetization 

 Free energy of the ion-electron system (eV)
  ---------------------------------------------------
  alpha Z        PSCENC =         6.08193270
  Ewald energy   TEWEN  =      -138.74590742
  -Hartree energ DENC   =        -0.40738258
  -exchange      EXHF   =         0.00000000
  -V(xc)+E(xc)   XCENC  =       -53.08261686
  PAW double counting   =       132.40031435      -68.49124152
  entropy T*S    EENTRO =        -0.00072726
  eigenvalues    EBANDS =        11.52551806
  atomic energy  EATOM  =       107.07524800
  Solvation  Ediel_sol  =         0.00000000
  ---------------------------------------------------
  free energy    TOTEN  =        -3.64486253 eV

  energy without entropy =       -3.64413527  energy(sigma->0) =       -3.64449890


--------------------------------------------------------------------------------------------------------




--------------------------------------- Iteration      1(   2)  ---------------------------------------


     EDDAV:  cpu time    0.2753: real time    0.2755
       DOS:  cpu time    0.0007: real time    0.0007
    --------------------------------------------
      LOOP:  cpu time    0.2760: real time    0.2762

 eigenvalue-minimisations  :  1336
 total energy-change (2. order) :-0.3635056E+01  (-0.3391142E+01)
 number of electron       6.0000000 magnetization 
 augmentation part        6.0000000 magnetization 

 Free energy of the ion-electron system (eV)
  ---------------------------------------------------
  alpha Z        PSCENC =         6.08193270
  Ewald energy   TEWEN  =      -138.74590742
  -Hartree energ DENC   =        -0.40738258
  -exchange      EXHF   =         0.00000000
  -V(xc)+E(xc)   XCENC  =       -53.08261686
  PAW double counting   =       132.40031435      -68.49124152
  entropy T*S    EENTRO =        -0.00099874
  eigenvalues    EBANDS =         7.89073335
  atomic energy  EATOM  =       107.07524800
  Solvation  Ediel_sol  =         0.00000000
  ---------------------------------------------------
  free energy    TOTEN  =        -7.27991871 eV

  energy without entropy =       -7.27891997  energy(sigma->0) =       -7.27941934


--------------------------------------------------------------------------------------------------------




--------------------------------------- Iteration      1(   3)  ---------------------------------------


     EDDAV:  cpu time    0.2494: real time    0.2497
       DOS:  cpu time    0.0006: real time    0.0007
    --------------------------------------------
      LOOP:  cpu time    0.2501: real time    0.2503

 eigenvalue-minimisations  :  1168
 total energy-change (2. order) :-0.2192397E-01  (-0.2189603E-01)
 number of electron       6.0000000 magnetization 
 augmentation part        6.0000000 magnetization 

 Free energy of the ion-electron system (eV)
  ---------------------------------------------------
  alpha Z        PSCENC =         6.08193270
  Ewald energy   TEWEN  =      -138.74590742
  -Hartree energ DENC   =        -0.40738258
  -exchange      EXHF   =         0.00000000
  -V(xc)+E(xc)   XCENC  =       -53.08261686
  PAW double counting   =       132.40031435      -68.49124152
  entropy T*S    EENTRO =        -0.00106701
  eigenvalues    EBANDS =         7.86887765
  atomic energy  EATOM  =       107.07524800
  Solvation  Ediel_sol  =         0.00000000
  ---------------------------------------------------
  free energy    TOTEN  =        -7.30184268 eV

  energy without entropy =       -7.30077567  energy(sigma->0) =       -7.30130917


--------------------------------------------------------------------------------------------------------




--------------------------------------- Iteration      1(   4)  ---------------------------------------


     EDDAV:  cpu time    0.2904: real time    0.2908
       DOS:  cpu time    0.0006: real time    0.0006
    --------------------------------------------
      LOOP:  cpu time    0.2909: real time    0.2914

 eigenvalue-minimisations  :  1408
 total energy-change (2. order) :-0.1368169E-03  (-0.1368066E-03)
 number of electron       6.0000000 magnetization 
 augmentation part        6.0000000 magnetization 

 Free energy of the ion-electron system (eV)
  ---------------------------------------------------
  alpha Z        PSCENC =         6.08193270
  Ewald energy   TEWEN  =      -138.74590742
  -Hartree energ DENC   =        -0.40738258
  -exchange      EXHF   =         0.00000000
  -V(xc)+E(xc)   XCENC  =       -53.08261686
  PAW double counting   =       132.40031435      -68.49124152
  entropy T*S    EENTRO =        -0.00106774
  eigenvalues    EBANDS =         7.86874157
  atomic energy  EATOM  =       107.07524800
  Solvation  Ediel_sol  =         0.00000000
  ---------------------------------------------------
  free energy    TOTEN  =        -7.30197949 eV

  energy without entropy =       -7.30091175  energy(sigma->0) =       -7.30144562


--------------------------------------------------------------------------------------------------------




--------------------------------------- Iteration      1(   5)  ---------------------------------------


     EDDAV:  cpu time    0.2468: real time    0.2471
       DOS:  cpu time    0.0007: real time    0.0007
    CHARGE:  cpu time    0.0072: real time    0.0072
    MIXING:  cpu time    0.0005: real time    0.0005
    --------------------------------------------
      LOOP:  cpu time    0.2552: real time    0.2555

 eigenvalue-minimisations  :  1176
 total energy-change (2. order) :-0.6497103E-07  (-0.6494327E-07)
 number of electron       6.0000000 magnetization 
 augmentation part       -0.0869408 magnetization 

 Broyden mixing:
  rms(total) = 0.12124E+00    rms(broyden)= 0.12124E+00
  rms(prec ) = 0.25843E+00
  weight for this iteration     100.00

 Free energy of the ion-electron system (eV)
  ---------------------------------------------------
  alpha Z        PSCENC =         6.08193270
  Ewald energy   TEWEN  =      -138.74590742
  -Hartree energ DENC   =        -0.40738258
  -exchange      EXHF   =         0.00000000
  -V(xc)+E(xc)   XCENC  =       -53.08261686
  PAW double counting   =       132.40031435      -68.49124152
  entropy T*S    EENTRO =        -0.00106774
  eigenvalues    EBANDS =         7.86874151
  atomic energy  EATOM  =       107.07524800
  Solvation  Ediel_sol  =         0.00000000
  ---------------------------------------------------
  free energy    TOTEN  =        -7.30197956 eV

  energy without entropy =       -7.30091181  energy(sigma->0) =       -7.30144569


--------------------------------------------------------------------------------------------------------




--------------------------------------- Iteration      1(   6)  ---------------------------------------


    POTLOK:  cpu time    0.0071: real time    0.0072
    SETDIJ:  cpu time    0.0033: real time    0.0033
     EDDAV:  cpu time    0.2592: real time    0.2593
       DOS:  cpu time    0.0006: real time    0.0006
    CHARGE:  cpu time    0.0068: real time    0.0068
    MIXING:  cpu time    0.0004: real time    0.0004
    --------------------------------------------
      LOOP:  cpu time    0.2774: real time    0.2776

 eigenvalue-minimisations  :  1216
 total energy-change (2. order) : 0.2633968E-01  (-0.5350615E-03)
 number of electron       6.0000000 magnetization 
 augmentation part       -0.0879860 magnetization 

 Broyden mixing:
  rms(total) = 0.74858E-01    rms(broyden)= 0.74858E-01
  rms(prec ) = 0.16044E+00
  weight for this iteration     100.00

 eigenvalues of (default mixing * dielectric matrix)
  average eigenvalue GAMMA=   2.6065
  2.6065

 Free energy of the ion-electron system (eV)
  ---------------------------------------------------
  alpha Z        PSCENC =         6.08193270
  Ewald energy   TEWEN  =      -138.74590742
  -Hartree energ DENC   =        -0.30160952
  -exchange      EXHF   =         0.00000000
  -V(xc)+E(xc)   XCENC  =       -53.04092377
  PAW double counting   =       139.32924231      -75.41037684
  entropy T*S    EENTRO =        -0.00107132
  eigenvalues    EBANDS =         7.73782597
  atomic energy  EATOM  =       107.07524800
  Solvation  Ediel_sol  =         0.00000000
  ---------------------------------------------------
  free energy    TOTEN  =        -7.27563988 eV

  energy without entropy =       -7.27456856  energy(sigma->0) =       -7.27510422


--------------------------------------------------------------------------------------------------------




--------------------------------------- Iteration      1(   7)  ---------------------------------------


    POTLOK:  cpu time    0.0067: real time    0.0067
    SETDIJ:  cpu time    0.0030: real time    0.0030
     EDDAV:  cpu time    0.2305: real time    0.2306
       DOS:  cpu time    0.0006: real time    0.0006
    CHARGE:  cpu time    0.0067: real time    0.0067
    MIXING:  cpu time    0.0004: real time    0.0004
    --------------------------------------------
      LOOP:  cpu time    0.2479: real time    0.2480

 eigenvalue-minimisations  :  1088
 total energy-change (2. order) : 0.1854371E-01  (-0.1605865E-02)
 number of electron       6.0000000 magnetization 
 augmentation part       -0.0898245 magnetization 

 Broyden mixing:
  rms(total) = 0.27427E-02    rms(broyden)= 0.27419E-02
  rms(prec ) = 0.37985E-02
  weight for this iteration     100.00

 eigenvalues of (default mixing * dielectric matrix)
  average eigenvalue GAMMA=   2.5040
  2.5040  2.5040

 Free energy of the ion-electron system (eV)
  ---------------------------------------------------
  alpha Z        PSCENC =         6.08193270
  Ewald energy   TEWEN  =      -138.74590742
  -Hartree energ DENC   =        -0.21162073
  -exchange      EXHF   =         0.00000000
  -V(xc)+E(xc)   XCENC  =       -52.94792441
  PAW double counting   =       151.51066378      -87.58123216
  entropy T*S    EENTRO =        -0.00108132
  eigenvalues    EBANDS =         7.56282538
  atomic energy  EATOM  =       107.07524800
  Solvation  Ediel_sol  =         0.00000000
  ---------------------------------------------------
  free energy    TOTEN  =        -7.25709617 eV

  energy without entropy =       -7.25601485  energy(sigma->0) =       -7.25655551


--------------------------------------------------------------------------------------------------------




--------------------------------------- Iteration      1(   8)  ---------------------------------------


    POTLOK:  cpu time    0.0066: real time    0.0067
    SETDIJ:  cpu time    0.0032: real time    0.0032
     EDDAV:  cpu time    0.2762: real time    0.2764
       DOS:  cpu time    0.0007: real time    0.0007
    CHARGE:  cpu time    0.0073: real time    0.0073
    MIXING:  cpu time    0.0005: real time    0.0005
    --------------------------------------------
      LOOP:  cpu time    0.2945: real time    0.2947

 eigenvalue-minimisations  :  1304
 total energy-change (2. order) : 0.2460072E-04  (-0.3757626E-05)
 number of electron       6.0000000 magnetization 
 augmentation part       -0.0897982 magnetization 

 Broyden mixing:
  rms(total) = 0.84701E-03    rms(broyden)= 0.84692E-03
  rms(prec ) = 0.15354E-02
  weight for this iteration     100.00

 eigenvalues of (default mixing * dielectric matrix)
  average eigenvalue GAMMA=   2.0769
  1.0124  2.7233  2.4950

 Free energy of the ion-electron system (eV)
  ---------------------------------------------------
  alpha Z        PSCENC =         6.08193270
  Ewald energy   TEWEN  =      -138.74590742
  -Hartree energ DENC   =        -0.21400290
  -exchange      EXHF   =         0.00000000
  -V(xc)+E(xc)   XCENC  =       -52.94617145
  PAW double counting   =       151.50078765      -87.57749773
  entropy T*S    EENTRO =        -0.00108093
  eigenvalues    EBANDS =         7.56962052
  atomic energy  EATOM  =       107.07524800
  Solvation  Ediel_sol  =         0.00000000
  ---------------------------------------------------
  free energy    TOTEN  =        -7.25707157 eV

  energy without entropy =       -7.25599064  energy(sigma->0) =       -7.25653110


--------------------------------------------------------------------------------------------------------




--------------------------------------- Iteration      1(   9)  ---------------------------------------


    POTLOK:  cpu time    0.0071: real time    0.0071
    SETDIJ:  cpu time    0.0033: real time    0.0033
     EDDAV:  cpu time    0.2276: real time    0.2276
       DOS:  cpu time    0.0006: real time    0.0006
    --------------------------------------------
      LOOP:  cpu time    0.2385: real time    0.2387

 eigenvalue-minimisations  :  1056
 total energy-change (2. order) : 0.4852519E-06  (-0.7343265E-07)
 number of electron       6.0000000 magnetization 
 augmentation part       -0.0897982 magnetization 

 Free energy of the ion-electron system (eV)
  ---------------------------------------------------
  alpha Z        PSCENC =         6.08193270
  Ewald energy   TEWEN  =      -138.74590742
  -Hartree energ DENC   =        -0.21467619
  -exchange      EXHF   =         0.00000000
  -V(xc)+E(xc)   XCENC  =       -52.94405514
  PAW double counting   =       151.61248617      -87.69186067
  entropy T*S    EENTRO =        -0.00108094
  eigenvalues    EBANDS =         7.57084241
  atomic energy  EATOM  =       107.07524800
  Solvation  Ediel_sol  =         0.00000000
  ---------------------------------------------------
  free energy    TOTEN  =        -7.25707108 eV

  energy without entropy =       -7.25599014  energy(sigma->0) =       -7.25653061


--------------------------------------------------------------------------------------------------------




 average (electrostatic) potential at core
  the test charge radii are     1.0406
  (the norm of the test charge is              1.0000)
       1 -52.9362       2 -52.9362
 
 
 
 E-fermi :   5.3427     XC(G=0):  -9.5848     alpha+bet :-11.4508


 k-point     1 :       0.0000    0.0000    0.0000
  band No.  band energies     occupation 
      1      -4.7600      2.00000
      2       1.1748      2.00000
      3       1.3535      2.00000
      4      14.2532      0.00000
      5      14.2532      0.00000
      6      15.1220      0.00000
      7      15.1220      0.00000
      8      16.5865      0.00000

 k-point     2 :       0.1000    0.0000    0.0000
  band No.  band energies     occupation 
      1      -4.5464      2.00000
      2       1.3864      2.00000
      3       1.5537      2.00000
      4      11.6621      0.00000
      5      12.9480      0.00000
      6      14.4397      0.00000
      7      16.6708      0.00000
      8      16.7179      0.00000

 k-point     3 :       0.2000    0.0000    0.0000
  band No.  band energies     occupation 
      1      -3.9075      2.00000
      2       2.0171      2.00000
      3       2.1537      2.00000
      4       8.4258      0.00000
      5      11.6549      0.00000
      6      13.1761      0.00000
      7      13.8691      0.00000
      8      14.0568      0.00000

 k-point     4 :       0.3000    0.0000    0.0000
  band No.  band energies     occupation 
      1      -2.8487      2.00000
      2       3.0478      2.00000
      3       3.1500      2.00000
      4       5.4574      0.00117
      5      10.7222      0.00000
      6      11.0058      0.00000
      7      11.2029      0.00000
      8      12.3276      0.00000

 k-point     5 :       0.4000    0.0000    0.0000
  band No.  band energies     occupation 
      1      -1.3807      2.00000
      2       2.7619      2.00000
      3       4.5246      2.00000
      4       4.5476      2.00000
      5       8.5355      0.00000
      6       8.6714      0.00000
      7      10.1616      0.00000
      8      11.7109      0.00000

 k-point     6 :       0.5000    0.0000    0.0000
  band No.  band energies     occupation 
      1       0.2931      2.00000
      2       0.7167      2.00000
      3       5.8662      0.00000
      4       6.1693      0.00000
      5       6.5445      0.00000
      6       6.9401      0.00000
      7       9.9748      0.00000
      8      11.5058      0.00000

 k-point     7 :       0.1000    0.1000    0.0000
  band No.  band energies     occupation 
      1      -4.1202      2.00000
      2       1.8076      2.00000
      3       1.9539      2.00000
      4      10.0222      0.00000
      5      10.3113      0.00000
      6      15.1763      0.00000
      7      15.3081      0.00000
      8      15.3827      0.00000

 k-point     8 :       0.2000    0.1000    0.0000
  band No.  band energies     occupation 
      1      -3.2713      2.00000
      2       2.6407      2.00000
      3       2.7524      2.00000
      4       7.0409      0.00000
      5       9.0116      0.00000
      6      12.5633      0.00000
      7      12.6435      0.00000
      8      14.3402      0.00000

 k-point     9 :       0.3000    0.1000    0.0000
  band No.  band energies     occupation 
      1      -2.0072      2.00000
      2       3.7630      2.00000
      3       3.9416      2.00000
      4       4.3524      2.00000
      5       8.2063      0.00000
      6       9.9545      0.00000
      7      10.0054      0.00000
      8      13.6339      0.00000

 k-point    10 :       0.4000    0.1000    0.0000
  band No.  band energies     occupation 
      1      -0.3469      2.00000
      2       1.7603      2.00000
      3       5.4624      0.00071
      4       5.5302      0.00000
      5       7.4266      0.00000
      6       7.7245      0.00000
      7       8.0210      0.00000
      8      13.2761      0.00000

 k-point    11 :       0.2000    0.2000    0.0000
  band No.  band energies     occupation 
      1      -2.2168      2.00000
      2       3.6520      2.00000
      3       3.7454      2.00000
      4       5.9217      0.00000
      5       6.2052      0.00000
      6      11.1855      0.00000
      7      11.4646      0.00000
      8      11.8519      0.00000

 k-point    12 :       0.3000    0.2000    0.0000
  band No.  band energies     occupation 
      1      -0.7545      2.00000
      2       3.3563      2.00000
      3       5.0545      2.00000
      4       5.1139      2.00000
      5       5.5674      0.00000
      6       9.1233      0.00000
      7       9.1699      0.00000
      8      11.1234      0.00000

 k-point    13 :       0.4000    0.2000    0.0000
  band No.  band energies     occupation 
      1       0.9207      2.00000
      2       1.3202      2.00000
      3       5.1927      1.99998
      4       6.4591      0.00000
      5       6.7533      0.00000
      6       7.2722      0.00000
      7       7.4529      0.00000
      8      10.9278      0.00000

 k-point    14 :       0.3000    0.3000    0.0000
  band No.  band energies     occupation 
      1       0.8884      2.00000
      2       2.7762      2.00000
      3       3.2090      2.00000
      4       6.6007      0.00000
      5       6.7548      0.00000
      6       8.2367      0.00000
      7       8.6150      0.00000
      8       9.0227      0.00000

 k-point    15 :       0.0000    0.0000    0.1667
  band No.  band energies     occupation 
      1      -4.5897      2.00000
      2      -0.5559      2.00000
      3       3.3892      2.00000
      4      14.3796      0.00000
      5      14.3954      0.00000
      6      14.3955      0.00000
      7      15.2728      0.00000
      8      15.2728      0.00000

 k-point    16 :       0.1000    0.0000    0.1667
  band No.  band energies     occupation 
      1      -4.3763      2.00000
      2      -0.3472      2.00000
      3       3.5914      2.00000
      4      11.8020      0.00000
      5      13.0955      0.00000
      6      14.1678      0.00000
      7      15.3387      0.00000
      8      15.3999      0.00000

 k-point    17 :       0.2000    0.0000    0.1667
  band No.  band energies     occupation 
      1      -3.7381      2.00000
      2       0.2766      2.00000
      3       4.1942      2.00000
      4       8.5803      0.00000
      5      11.8034      0.00000
      6      12.3048      0.00000
      7      13.2998      0.00000
      8      15.1785      0.00000

 k-point    18 :       0.3000    0.0000    0.1667
  band No.  band energies     occupation 
      1      -2.6803      2.00000
      2       1.3087      2.00000
      3       5.1278      2.00000
      4       5.6684      0.00000
      5       9.4375      0.00000
      6      10.8712      0.00000
      7      12.3747      0.00000
      8      13.0453      0.00000

 k-point    19 :       0.4000    0.0000    0.1667
  band No.  band energies     occupation 
      1      -1.2136      2.00000
      2       2.6636      2.00000
      3       3.0330      2.00000
      4       6.3623      0.00000
      5       7.1167      0.00000
      6      10.3107      0.00000
      7      10.5723      0.00000
      8      11.8633      0.00000

 k-point    20 :       0.5000    0.0000    0.1667
  band No.  band energies     occupation 
      1       0.4598      2.00000
      2       0.8788      2.00000
      3       4.4064      2.00000
      4       4.7566      2.00000
      5       8.2881      0.00000
      6       8.6345      0.00000
      7      10.1238      0.00000
      8      11.6561      0.00000

 k-point    21 :       0.1000    0.1000    0.1667
  band No.  band energies     occupation 
      1      -3.9505      2.00000
      2       0.0690      2.00000
      3       3.9941      2.00000
      4      10.1758      0.00000
      5      10.4518      0.00000
      6      13.7787      0.00000
      7      14.2100      0.00000
      8      14.8659      0.00000

 k-point    22 :       0.2000    0.1000    0.1667
  band No.  band energies     occupation 
      1      -3.1025      2.00000
      2       0.8972      2.00000
      3       4.7876      2.00000
      4       7.2015      0.00000
      5       9.1592      0.00000
      6      10.9915      0.00000
      7      12.8590      0.00000
      8      14.4970      0.00000

 k-point    23 :       0.3000    0.1000    0.1667
  band No.  band energies     occupation 
      1      -1.8395      2.00000
      2       2.1246      2.00000
      3       4.3687      2.00000
      4       5.9894      0.00000
      5       8.1453      0.00000
      6       8.5365      0.00000
      7      11.6595      0.00000
      8      12.5288      0.00000

 k-point    24 :       0.4000    0.1000    0.1667
  band No.  band energies     occupation 
      1      -0.1808      2.00000
      2       1.9199      2.00000
      3       3.7691      2.00000
      4       5.7663      0.00000
      5       7.5908      0.00000
      6       8.0990      0.00000
      7       9.6259      0.00000
      8      11.9087      0.00000

 k-point    25 :       0.2000    0.2000    0.1667
  band No.  band energies     occupation 
      1      -2.0490      2.00000
      2       1.9230      2.00000
      3       5.6453      0.00000
      4       6.1896      0.00000
      5       6.3608      0.00000
      6       9.8074      0.00000
      7      10.2732      0.00000
      8      13.4217      0.00000

 k-point    26 :       0.3000    0.2000    0.1667
  band No.  band energies     occupation 
      1      -0.5881      2.00000
      2       3.2511      2.00000
      3       3.6499      2.00000
      4       5.5968      0.00000
      5       6.9479      0.00000
      6       7.7057      0.00000
      7       9.4614      0.00000
      8      11.3658      0.00000

 k-point    27 :       0.4000    0.2000    0.1667
  band No.  band energies     occupation 
      1       1.0863      2.00000
      2       1.4818      2.00000
      3       4.9267      2.00000
      4       5.3490      0.85805
      5       5.4973      0.00001
      6       8.6625      0.00000
      7       8.9454      0.00000
      8       9.9404      0.00000

 k-point    28 :       0.3000    0.3000    0.1667
  band No.  band energies     occupation 
      1       1.0529      2.00000
      2       2.9314      2.00000
      3       3.3685      2.00000
      4       4.9975      2.00000
      5       6.8505      0.00000
      6       7.0598      0.00000
      7       9.0260      0.00000
      8      10.6804      0.00000

 k-point    29 :       0.0000    0.0000    0.3333
  band No.  band energies     occupation 
      1      -4.0800      2.00000
      2      -2.0569      2.00000
      3       5.8022      0.00000
      4      11.3903      0.00000
      5      14.8211      0.00000
      6      14.8212      0.00000
      7      15.7089      0.00000
      8      15.7089      0.00000

 k-point    30 :       0.1000    0.0000    0.3333
  band No.  band energies     occupation 
      1      -3.8672      2.00000
      2      -1.8465      2.00000
      3       5.9990      0.00000
      4      11.4681      0.00000
      5      12.3957      0.00000
      6      13.5371      0.00000
      7      14.0978      0.00000
      8      15.2903      0.00000

 k-point    31 :       0.2000    0.0000    0.3333
  band No.  band energies     occupation 
      1      -3.2308      2.00000
      2      -1.2172      2.00000
      3       6.5768      0.00000
      4       9.0332      0.00000
      5      10.9509      0.00000
      6      12.0977      0.00000
      7      12.2487      0.00000
      8      14.0189      0.00000

 k-point    32 :       0.3000    0.0000    0.3333
  band No.  band energies     occupation 
      1      -2.1760      2.00000
      2      -0.1747      2.00000
      3       6.0471      0.00000
      4       7.4021      0.00000
      5       8.2284      0.00000
      6      11.3176      0.00000
      7      12.4320      0.00000
      8      13.0973      0.00000

 k-point    33 :       0.4000    0.0000    0.3333
  band No.  band energies     occupation 
      1      -0.7135      2.00000
      2       1.2668      2.00000
      3       3.4464      2.00000
      4       5.3596      0.63113
      5       9.0226      0.00000
      6      10.7577      0.00000
      7      12.1636      0.00000
      8      12.5416      0.00000

 k-point    34 :       0.5000    0.0000    0.3333
  band No.  band energies     occupation 
      1       0.9575      2.00000
      2       1.3616      2.00000
      3       2.9580      2.00000
      4       3.3250      2.00000
      5      10.5710      0.00000
      6      10.5742      0.00000
      7      10.8319      0.00000
      8      12.0722      0.00000

 k-point    35 :       0.1000    0.1000    0.3333
  band No.  band energies     occupation 
      1      -3.4426      2.00000
      2      -1.4266      2.00000
      3       6.3878      0.00000
      4      10.6334      0.00000
      5      10.7647      0.00000
      6      12.1408      0.00000
      7      12.5481      0.00000
      8      12.8949      0.00000

 k-point    36 :       0.2000    0.1000    0.3333
  band No.  band energies     occupation 
      1      -2.5970      2.00000
      2      -0.5907      2.00000
      3       7.0930      0.00000
      4       7.7073      0.00000
      5       9.4575      0.00000
      6       9.7738      0.00000
      7      11.5614      0.00000
      8      12.8483      0.00000

 k-point    37 :       0.3000    0.1000    0.3333
  band No.  band energies     occupation 
      1      -1.3377      2.00000
      2       0.6529      2.00000
      3       4.8540      2.00000
      4       6.7139      0.00000
      5       8.3898      0.00000
      6       8.9265      0.00000
      7      10.7943      0.00000
      8      13.5762      0.00000

 k-point    38 :       0.4000    0.1000    0.3333
  band No.  band energies     occupation 
      1       0.3161      2.00000
      2       2.2004      2.00000
      3       2.5194      2.00000
      4       4.3676      2.00000
      5       8.4331      0.00000
      6       9.7798      0.00000
      7      10.5379      0.00000
      8      12.0978      0.00000

 k-point    39 :       0.2000    0.2000    0.3333
  band No.  band energies     occupation 
      1      -1.5465      2.00000
      2       0.4469      2.00000
      3       6.4775      0.00000
      4       6.8204      0.00000
      5       7.9072      0.00000
      6       8.4211      0.00000
      7       9.1968      0.00000
      8      13.6660      0.00000

 k-point    40 :       0.3000    0.2000    0.3333
  band No.  band energies     occupation 
      1      -0.0901      2.00000
      2       1.8797      2.00000
      3       4.0466      2.00000
      4       5.8598      0.00000
      5       6.1882      0.00000
      6       7.9153      0.00000
      7       9.8077      0.00000
      8      13.4148      0.00000

 k-point    41 :       0.4000    0.2000    0.3333
  band No.  band energies     occupation 
      1       1.5799      2.00000
      2       1.9622      2.00000
      3       3.5668      2.00000
      4       3.9264      2.00000
      5       5.9021      0.00000
      6       7.7527      0.00000
      7      11.2196      0.00000
      8      11.7456      0.00000

 k-point    42 :       0.3000    0.3000    0.3333
  band No.  band energies     occupation 
      1       1.5444      2.00000
      2       3.2472      2.00000
      3       3.7262      2.00000
      4       3.8432      2.00000
      5       5.4343      0.00952
      6       5.7591      0.00000
      7      11.2421      0.00000
      8      12.8494      0.00000

 k-point    43 :       0.0000    0.0000    0.5000
  band No.  band energies     occupation 
      1      -3.2340      2.00000
      2      -3.2340      2.00000
      3       8.4849      0.00000
      4       8.4849      0.00000
      5      15.5197      0.00000
      6      15.5197      0.00000
      7      15.5197      0.00000
      8      15.5197      0.00000

 k-point    44 :       0.1000    0.0000    0.5000
  band No.  band energies     occupation 
      1      -3.0223      2.00000
      2      -3.0223      2.00000
      3       8.6681      0.00000
      4       8.6681      0.00000
      5      13.0655      0.00000
      6      13.0655      0.00000
      7      14.2701      0.00000
      8      14.2701      0.00000

 k-point    45 :       0.2000    0.0000    0.5000
  band No.  band energies     occupation 
      1      -2.3888      2.00000
      2      -2.3888      2.00000
      3       9.0718      0.00000
      4       9.0718      0.00000
      5      10.0518      0.00000
      6      10.0518      0.00000
      7      12.9891      0.00000
      8      12.9891      0.00000

 k-point    46 :       0.3000    0.0000    0.5000
  band No.  band energies     occupation 
      1      -1.3390      2.00000
      2      -1.3390      2.00000
      3       6.8374      0.00000
      4       6.8374      0.00000
      5      10.2689      0.00000
      6      10.2689      0.00000
      7      12.0610      0.00000
      8      12.0610      0.00000

 k-point    47 :       0.4000    0.0000    0.5000
  band No.  band energies     occupation 
      1       0.1159      2.00000
      2       0.1159      2.00000
      3       4.2489      2.00000
      4       4.2489      2.00000
      5      11.4521      0.00000
      6      11.4521      0.00000
      7      11.5023      0.00000
      8      11.5023      0.00000

 k-point    48 :       0.5000    0.0000    0.5000
  band No.  band energies     occupation 
      1       1.7521      2.00000
      2       1.7521      2.00000
      3       2.2294      2.00000
      4       2.2294      2.00000
      5      11.3160      0.00000
      6      11.3160      0.00000
      7      12.3334      0.00000
      8      12.3334      0.00000

 k-point    49 :       0.1000    0.1000    0.5000
  band No.  band energies     occupation 
      1      -2.5997      2.00000
      2      -2.5997      2.00000
      3       9.0088      0.00000
      4       9.0088      0.00000
      5      11.3575      0.00000
      6      11.3575      0.00000
      7      11.9167      0.00000
      8      11.9167      0.00000

 k-point    50 :       0.2000    0.1000    0.5000
  band No.  band energies     occupation 
      1      -1.7580      2.00000
      2      -1.7580      2.00000
      3       8.3584      0.00000
      4       8.3584      0.00000
      5       9.7335      0.00000
      6       9.7335      0.00000
      7      10.7437      0.00000
      8      10.7437      0.00000

 k-point    51 :       0.3000    0.1000    0.5000
  band No.  band energies     occupation 
      1      -0.5049      2.00000
      2      -0.5049      2.00000
      3       5.6499      0.00000
      4       5.6499      0.00000
      5       9.5347      0.00000
      6       9.5347      0.00000
      7      11.2284      0.00000
      8      11.2284      0.00000

 k-point    52 :       0.4000    0.1000    0.5000
  band No.  band energies     occupation 
      1       1.1380      2.00000
      2       1.1380      2.00000
      3       3.2457      2.00000
      4       3.2457      2.00000
      5       9.1999      0.00000
      6       9.1999      0.00000
      7      12.5714      0.00000
      8      12.5714      0.00000

 k-point    53 :       0.2000    0.2000    0.5000
  band No.  band energies     occupation 
      1      -0.7126      2.00000
      2      -0.7126      2.00000
      3       7.2396      0.00000
      4       7.2396      0.00000
      5       7.6386      0.00000
      6       7.6386      0.00000
      7      11.0291      0.00000
      8      11.0291      0.00000

 k-point    54 :       0.3000    0.2000    0.5000
  band No.  band energies     occupation 
      1       0.7357      2.00000
      2       0.7357      2.00000
      3       4.8406      2.00000
      4       4.8406      2.00000
      5       6.8872      0.00000
      6       6.8872      0.00000
      7      12.2871      0.00000
      8      12.2871      0.00000

 k-point    55 :       0.4000    0.2000    0.5000
  band No.  band energies     occupation 
      1       2.3578      2.00000
      2       2.3578      2.00000
      3       2.8448      2.00000
      4       2.8448      2.00000
      5       6.6839      0.00000
      6       6.6839      0.00000
      7      13.4264      0.00000
      8      13.4264      0.00000

 k-point    56 :       0.3000    0.3000    0.5000
  band No.  band energies     occupation 
      1       2.3520      2.00000
      2       2.3520      2.00000
      3       4.2575      2.00000
      4       4.2575      2.00000
      5       4.7000      2.00000
      6       4.7000      2.00000
      7      13.5666      0.00000
      8      13.5666      0.00000


--------------------------------------------------------------------------------------------------------


 soft charge-density along one line, spin component           1
         0         1         2         3         4         5         6         7         8         9
 total charge-density along one line
 
 pseudopotential strength for first ion, spin component:           1
  7.214 -16.871  -0.000   0.000   0.000   0.000  -0.000  -0.000
-16.871  49.171   0.000  -0.000  -0.000  -0.000   0.000   0.000
 -0.000   0.000   1.743  -0.000  -0.000  -6.732   0.000   0.000
  0.000  -0.000  -0.000   1.743  -0.000   0.000  -6.732   0.000
  0.000  -0.000  -0.000  -0.000   1.743   0.000   0.000  -6.732
  0.000  -0.000  -6.732   0.000   0.000  28.246  -0.000  -0.000
 -0.000   0.000   0.000  -6.732   0.000  -0.000  28.245  -0.000
 -0.000   0.000   0.000   0.000  -6.732  -0.000  -0.000  28.246
 -0.000   0.000   0.000  -0.000   0.000  -0.000   0.000  -0.000
 -0.000   0.000   0.000  -0.000  -0.000  -0.000   0.000   0.000
 -0.000   0.000   0.000   0.000  -0.000  -0.000  -0.000   0.000
 -0.000   0.000  -0.000   0.000  -0.000   0.000  -0.000   0.000
  0.000  -0.000   0.000  -0.000   0.000  -0.000   0.000  -0.000
  0.000  -0.000  -0.000   0.000  -0.000   0.000  -0.000   0.001
  0.000  -0.000  -0.000   0.000   0.000   0.000  -0.000  -0.000
  0.001  -0.001  -0.000  -0.000   0.000   0.000   0.000  -0.000
  0.000  -0.000   0.000  -0.000   0.000  -0.000   0.000  -0.000
 -0.000   0.000  -0.000   0.000  -0.000   0.001  -0.000   0.000
 total augmentation occupancy for first ion, spin component:           1
  1.473   0.008  -0.000   0.000   0.000   0.000   0.000  -0.000   0.000   0.000  -0.001   0.000   0.000   0.000  -0.000  -0.000
  0.008   0.000   0.000   0.000   0.000   0.000   0.000  -0.000  -0.000   0.000   0.000   0.000  -0.000   0.000   0.000   0.000
  0.000  -0.000   0.657  -0.000   0.000   0.008   0.000   0.000   0.000  -0.000   0.000  -0.000  -0.007   0.000   0.000   0.000
  0.000   0.000  -0.000   0.687  -0.000  -0.000   0.008   0.000   0.000   0.000   0.000  -0.000   0.000  -0.000   0.000   0.000
 -0.000   0.000   0.000  -0.000   0.657   0.000  -0.000   0.008  -0.007   0.000   0.000   0.000  -0.000  -0.000   0.000   0.000
  0.000   0.000   0.008   0.000   0.000   0.000   0.000   0.000   0.000   0.000   0.000  -0.000  -0.000   0.000   0.000   0.000
  0.000   0.000   0.000   0.008  -0.000   0.000   0.000   0.000   0.000   0.000   0.000   0.000   0.000   0.000  -0.000   0.000
 -0.000  -0.000   0.000   0.000   0.008   0.000   0.000   0.000  -0.000   0.000   0.000  -0.000  -0.000  -0.000   0.000   0.000
  0.000   0.000   0.000   0.000  -0.007   0.000  -0.000  -0.000   0.013   0.000  -0.000  -0.000  -0.000   0.000   0.000  -0.000
  0.000   0.000   0.000  -0.000   0.000  -0.000   0.000   0.000   0.000   0.013   0.000   0.000   0.000   0.000   0.000   0.000
 -0.001   0.000   0.000   0.000   0.000   0.000   0.000   0.000  -0.000   0.000   0.015   0.000  -0.000  -0.000  -0.000   0.000
  0.000  -0.000  -0.000  -0.000   0.000   0.000  -0.000  -0.000   0.000   0.000   0.000   0.013   0.000   0.000   0.000   0.000
  0.000  -0.000  -0.007   0.000  -0.000  -0.000  -0.000  -0.000   0.000   0.000  -0.000  -0.000   0.013  -0.000  -0.000  -0.000
  0.000   0.000   0.000  -0.000  -0.000   0.000   0.000  -0.000   0.000   0.000  -0.000   0.000  -0.000   0.000   0.000  -0.000
 -0.000   0.000  -0.000   0.000  -0.000  -0.000   0.000   0.000   0.000   0.000  -0.000   0.000  -0.000   0.000   0.000   0.000
 -0.000   0.000   0.000   0.000   0.000   0.000   0.000   0.000  -0.000   0.000   0.000   0.000  -0.000  -0.000  -0.000   0.000
 -0.000   0.000   0.000   0.000   0.000   0.000   0.000  -0.000  -0.000   0.000  -0.000   0.000   0.000   0.000   0.000   0.000
  0.000   0.000  -0.000   0.000  -0.000  -0.000  -0.000  -0.000  -0.000   0.000  -0.000  -0.000   0.000  -0.000  -0.000  -0.000


------------------------ aborting loop because EDIFF is reached ----------------------------------------


    CHARGE:  cpu time    0.0069: real time    0.0069
    FORLOC:  cpu time    0.0003: real time    0.0003
    FORNL :  cpu time    0.0974: real time    0.0974
    STRESS:  cpu time    0.2908: real time    0.2909
    FORCOR:  cpu time    0.0062: real time    0.0062
    FORHAR:  cpu time    0.0012: real time    0.0012
    MIXING:  cpu time    0.0004: real time    0.0004
    OFIELD:  cpu time    0.0000: real time    0.0000

  FORCE on cell =-STRESS in cart. coord.  units (eV):
  Direction    XX          YY          ZZ          XY          YZ          ZX
  --------------------------------------------------------------------------------------
  Alpha Z     6.08193     6.08193     6.08193
  Ewald     -46.46417   -46.46417   -45.81767    -0.00000    -0.00000    -0.00000
  Hartree     0.05377     0.05377     0.10716    -0.00000    -0.00000    -0.00000
  E(xc)     -16.28087   -16.28092   -16.29392    -0.00004     0.00000     0.00000
  Local      -2.58653    -2.58653    -3.34386    -0.00000    -0.00000    -0.00000
  n-local    30.95757    31.65867    31.42327    -0.71650     0.14436     0.30291
  augment    -1.18591    -1.18590    -1.19770     0.00001    -0.00000    -0.00000
  Kinetic    33.58335    19.67121    27.47925    16.60818    -3.29434    -3.33448
  Fock        0.00000     0.00000     0.00000     0.00000     0.00000     0.00000
  -------------------------------------------------------------------------------------
  Total      -2.44639    -2.44639    -1.56152    -0.00000     0.00000     0.00000
  in kB     -99.82212   -99.82212   -63.71596    -0.00000     0.00000     0.00000
  external pressure =      -87.79 kB  Pullay stress =        0.00 kB


 VOLUME and BASIS-vectors are now :
 -----------------------------------------------------------------------------
  energy-cutoff  :      300.00
  volume of cell :       39.27
      direct lattice vectors                 reciprocal lattice vectors
     3.037781739  0.000000000  0.000000000     0.329187574  0.190056534  0.000000000
    -1.518890869  2.630796157  0.000000000     0.000000000  0.380113069  0.000000000
     0.000000000  0.000000000  4.913220717     0.000000000  0.000000000  0.203532481

  length of vectors
     3.037781739  3.037781739  4.913220717     0.380113069  0.380113069  0.203532481


 FORCES acting on ions
    electron-ion (+dipol)            ewald-force                    non-local-force                 convergence-correction
 -----------------------------------------------------------------------------------------------
   0.426E-05 -.246E-05 0.984E-14   -.156E-12 0.906E-13 -.192E-14   -.199E-16 0.139E-16 0.000E+00   -.824E-09 0.476E-09 -.297E-14
   -.426E-05 0.246E-05 0.156E-13   0.156E-12 -.900E-13 0.192E-14   0.295E-16 -.139E-16 0.000E+00   0.824E-09 -.476E-09 0.298E-14
 -----------------------------------------------------------------------------------------------
   0.641E-14 0.690E-13 0.254E-13   0.751E-16 0.523E-15 0.000E+00   0.954E-17 0.000E+00 0.000E+00   -.285E-16 -.164E-16 0.125E-17
 
 
 POSITION                                       TOTAL-FORCE (eV/Angst)
 -----------------------------------------------------------------------------------
      0.00000      1.75386      0.00000        -0.000000      0.000000      0.000000
      1.51889      0.87693      2.45661         0.000000     -0.000000      0.000000
 -----------------------------------------------------------------------------------
    total drift:                                0.000000      0.000000      0.000000


--------------------------------------------------------------------------------------------------------



  FREE ENERGIE OF THE ION-ELECTRON SYSTEM (eV)
  ---------------------------------------------------
  free  energy   TOTEN  =        -7.25707108 eV

  energy  without entropy=       -7.25599014  energy(sigma->0) =       -7.25653061
 


--------------------------------------------------------------------------------------------------------


    POTLOK:  cpu time    0.0105: real time    0.0105


--------------------------------------------------------------------------------------------------------


     LOOP+:  cpu time    2.7782: real time    2.8197
    4ORBIT:  cpu time    0.0000: real time    0.0000

 total amount of memory used by VASP MPI-rank0    32681. kBytes
=======================================================================

   base      :      30000. kBytes
   nonlr-proj:        696. kBytes
   fftplans  :        346. kBytes
   grid      :        655. kBytes
   one-center:         31. kBytes
   wavefun   :        953. kBytes
 
  
  
 General timing and accounting informations for this job:
 ========================================================
  
                  Total CPU time used (sec):        3.333
                            User time (sec):        2.547
                          System time (sec):        0.785
                         Elapsed time (sec):        3.397
  
                   Maximum memory used (kb):       35032.
                   Average memory used (kb):           0.
  
                          Minor page faults:        94161
                          Major page faults:            0
                 Voluntary context switches:          528
