 running on    4 total cores
 distrk:  each k-point on    4 cores,    1 groups
 distr:  one band on    1 cores,    4 groups
 using from now: INCAR     
 vasp.5.4.4.18Apr17-6-g9f103f2a35 (build Apr 28 2017 10:40:22) complex          
  
 POSCAR found type information on POSCAR  Al
 POSCAR found :  1 types and       2 ions
 scaLAPACK will be used

 ----------------------------------------------------------------------------- 
|                                                                             |
|  ADVICE TO THIS USER RUNNING 'VASP/VAMP'   (HEAR YOUR MASTER'S VOICE ...):  |
|                                                                             |
|      You have a (more or less) 'small supercell' and for smaller cells      |
|      it is recommended  to use the reciprocal-space projection scheme!      |
|      The real space optimization is not  efficient for small cells and it   |
|      is also less accurate ...                                              |
|      Therefore set LREAL=.FALSE. in the  INCAR file                         |
|                                                                             |
 ----------------------------------------------------------------------------- 

 LDA part: xc-table for Pade appr. of Perdew
 POSCAR, INCAR and KPOINTS ok, starting setup
 FFT: planning ...
 WAVECAR not read
 entering main loop
       N       E                     dE             d eps       ncg     rms          rms(c)
DAV:   1    -0.364486252754E+01   -0.36449E+01   -0.16332E+03   896   0.374E+02
DAV:   2    -0.727991870876E+01   -0.36351E+01   -0.33911E+01  1336   0.317E+01
DAV:   3    -0.730184267683E+01   -0.21924E-01   -0.21896E-01  1168   0.294E+00
DAV:   4    -0.730197949375E+01   -0.13682E-03   -0.13681E-03  1408   0.200E-01
DAV:   5    -0.730197955872E+01   -0.64971E-07   -0.64943E-07  1176   0.391E-03    0.121E+00
DAV:   6    -0.727563987955E+01    0.26340E-01   -0.53506E-03  1216   0.446E-01    0.749E-01
DAV:   7    -0.725709616670E+01    0.18544E-01   -0.16059E-02  1088   0.738E-01    0.274E-02
DAV:   8    -0.725707156598E+01    0.24601E-04   -0.37576E-05  1304   0.497E-02    0.847E-03
DAV:   9    -0.725707108073E+01    0.48525E-06   -0.73433E-07  1056   0.568E-03
   1 F= -.72570711E+01 E0= -.72565306E+01  d E =-.108094E-02
