NiAl                                    
           1
     3.037782    0.000000    0.000000
    -1.518891    2.630796    0.000000
     0.000000    0.000000    4.913221
   Al
   2
NiAl                                    
           1
     3.037782    0.000000    0.000000
    -1.518891    2.630796    0.000000
     0.000000    0.000000    4.913221
   Al
   2
Direct configuration=     1
   0.33333333  0.66666667  0.00000000
   0.66666667  0.33333333  0.50000000
