  10  10   0   0
  0.3048625E+03  0.1450000E-08  0.1450000E-08  0.1450000E-08  0.1000000E-14
   600.000000000000     
  CAR 
 NiAl                                    
      1.09968719    -29.98052354  301     -9.45463437      1.00000000
    -29.981  0.0000E+00  0.0000E+00
    -29.877  0.0000E+00  0.0000E+00
    -29.773  0.0000E+00  0.0000E+00
    -29.670  0.0000E+00  0.0000E+00
    -29.566  0.0000E+00  0.0000E+00
    -29.463  0.0000E+00  0.0000E+00
    -29.359  0.0000E+00  0.0000E+00
    -29.255  0.0000E+00  0.0000E+00
    -29.152  0.0000E+00  0.0000E+00
    -29.048  0.0000E+00  0.0000E+00
    -28.945  0.0000E+00  0.0000E+00
    -28.841  0.2464E-12  0.2472E-13
    -28.737  0.1538E-04  0.1574E-05
    -28.634  0.5718E+00  0.5975E-01
    -28.530  0.1652E+02  0.1796E+01
    -28.427  0.4443E+01  0.2264E+01
    -28.323  0.1836E+01  0.2459E+01
    -28.219  0.1574E+01  0.2626E+01
    -28.116  0.1711E+01  0.2809E+01
    -28.012  0.2009E+01  0.3022E+01
    -27.909  0.1744E+01  0.3206E+01
    -27.805  0.2124E+01  0.3429E+01
    -27.701  0.1842E+01  0.3622E+01
    -27.598  0.1980E+01  0.3831E+01
    -27.494  0.2026E+01  0.4045E+01
    -27.391  0.1695E+01  0.4224E+01
    -27.287  0.1946E+01  0.4427E+01
    -27.183  0.2301E+01  0.4669E+01
    -27.080  0.2009E+01  0.4882E+01
    -26.976  0.2038E+01  0.5097E+01
    -26.873  0.2111E+01  0.5318E+01
    -26.769  0.2128E+01  0.5541E+01
    -26.665  0.2807E+01  0.5836E+01
    -26.562  0.2490E+01  0.6096E+01
    -26.458  0.2360E+01  0.6342E+01
    -26.354  0.2855E+01  0.6640E+01
    -26.251  0.2896E+01  0.6941E+01
    -26.147  0.3106E+01  0.7262E+01
    -26.044  0.2838E+01  0.7557E+01
    -25.940  0.2905E+01  0.7861E+01
    -25.836  0.2725E+01  0.8144E+01
    -25.733  0.2146E+01  0.8367E+01
    -25.629  0.1728E+01  0.8546E+01
    -25.526  0.1909E+01  0.8744E+01
    -25.422  0.1781E+01  0.8930E+01
    -25.318  0.1645E+01  0.9101E+01
    -25.215  0.1519E+01  0.9261E+01
    -25.111  0.1619E+01  0.9430E+01
    -25.008  0.1188E+01  0.9555E+01
    -24.904  0.7584E+00  0.9635E+01
    -24.800  0.5774E+00  0.9697E+01
    -24.697  0.5827E+00  0.9759E+01
    -24.593  0.5698E+00  0.9820E+01
    -24.490  0.5898E+00  0.9884E+01
    -24.386  0.4242E+00  0.9930E+01
    -24.282  0.3219E+00  0.9964E+01
    -24.179  0.2290E+00  0.9989E+01
    -24.075  0.8913E-01  0.9999E+01
    -23.972  0.1300E-01  0.1000E+02
    -23.868  0.9969E-05  0.1000E+02
    -23.764  0.1464E-11  0.1000E+02
    -23.661  0.0000E+00  0.1000E+02
    -23.557  0.0000E+00  0.1000E+02
    -23.454  0.0000E+00  0.1000E+02
    -23.350  0.0000E+00  0.1000E+02
    -23.246  0.0000E+00  0.1000E+02
    -23.143  0.0000E+00  0.1000E+02
    -23.039  0.0000E+00  0.1000E+02
    -22.936  0.0000E+00  0.1000E+02
    -22.832  0.0000E+00  0.1000E+02
    -22.728  0.0000E+00  0.1000E+02
    -22.625  0.0000E+00  0.1000E+02
    -22.521  0.0000E+00  0.1000E+02
    -22.418  0.0000E+00  0.1000E+02
    -22.314  0.0000E+00  0.1000E+02
    -22.210  0.0000E+00  0.1000E+02
    -22.107  0.0000E+00  0.1000E+02
    -22.003  0.0000E+00  0.1000E+02
    -21.900  0.0000E+00  0.1000E+02
    -21.796  0.0000E+00  0.1000E+02
    -21.692  0.0000E+00  0.1000E+02
    -21.589  0.0000E+00  0.1000E+02
    -21.485  0.0000E+00  0.1000E+02
    -21.382  0.0000E+00  0.1000E+02
    -21.278  0.0000E+00  0.1000E+02
    -21.174  0.0000E+00  0.1000E+02
    -21.071  0.0000E+00  0.1000E+02
    -20.967  0.0000E+00  0.1000E+02
    -20.864  0.0000E+00  0.1000E+02
    -20.760  0.0000E+00  0.1000E+02
    -20.656  0.0000E+00  0.1000E+02
    -20.553  0.0000E+00  0.1000E+02
    -20.449  0.0000E+00  0.1000E+02
    -20.346  0.0000E+00  0.1000E+02
    -20.242  0.0000E+00  0.1000E+02
    -20.138  0.0000E+00  0.1000E+02
    -20.035  0.0000E+00  0.1000E+02
    -19.931  0.0000E+00  0.1000E+02
    -19.828  0.0000E+00  0.1000E+02
    -19.724  0.0000E+00  0.1000E+02
    -19.620  0.0000E+00  0.1000E+02
    -19.517  0.0000E+00  0.1000E+02
    -19.413  0.0000E+00  0.1000E+02
    -19.310  0.0000E+00  0.1000E+02
    -19.206  0.0000E+00  0.1000E+02
    -19.102  0.0000E+00  0.1000E+02
    -18.999  0.0000E+00  0.1000E+02
    -18.895  0.0000E+00  0.1000E+02
    -18.792  0.0000E+00  0.1000E+02
    -18.688  0.0000E+00  0.1000E+02
    -18.584  0.0000E+00  0.1000E+02
    -18.481  0.0000E+00  0.1000E+02
    -18.377  0.0000E+00  0.1000E+02
    -18.274  0.0000E+00  0.1000E+02
    -18.170  0.0000E+00  0.1000E+02
    -18.066  0.0000E+00  0.1000E+02
    -17.963  0.0000E+00  0.1000E+02
    -17.859  0.0000E+00  0.1000E+02
    -17.756  0.0000E+00  0.1000E+02
    -17.652  0.0000E+00  0.1000E+02
    -17.548  0.0000E+00  0.1000E+02
    -17.445  0.0000E+00  0.1000E+02
    -17.341  0.0000E+00  0.1000E+02
    -17.238  0.0000E+00  0.1000E+02
    -17.134  0.0000E+00  0.1000E+02
    -17.030  0.0000E+00  0.1000E+02
    -16.927  0.0000E+00  0.1000E+02
    -16.823  0.2689E-09  0.1000E+02
    -16.720  0.8666E-04  0.1000E+02
    -16.616  0.1984E-01  0.1000E+02
    -16.512  0.6594E-01  0.1001E+02
    -16.409  0.3388E-01  0.1001E+02
    -16.305  0.2592E-02  0.1001E+02
    -16.202  0.5643E-01  0.1002E+02
    -16.098  0.2032E-01  0.1002E+02
    -15.994  0.4223E-04  0.1002E+02
    -15.891  0.2254E-02  0.1002E+02
    -15.787  0.7535E-01  0.1003E+02
    -15.684  0.1691E+00  0.1004E+02
    -15.580  0.4240E+00  0.1009E+02
    -15.476  0.1040E+01  0.1019E+02
    -15.373  0.1472E+01  0.1034E+02
    -15.269  0.1874E+01  0.1052E+02
    -15.166  0.1989E+01  0.1072E+02
    -15.062  0.2497E+01  0.1097E+02
    -14.958  0.2634E+01  0.1124E+02
    -14.855  0.3587E+01  0.1161E+02
    -14.751  0.3370E+01  0.1195E+02
    -14.648  0.2956E+01  0.1225E+02
    -14.544  0.2764E+01  0.1254E+02
    -14.440  0.3231E+01  0.1287E+02
    -14.337  0.2818E+01  0.1316E+02
    -14.233  0.2604E+01  0.1343E+02
    -14.130  0.2521E+01  0.1369E+02
    -14.026  0.2296E+01  0.1393E+02
    -13.922  0.2753E+01  0.1421E+02
    -13.819  0.2552E+01  0.1448E+02
    -13.715  0.2485E+01  0.1474E+02
    -13.612  0.2578E+01  0.1501E+02
    -13.508  0.2591E+01  0.1528E+02
    -13.404  0.2949E+01  0.1560E+02
    -13.301  0.3375E+01  0.1595E+02
    -13.197  0.4227E+01  0.1640E+02
    -13.094  0.3484E+01  0.1678E+02
    -12.990  0.3121E+01  0.1711E+02
    -12.886  0.2849E+01  0.1742E+02
    -12.783  0.2807E+01  0.1772E+02
    -12.679  0.2984E+01  0.1804E+02
    -12.576  0.2547E+01  0.1832E+02
    -12.472  0.2316E+01  0.1857E+02
    -12.368  0.2822E+01  0.1887E+02
    -12.265  0.2620E+01  0.1915E+02
    -12.161  0.1927E+01  0.1936E+02
    -12.058  0.2469E+01  0.1963E+02
    -11.954  0.4085E+01  0.2008E+02
    -11.850  0.8323E+01  0.2099E+02
    -11.747  0.9917E+01  0.2206E+02
    -11.643  0.8980E+01  0.2302E+02
    -11.540  0.9021E+01  0.2397E+02
    -11.436  0.1210E+02  0.2523E+02
    -11.332  0.9421E+01  0.2620E+02
    -11.229  0.6351E+01  0.2686E+02
    -11.125  0.7687E+01  0.2767E+02
    -11.022  0.7964E+01  0.2851E+02
    -10.918  0.8367E+01  0.2939E+02
    -10.814  0.7279E+01  0.3016E+02
    -10.711  0.8919E+01  0.3110E+02
    -10.607  0.9361E+01  0.3208E+02
    -10.504  0.1046E+02  0.3317E+02
    -10.400  0.1118E+02  0.3433E+02
    -10.296  0.1302E+02  0.3567E+02
    -10.193  0.1503E+02  0.3720E+02
    -10.089  0.1578E+02  0.3882E+02
     -9.986  0.1595E+02  0.4046E+02
     -9.882  0.1576E+02  0.4209E+02
     -9.778  0.1405E+02  0.4355E+02
     -9.675  0.1160E+02  0.4477E+02
     -9.571  0.1294E+02  0.4616E+02
     -9.468  0.1636E+02  0.4792E+02
     -9.364  0.1267E+02  0.4930E+02
     -9.260  0.3126E+01  0.4963E+02
     -9.157  0.8974E+00  0.4973E+02
     -9.053  0.5765E+00  0.4979E+02
     -8.950  0.5921E+00  0.4986E+02
     -8.846  0.2166E+00  0.4988E+02
     -8.742  0.1247E+00  0.4989E+02
     -8.639  0.1320E+00  0.4991E+02
     -8.535  0.7489E-01  0.4991E+02
     -8.432  0.8261E-01  0.4992E+02
     -8.328  0.1894E+00  0.4994E+02
     -8.224  0.1241E+00  0.4996E+02
     -8.121  0.3263E-01  0.4996E+02
     -8.017  0.4138E-01  0.4996E+02
     -7.914  0.7723E-01  0.4997E+02
     -7.810  0.1553E+00  0.4999E+02
     -7.706  0.1177E+00  0.5000E+02
     -7.603  0.5349E-02  0.5000E+02
     -7.499  0.6033E-06  0.5000E+02
     -7.396  0.4165E-13  0.5000E+02
     -7.292  0.0000E+00  0.5000E+02
     -7.188  0.0000E+00  0.5000E+02
     -7.085  0.0000E+00  0.5000E+02
     -6.981  0.0000E+00  0.5000E+02
     -6.878  0.0000E+00  0.5000E+02
     -6.774  0.0000E+00  0.5000E+02
     -6.670  0.0000E+00  0.5000E+02
     -6.567  0.0000E+00  0.5000E+02
     -6.463  0.0000E+00  0.5000E+02
     -6.360  0.0000E+00  0.5000E+02
     -6.256  0.0000E+00  0.5000E+02
     -6.152  0.0000E+00  0.5000E+02
     -6.049  0.0000E+00  0.5000E+02
     -5.945  0.0000E+00  0.5000E+02
     -5.842  0.0000E+00  0.5000E+02
     -5.738  0.0000E+00  0.5000E+02
     -5.634  0.0000E+00  0.5000E+02
     -5.531  0.0000E+00  0.5000E+02
     -5.427  0.0000E+00  0.5000E+02
     -5.324  0.0000E+00  0.5000E+02
     -5.220  0.0000E+00  0.5000E+02
     -5.116  0.0000E+00  0.5000E+02
     -5.013  0.0000E+00  0.5000E+02
     -4.909  0.4436E-17  0.5000E+02
     -4.806  0.1486E-08  0.5000E+02
     -4.702  0.2594E-03  0.5000E+02
     -4.598  0.4097E-01  0.5000E+02
     -4.495  0.4599E-01  0.5001E+02
     -4.391  0.5544E-01  0.5001E+02
     -4.288  0.8366E-01  0.5002E+02
     -4.184  0.2485E+00  0.5005E+02
     -4.080  0.5097E+00  0.5010E+02
     -3.977  0.1310E+01  0.5023E+02
     -3.873  0.4784E+01  0.5071E+02
     -3.770  0.9178E+01  0.5164E+02
     -3.666  0.8588E+01  0.5252E+02
     -3.562  0.7290E+01  0.5327E+02
     -3.459  0.7682E+01  0.5406E+02
     -3.355  0.7142E+01  0.5480E+02
     -3.252  0.5830E+01  0.5540E+02
     -3.148  0.5071E+01  0.5593E+02
     -3.044  0.4657E+01  0.5641E+02
     -2.941  0.3853E+01  0.5681E+02
     -2.837  0.4060E+01  0.5723E+02
     -2.734  0.4031E+01  0.5765E+02
     -2.630  0.3618E+01  0.5803E+02
     -2.526  0.4440E+01  0.5849E+02
     -2.423  0.6208E+01  0.5913E+02
     -2.319  0.8400E+01  0.6002E+02
     -2.216  0.7071E+01  0.6077E+02
     -2.112  0.5911E+01  0.6139E+02
     -2.008  0.5677E+01  0.6199E+02
     -1.905  0.5741E+01  0.6259E+02
     -1.801  0.5216E+01  0.6314E+02
     -1.698  0.5510E+01  0.6373E+02
     -1.594  0.5686E+01  0.6433E+02
     -1.490  0.7607E+01  0.6514E+02
     -1.387  0.4888E+01  0.6566E+02
     -1.283  0.3293E+01  0.6601E+02
     -1.180  0.2880E+01  0.6632E+02
     -1.076  0.3002E+01  0.6664E+02
     -0.972  0.3405E+01  0.6701E+02
     -0.869  0.3287E+01  0.6736E+02
     -0.765  0.4254E+01  0.6782E+02
     -0.662  0.4954E+01  0.6836E+02
     -0.558  0.3646E+01  0.6876E+02
     -0.454  0.4380E+01  0.6923E+02
     -0.351  0.7914E+01  0.7009E+02
     -0.247  0.1759E+02  0.7194E+02
     -0.144  0.5740E+00  0.7200E+02
     -0.040  0.1534E-04  0.7200E+02
      0.064  0.2461E-12  0.7200E+02
      0.167  0.0000E+00  0.7200E+02
      0.271  0.0000E+00  0.7200E+02
      0.374  0.0000E+00  0.7200E+02
      0.478  0.0000E+00  0.7200E+02
      0.582  0.0000E+00  0.7200E+02
      0.685  0.0000E+00  0.7200E+02
      0.789  0.0000E+00  0.7200E+02
      0.892  0.0000E+00  0.7200E+02
      0.996  0.0000E+00  0.7200E+02
      1.100  0.0000E+00  0.7200E+02
      1.11338883    -29.82850988  301     -9.39396427      1.00000000
    -29.829  0.0000E+00  0.0000E+00
    -29.725  0.0000E+00  0.0000E+00
    -29.622  0.0000E+00  0.0000E+00
    -29.519  0.0000E+00  0.0000E+00
    -29.416  0.0000E+00  0.0000E+00
    -29.313  0.0000E+00  0.0000E+00
    -29.210  0.0000E+00  0.0000E+00
    -29.107  0.0000E+00  0.0000E+00
    -29.003  0.0000E+00  0.0000E+00
    -28.900  0.0000E+00  0.0000E+00
    -28.797  0.0000E+00  0.0000E+00
    -28.694  0.2842E-15  0.2931E-16
    -28.591  0.3509E-07  0.3619E-08
    -28.488  0.1247E-02  0.1286E-03
    -28.385  0.4529E-01  0.4799E-02
    -28.281  0.3080E-01  0.7976E-02
    -28.178  0.2313E-03  0.8000E-02
    -28.075  0.1071E-08  0.8000E-02
    -27.972  0.0000E+00  0.8000E-02
    -27.869  0.0000E+00  0.8000E-02
    -27.766  0.0000E+00  0.8000E-02
    -27.663  0.0000E+00  0.8000E-02
    -27.559  0.0000E+00  0.8000E-02
    -27.456  0.0000E+00  0.8000E-02
    -27.353  0.0000E+00  0.8000E-02
    -27.250  0.0000E+00  0.8000E-02
    -27.147  0.0000E+00  0.8000E-02
    -27.044  0.0000E+00  0.8000E-02
    -26.941  0.0000E+00  0.8000E-02
    -26.837  0.0000E+00  0.8000E-02
    -26.734  0.0000E+00  0.8000E-02
    -26.631  0.0000E+00  0.8000E-02
    -26.528  0.0000E+00  0.8000E-02
    -26.425  0.0000E+00  0.8000E-02
    -26.322  0.0000E+00  0.8000E-02
    -26.219  0.0000E+00  0.8000E-02
    -26.115  0.0000E+00  0.8000E-02
    -26.012  0.0000E+00  0.8000E-02
    -25.909  0.5619E-15  0.8000E-02
    -25.806  0.5410E-07  0.8000E-02
    -25.703  0.1493E-02  0.8154E-02
    -25.600  0.3243E-01  0.1150E-01
    -25.497  0.4863E-02  0.1200E-01
    -25.394  0.7468E-02  0.1277E-01
    -25.290  0.3053E-01  0.1592E-01
    -25.187  0.7847E-03  0.1600E-01
    -25.084  0.1589E-03  0.1602E-01
    -24.981  0.2341E-01  0.1843E-01
    -24.878  0.1519E-01  0.2000E-01
    -24.775  0.2753E-04  0.2000E-01
    -24.672  0.1959E-10  0.2000E-01
    -24.568  0.0000E+00  0.2000E-01
    -24.465  0.0000E+00  0.2000E-01
    -24.362  0.0000E+00  0.2000E-01
    -24.259  0.0000E+00  0.2000E-01
    -24.156  0.0000E+00  0.2000E-01
    -24.053  0.0000E+00  0.2000E-01
    -23.950  0.0000E+00  0.2000E-01
    -23.846  0.0000E+00  0.2000E-01
    -23.743  0.0000E+00  0.2000E-01
    -23.640  0.0000E+00  0.2000E-01
    -23.537  0.0000E+00  0.2000E-01
    -23.434  0.0000E+00  0.2000E-01
    -23.331  0.0000E+00  0.2000E-01
    -23.228  0.0000E+00  0.2000E-01
    -23.124  0.0000E+00  0.2000E-01
    -23.021  0.0000E+00  0.2000E-01
    -22.918  0.0000E+00  0.2000E-01
    -22.815  0.0000E+00  0.2000E-01
    -22.712  0.0000E+00  0.2000E-01
    -22.609  0.0000E+00  0.2000E-01
    -22.506  0.0000E+00  0.2000E-01
    -22.402  0.0000E+00  0.2000E-01
    -22.299  0.0000E+00  0.2000E-01
    -22.196  0.0000E+00  0.2000E-01
    -22.093  0.0000E+00  0.2000E-01
    -21.990  0.0000E+00  0.2000E-01
    -21.887  0.0000E+00  0.2000E-01
    -21.784  0.0000E+00  0.2000E-01
    -21.680  0.0000E+00  0.2000E-01
    -21.577  0.0000E+00  0.2000E-01
    -21.474  0.0000E+00  0.2000E-01
    -21.371  0.0000E+00  0.2000E-01
    -21.268  0.0000E+00  0.2000E-01
    -21.165  0.0000E+00  0.2000E-01
    -21.062  0.0000E+00  0.2000E-01
    -20.958  0.0000E+00  0.2000E-01
    -20.855  0.0000E+00  0.2000E-01
    -20.752  0.0000E+00  0.2000E-01
    -20.649  0.0000E+00  0.2000E-01
    -20.546  0.0000E+00  0.2000E-01
    -20.443  0.0000E+00  0.2000E-01
    -20.340  0.0000E+00  0.2000E-01
    -20.237  0.0000E+00  0.2000E-01
    -20.133  0.0000E+00  0.2000E-01
    -20.030  0.0000E+00  0.2000E-01
    -19.927  0.0000E+00  0.2000E-01
    -19.824  0.0000E+00  0.2000E-01
    -19.721  0.0000E+00  0.2000E-01
    -19.618  0.0000E+00  0.2000E-01
    -19.515  0.0000E+00  0.2000E-01
    -19.411  0.0000E+00  0.2000E-01
    -19.308  0.0000E+00  0.2000E-01
    -19.205  0.0000E+00  0.2000E-01
    -19.102  0.0000E+00  0.2000E-01
    -18.999  0.0000E+00  0.2000E-01
    -18.896  0.0000E+00  0.2000E-01
    -18.793  0.0000E+00  0.2000E-01
    -18.689  0.0000E+00  0.2000E-01
    -18.586  0.0000E+00  0.2000E-01
    -18.483  0.0000E+00  0.2000E-01
    -18.380  0.0000E+00  0.2000E-01
    -18.277  0.0000E+00  0.2000E-01
    -18.174  0.0000E+00  0.2000E-01
    -18.071  0.0000E+00  0.2000E-01
    -17.967  0.0000E+00  0.2000E-01
    -17.864  0.0000E+00  0.2000E-01
    -17.761  0.0000E+00  0.2000E-01
    -17.658  0.0000E+00  0.2000E-01
    -17.555  0.0000E+00  0.2000E-01
    -17.452  0.0000E+00  0.2000E-01
    -17.349  0.0000E+00  0.2000E-01
    -17.245  0.0000E+00  0.2000E-01
    -17.142  0.0000E+00  0.2000E-01
    -17.039  0.0000E+00  0.2000E-01
    -16.936  0.0000E+00  0.2000E-01
    -16.833  0.0000E+00  0.2000E-01
    -16.730  0.0000E+00  0.2000E-01
    -16.627  0.0000E+00  0.2000E-01
    -16.523  0.0000E+00  0.2000E-01
    -16.420  0.0000E+00  0.2000E-01
    -16.317  0.0000E+00  0.2000E-01
    -16.214  0.0000E+00  0.2000E-01
    -16.111  0.0000E+00  0.2000E-01
    -16.008  0.0000E+00  0.2000E-01
    -15.905  0.0000E+00  0.2000E-01
    -15.802  0.0000E+00  0.2000E-01
    -15.698  0.0000E+00  0.2000E-01
    -15.595  0.0000E+00  0.2000E-01
    -15.492  0.0000E+00  0.2000E-01
    -15.389  0.0000E+00  0.2000E-01
    -15.286  0.0000E+00  0.2000E-01
    -15.183  0.0000E+00  0.2000E-01
    -15.080  0.1761E-13  0.2000E-01
    -14.976  0.4602E-06  0.2000E-01
    -14.873  0.3692E-02  0.2038E-01
    -14.770  0.3355E-01  0.2384E-01
    -14.667  0.3180E-01  0.2712E-01
    -14.564  0.3833E-01  0.3107E-01
    -14.461  0.8974E-02  0.3200E-01
    -14.358  0.5056E-05  0.3200E-01
    -14.254  0.9840E-12  0.3200E-01
    -14.151  0.0000E+00  0.3200E-01
    -14.048  0.0000E+00  0.3200E-01
    -13.945  0.0000E+00  0.3200E-01
    -13.842  0.0000E+00  0.3200E-01
    -13.739  0.0000E+00  0.3200E-01
    -13.636  0.0000E+00  0.3200E-01
    -13.532  0.1643E-11  0.3200E-01
    -13.429  0.8599E-05  0.3200E-01
    -13.326  0.1661E-01  0.3371E-01
    -13.223  0.5959E-01  0.3986E-01
    -13.120  0.1357E-02  0.4000E-01
    -13.017  0.2109E-07  0.4000E-01
    -12.914  0.9903E-16  0.4000E-01
    -12.810  0.0000E+00  0.4000E-01
    -12.707  0.0000E+00  0.4000E-01
    -12.604  0.0000E+00  0.4000E-01
    -12.501  0.0000E+00  0.4000E-01
    -12.398  0.0000E+00  0.4000E-01
    -12.295  0.0000E+00  0.4000E-01
    -12.192  0.0000E+00  0.4000E-01
    -12.088  0.0000E+00  0.4000E-01
    -11.985  0.0000E+00  0.4000E-01
    -11.882  0.0000E+00  0.4000E-01
    -11.779  0.0000E+00  0.4000E-01
    -11.676  0.8859E-10  0.4000E-01
    -11.573  0.8736E-04  0.4001E-01
    -11.470  0.4349E-01  0.4449E-01
    -11.367  0.1081E+00  0.5565E-01
    -11.263  0.3403E-02  0.5600E-01
    -11.160  0.1260E-06  0.5600E-01
    -11.057  0.1421E-14  0.5600E-01
    -10.954  0.0000E+00  0.5600E-01
    -10.851  0.0000E+00  0.5600E-01
    -10.748  0.0000E+00  0.5600E-01
    -10.645  0.0000E+00  0.5600E-01
    -10.541  0.0000E+00  0.5600E-01
    -10.438  0.0000E+00  0.5600E-01
    -10.335  0.9898E-09  0.5600E-01
    -10.232  0.3048E-03  0.5603E-01
    -10.129  0.4625E-01  0.6080E-01
    -10.026  0.5378E-01  0.6635E-01
     -9.923  0.5872E-01  0.7241E-01
     -9.819  0.1283E+00  0.8564E-01
     -9.716  0.1024E+00  0.9620E-01
     -9.613  0.3588E-01  0.9990E-01
     -9.510  0.9347E-03  0.1000E+00
     -9.407  0.1925E-07  0.1000E+00
     -9.304  0.1119E-15  0.1000E+00
     -9.201  0.0000E+00  0.1000E+00
     -9.097  0.0000E+00  0.1000E+00
     -8.994  0.0000E+00  0.1000E+00
     -8.891  0.0000E+00  0.1000E+00
     -8.788  0.0000E+00  0.1000E+00
     -8.685  0.0000E+00  0.1000E+00
     -8.582  0.0000E+00  0.1000E+00
     -8.479  0.0000E+00  0.1000E+00
     -8.375  0.0000E+00  0.1000E+00
     -8.272  0.0000E+00  0.1000E+00
     -8.169  0.0000E+00  0.1000E+00
     -8.066  0.0000E+00  0.1000E+00
     -7.963  0.0000E+00  0.1000E+00
     -7.860  0.0000E+00  0.1000E+00
     -7.757  0.0000E+00  0.1000E+00
     -7.653  0.0000E+00  0.1000E+00
     -7.550  0.0000E+00  0.1000E+00
     -7.447  0.0000E+00  0.1000E+00
     -7.344  0.0000E+00  0.1000E+00
     -7.241  0.0000E+00  0.1000E+00
     -7.138  0.0000E+00  0.1000E+00
     -7.035  0.0000E+00  0.1000E+00
     -6.932  0.0000E+00  0.1000E+00
     -6.828  0.0000E+00  0.1000E+00
     -6.725  0.0000E+00  0.1000E+00
     -6.622  0.0000E+00  0.1000E+00
     -6.519  0.0000E+00  0.1000E+00
     -6.416  0.0000E+00  0.1000E+00
     -6.313  0.0000E+00  0.1000E+00
     -6.210  0.0000E+00  0.1000E+00
     -6.106  0.0000E+00  0.1000E+00
     -6.003  0.0000E+00  0.1000E+00
     -5.900  0.0000E+00  0.1000E+00
     -5.797  0.0000E+00  0.1000E+00
     -5.694  0.0000E+00  0.1000E+00
     -5.591  0.0000E+00  0.1000E+00
     -5.488  0.0000E+00  0.1000E+00
     -5.384  0.0000E+00  0.1000E+00
     -5.281  0.0000E+00  0.1000E+00
     -5.178  0.0000E+00  0.1000E+00
     -5.075  0.0000E+00  0.1000E+00
     -4.972  0.0000E+00  0.1000E+00
     -4.869  0.0000E+00  0.1000E+00
     -4.766  0.0000E+00  0.1000E+00
     -4.662  0.0000E+00  0.1000E+00
     -4.559  0.0000E+00  0.1000E+00
     -4.456  0.0000E+00  0.1000E+00
     -4.353  0.0000E+00  0.1000E+00
     -4.250  0.0000E+00  0.1000E+00
     -4.147  0.0000E+00  0.1000E+00
     -4.044  0.4306E-17  0.1000E+00
     -3.940  0.2758E-08  0.1000E+00
     -3.837  0.4729E-03  0.1000E+00
     -3.734  0.4943E-01  0.1051E+00
     -3.631  0.3128E-01  0.1084E+00
     -3.528  0.6679E-01  0.1153E+00
     -3.425  0.6554E-01  0.1220E+00
     -3.322  0.1917E-01  0.1240E+00
     -3.218  0.1639E-04  0.1240E+00
     -3.115  0.6241E-11  0.1240E+00
     -3.012  0.0000E+00  0.1240E+00
     -2.909  0.0000E+00  0.1240E+00
     -2.806  0.0000E+00  0.1240E+00
     -2.703  0.0000E+00  0.1240E+00
     -2.600  0.0000E+00  0.1240E+00
     -2.496  0.0000E+00  0.1240E+00
     -2.393  0.0000E+00  0.1240E+00
     -2.290  0.0000E+00  0.1240E+00
     -2.187  0.0000E+00  0.1240E+00
     -2.084  0.0000E+00  0.1240E+00
     -1.981  0.0000E+00  0.1240E+00
     -1.878  0.2934E-14  0.1240E+00
     -1.775  0.2365E-06  0.1240E+00
     -1.671  0.5951E-02  0.1246E+00
     -1.568  0.1290E+00  0.1379E+00
     -1.465  0.2019E-01  0.1400E+00
     -1.362  0.4482E-05  0.1400E+00
     -1.259  0.3497E-12  0.1400E+00
     -1.156  0.0000E+00  0.1400E+00
     -1.053  0.0000E+00  0.1400E+00
     -0.949  0.0000E+00  0.1400E+00
     -0.846  0.0000E+00  0.1400E+00
     -0.743  0.0000E+00  0.1400E+00
     -0.640  0.0000E+00  0.1400E+00
     -0.537  0.1043E-12  0.1400E+00
     -0.434  0.1347E-05  0.1400E+00
     -0.331  0.5598E-02  0.1406E+00
     -0.227  0.3195E-01  0.1439E+00
     -0.124  0.1229E-02  0.1440E+00
     -0.021  0.3508E-07  0.1440E+00
      0.082  0.2842E-15  0.1440E+00
      0.185  0.0000E+00  0.1440E+00
      0.288  0.0000E+00  0.1440E+00
      0.391  0.0000E+00  0.1440E+00
      0.495  0.0000E+00  0.1440E+00
      0.598  0.0000E+00  0.1440E+00
      0.701  0.0000E+00  0.1440E+00
      0.804  0.0000E+00  0.1440E+00
      0.907  0.0000E+00  0.1440E+00
      1.010  0.0000E+00  0.1440E+00
      1.113  0.0000E+00  0.1440E+00
