   10   10  500    1
  0.3048625E+03  0.1450000E-08  0.1450000E-08  0.1450000E-08  0.1000000E-14
   600.000000000000     
  CAR 
 NiAl                                    
     50      1     36
 
  0.0000000E+00  0.0000000E+00  0.0000000E+00  0.1000000E+01
    1      -28.422060   1.000000
    2      -28.370380   1.000000
    3      -25.640399   1.000000
    4      -25.362805   1.000000
    5      -24.990610   1.000000
    6      -14.826968   1.000000
    7      -14.692605   1.000000
    8      -14.589800   1.000000
    9      -13.301806   1.000000
   10      -13.294199   1.000000
   11      -11.465584   1.000000
   12      -11.463500   1.000000
   13      -11.428332   1.000000
   14      -11.427604   1.000000
   15      -10.140048   1.000000
   16      -10.135569   1.000000
   17      -10.007211   1.000000
   18      -10.005950   1.000000
   19       -9.871336   1.000000
   20       -9.854685   1.000000
   21       -9.843550   1.000000
   22       -9.830984   1.000000
   23       -9.790917   1.000000
   24       -9.760728   1.000000
   25       -9.682992   1.000000
   26       -3.753558   0.000000
   27       -3.741186   0.000000
   28       -3.574374   0.000000
   29       -3.569150   0.000000
   30       -3.458270   0.000000
   31       -3.440992   0.000000
   32       -1.612898   0.000000
   33       -1.612275   0.000000
   34       -1.605243   0.000000
   35       -1.602936   0.000000
   36       -0.293061   0.000000
