          18
 Energy:  -72.172593699999993     
 X   0.00000000       0.00000000       0.00000000    
 X   14.5000000       0.00000000       0.00000000    
 X   0.00000000       14.5000000       0.00000000    
 X   0.00000000       0.00000000       14.5000000    
 X   14.5000000       14.5000000       0.00000000    
 X   14.5000000       0.00000000       14.5000000    
 X   0.00000000       14.5000000       14.5000000    
 X   14.5000000       14.5000000       14.5000000    
 N    0.00000000       0.00000000       0.00000000    
 N    1.10000002       0.00000000       0.00000000    
 N   0.500000000       14.0000000       2.00000000    
 N   0.500000000      0.500000000       2.00000000    
 N    2.00000000       1.89999998       0.00000000    
 N    2.00000000       2.90000010       0.00000000    
 N    2.00000000       5.00000000       0.00000000    
 N    2.00000000       5.00000000       1.00000000    
 N    2.00000000       3.00000000       5.00000000    
 N    3.00000000       3.00000000       5.00000000    
          18
 Energy:  -75.743597500000007     
 X   0.00000000       0.00000000       0.00000000    
 X   14.5000000       0.00000000       0.00000000    
 X   0.00000000       14.5000000       0.00000000    
 X   0.00000000       0.00000000       14.5000000    
 X   14.5000000       14.5000000       0.00000000    
 X   14.5000000       0.00000000       14.5000000    
 X   0.00000000       14.5000000       14.5000000    
 X   14.5000000       14.5000000       14.5000000    
 N    14.4892197       14.4957199       6.59999996E-03
 N    1.10677004       14.4924202       14.4986801    
 N   0.509729981       13.9789495       2.00176001    
 N   0.494340003      0.519339979       2.01051998    
 N    2.00434995       1.88468003       14.4868898    
 N    1.99669003       2.91968012       6.79000001E-03
 N    1.99872994       4.99566984       14.4793901    
 N    2.00203991       5.00023985       1.02041996    
 N    1.97422004       3.00323009       4.99510002    
 N    3.02389002       3.01006007       4.99384022    
          18
 Energy:  -77.872610399999999     
 X   0.00000000       0.00000000       0.00000000    
 X   14.5000000       0.00000000       0.00000000    
 X   0.00000000       14.5000000       0.00000000    
 X   0.00000000       0.00000000       14.5000000    
 X   14.5000000       14.5000000       0.00000000    
 X   14.5000000       0.00000000       14.5000000    
 X   0.00000000       14.5000000       14.5000000    
 X   14.5000000       14.5000000       14.5000000    
 N    14.4772396       14.4915199       1.05600003E-02
 N    1.11394000       14.4830399       14.4948797    
 N   0.519580007       13.9466105       2.00604010    
 N   0.488429993      0.549960017       2.02367997    
 N    2.00984001       1.85860002       14.4735804    
 N    1.99316001       2.94880009       1.31900003E-02
 N    1.99744999       4.99325991       14.4481897    
 N    2.00413990       5.00165987       1.05201006    
 N    1.93900001       3.00638008       4.99021006    
 N    3.05721998       3.02016997       4.98765993    
          18
 Energy:  -77.373364800000004     
 X   0.00000000       0.00000000       0.00000000    
 X   14.5000000       0.00000000       0.00000000    
 X   0.00000000       14.5000000       0.00000000    
 X   0.00000000       0.00000000       14.5000000    
 X   14.5000000       14.5000000       0.00000000    
 X   14.5000000       0.00000000       14.5000000    
 X   0.00000000       14.5000000       14.5000000    
 X   14.5000000       14.5000000       14.5000000    
 N    14.4657698       14.4874001       1.20299999E-02
 N    1.11978996       14.4718800       14.4887600    
 N   0.529439986       13.9119701       2.01279998    
 N   0.482360005      0.582840025       2.03925991    
 N    2.01644993       1.83023000       14.4601402    
 N    1.98942006       2.97866988       1.90299992E-02
 N    1.99618995       4.99287987       14.4153500    
 N    2.00627995       5.00436020       1.08587003    
 N    1.90336001       3.00950003       4.98530006    
 N    3.09095001       3.03027010       4.98147011    
          18
 Energy:  -75.592146499999998     
 X   0.00000000       0.00000000       0.00000000    
 X   14.5000000       0.00000000       0.00000000    
 X   0.00000000       14.5000000       0.00000000    
 X   0.00000000       0.00000000       14.5000000    
 X   14.5000000       14.5000000       0.00000000    
 X   14.5000000       0.00000000       14.5000000    
 X   0.00000000       14.5000000       14.5000000    
 X   14.5000000       14.5000000       14.5000000    
 N    14.4561005       14.4833097       1.11499997E-02
 N    1.12299001       14.4589901       14.4805403    
 N   0.539120018       13.8808403       2.02197003    
 N   0.476359993      0.612190008       2.05694008    
 N    2.02412009       1.80531001       14.4468098    
 N    1.98554003       3.00338006       2.40100008E-02
 N    1.99498999       4.99458981       14.3865604    
 N    2.00840998       5.00841999       1.11635995    
 N    1.87261999       3.01270008       4.98037004    
 N    3.11977005       3.04027009       4.97527981    
          18
 Energy:  -73.804007100000007     
 X   0.00000000       0.00000000       0.00000000    
 X   14.5000000       0.00000000       0.00000000    
 X   0.00000000       14.5000000       0.00000000    
 X   0.00000000       0.00000000       14.5000000    
 X   14.5000000       14.5000000       0.00000000    
 X   14.5000000       0.00000000       14.5000000    
 X   0.00000000       14.5000000       14.5000000    
 X   14.5000000       14.5000000       14.5000000    
 N    14.4490995       14.4792299       8.10999982E-03
 N    1.12266004       14.4444399       14.4704504    
 N   0.548430026       13.8561897       2.03345990    
 N   0.470629990      0.635029972       2.07642007    
 N    2.03273010       1.78689003       14.4338198    
 N    1.98160005       3.01981997       2.78600007E-02
 N    1.99389994       4.99839020       14.3647404    
 N    2.01049995       5.01388979       1.14060998    
 N    1.84937000       3.01604009       4.97540998    
 N    3.14108992       3.05009007       4.96913004    
          18
 Energy:  -72.669111999999998     
 X   0.00000000       0.00000000       0.00000000    
 X   14.5000000       0.00000000       0.00000000    
 X   0.00000000       14.5000000       0.00000000    
 X   0.00000000       0.00000000       14.5000000    
 X   14.5000000       14.5000000       0.00000000    
 X   14.5000000       0.00000000       14.5000000    
 X   0.00000000       14.5000000       14.5000000    
 X   14.5000000       14.5000000       14.5000000    
 N    14.4451904       14.4750900       3.06000002E-03
 N    1.11837995       14.4283600       14.4587097    
 N   0.557229996       13.8394499       2.04716992    
 N   0.465339988      0.649940014       2.09741998    
 N    2.04217005       1.77632999       14.4213200    
 N    1.97767997       3.02659011       3.03799994E-02
 N    1.99296999       5.00419998       14.3512297    
 N    2.01254010       5.02079010       1.15727997    
 N    1.83477998       3.01957989       4.97040987    
 N    3.15372992       3.05966997       4.96301985    
          18
 Energy:  -72.452466000000001     
 X   0.00000000       0.00000000       0.00000000    
 X   14.5000000       0.00000000       0.00000000    
 X   0.00000000       14.5000000       0.00000000    
 X   0.00000000       0.00000000       14.5000000    
 X   14.5000000       14.5000000       0.00000000    
 X   14.5000000       0.00000000       14.5000000    
 X   0.00000000       14.5000000       14.5000000    
 X   14.5000000       14.5000000       14.5000000    
 N    14.4444399       14.4708300       14.4961596    
 N    1.11010003       14.4108801       14.4455099    
 N   0.565400004       13.8312998       2.06298995    
 N   0.460619986      0.656260014       2.11973000    
 N    2.05233002       1.77411997       14.4094296    
 N    1.97385001       3.02322006       3.14700007E-02
 N    1.99222004       5.01195002       14.3466301    
 N    2.01448989       5.02906990       1.16574001    
 N    1.82937002       3.02339005       4.96537018    
 N    3.15719008       3.06896996       4.95697021    
          18
 Energy:  -73.203879000000001     
 X   0.00000000       0.00000000       0.00000000    
 X   14.5000000       0.00000000       0.00000000    
 X   0.00000000       14.5000000       0.00000000    
 X   0.00000000       0.00000000       14.5000000    
 X   14.5000000       14.5000000       0.00000000    
 X   14.5000000       0.00000000       14.5000000    
 X   0.00000000       14.5000000       14.5000000    
 X   14.5000000       14.5000000       14.5000000    
 N    14.4464998       14.4664202       14.4875202    
 N    1.09818006       14.3921404       14.4309998    
 N   0.572849989       13.8320303       2.08084989    
 N   0.456600010      0.653699994       2.14314008    
 N    2.06306005       1.78022003       14.3982296    
 N    1.97017002       3.00976992       3.11099999E-02
 N    1.99169004       5.02157021       14.3511696    
 N    2.01636004       5.03870010       1.16573000    
 N    1.83326006       3.02749991       4.96026993    
 N    3.15131998       3.07795000       4.95099020    
          18
 Energy:  -74.808615200000006     
 X   0.00000000       0.00000000       0.00000000    
 X   14.5000000       0.00000000       0.00000000    
 X   0.00000000       14.5000000       0.00000000    
 X   0.00000000       0.00000000       14.5000000    
 X   14.5000000       14.5000000       0.00000000    
 X   14.5000000       0.00000000       14.5000000    
 X   0.00000000       14.5000000       14.5000000    
 X   14.5000000       14.5000000       14.5000000    
 N    14.4505997       14.4618397       14.4772902    
 N    1.08344996       14.3722296       14.4152899    
 N   0.579509974       13.8416796       2.10066009    
 N   0.453370005      0.642229974       2.16749001    
 N    2.07427001       1.79407001       14.3877001    
 N    1.96670997       2.98684001       2.93300003E-02
 N    1.99138999       5.03298998       14.3648005    
 N    2.01811004       5.04959011       1.15724003    
 N    1.84632003       3.03192997       4.95512009    
 N    3.13627005       3.08660007       4.94508982    
          18
 Energy:  -76.940019599999999     
 X   0.00000000       0.00000000       0.00000000    
 X   14.5000000       0.00000000       0.00000000    
 X   0.00000000       14.5000000       0.00000000    
 X   0.00000000       0.00000000       14.5000000    
 X   14.5000000       14.5000000       0.00000000    
 X   14.5000000       0.00000000       14.5000000    
 X   0.00000000       14.5000000       14.5000000    
 X   14.5000000       14.5000000       14.5000000    
 N    14.4555101       14.4571505       14.4656096    
 N    1.06717002       14.3512201       14.3984404    
 N   0.585319996       13.8599901       2.12234998    
 N   0.451009989      0.622110009       2.19263005    
 N    2.08588004       1.81429005       14.3777704    
 N    1.96344995       2.95587993       2.63199992E-02
 N    1.99133003       5.04613018       14.3871603    
 N    2.01974010       5.06162024       1.14056003    
 N    1.86800003       3.03673005       4.94991016    
 N    3.11258006       3.09489012       4.93926001    
          18
 Energy:  -78.943056700000000     
 X   0.00000000       0.00000000       0.00000000    
 X   14.5000000       0.00000000       0.00000000    
 X   0.00000000       14.5000000       0.00000000    
 X   0.00000000       0.00000000       14.5000000    
 X   14.5000000       14.5000000       0.00000000    
 X   14.5000000       0.00000000       14.5000000    
 X   0.00000000       14.5000000       14.5000000    
 X   14.5000000       14.5000000       14.5000000    
 N    14.4595900       14.4524803       14.4526796    
 N    1.05104005       14.3291101       14.3804502    
 N   0.590290010       13.8862305       2.14583993    
 N   0.449550003      0.594060004       2.21845007    
 N    2.09801006       1.83803999       14.3681097    
 N    1.96020997       2.91982007       2.24600006E-02
 N    1.99150002       5.06088018       14.4173298    
 N    2.02124000       5.07466984       1.11653996    
 N    1.89712000       3.04185009       4.94464016    
 N    3.08144999       3.10284996       4.93350983    
          18
 Energy:  -79.798549100000002     
 X   0.00000000       0.00000000       0.00000000    
 X   14.5000000       0.00000000       0.00000000    
 X   0.00000000       14.5000000       0.00000000    
 X   0.00000000       0.00000000       14.5000000    
 X   14.5000000       14.5000000       0.00000000    
 X   14.5000000       0.00000000       14.5000000    
 X   0.00000000       14.5000000       14.5000000    
 X   14.5000000       14.5000000       14.5000000    
 N    14.4610596       14.4480305       14.4387197    
 N    1.03690004       14.3058100       14.3613005    
 N   0.594529986       13.9187098       2.17095995    
 N   0.448859990      0.559790015       2.24486995    
 N    2.11115003       1.86015999       14.3580303    
 N    1.95643997       2.88399005       1.85400005E-02
 N    1.99188995       5.07709980       14.4532299    
 N    2.02263999       5.08861017       1.08721006    
 N    1.93102002       3.04721999       4.93934011    
 N    3.04550004       3.11057997       4.92780018    
          18
 Energy:  -78.622650199999995     
 X   0.00000000       0.00000000       0.00000000    
 X   14.5000000       0.00000000       0.00000000    
 X   0.00000000       14.5000000       0.00000000    
 X   0.00000000       0.00000000       14.5000000    
 X   14.5000000       14.5000000       0.00000000    
 X   14.5000000       0.00000000       14.5000000    
 X   0.00000000       14.5000000       14.5000000    
 X   14.5000000       14.5000000       14.5000000    
 N    14.4584904       14.4440403       14.4239597    
 N    1.02625000       14.2812204       14.3409595    
 N   0.598460019       13.9537296       2.19741988    
 N   0.448559999      0.522960007       2.27197003    
 N    2.12636995       1.87322998       14.3463497    
 N    1.95098996       2.85596991       1.58200003E-02
 N    1.99236000       5.09460020       14.4904804    
 N    2.02405000       5.10333014       1.05689001    
 N    1.96431994       3.05254006       4.93405008    
 N    3.01014996       3.11837006       4.92210007    
          18
 Energy:  -76.080988099999999     
 X   0.00000000       0.00000000       0.00000000    
 X   14.5000000       0.00000000       0.00000000    
 X   0.00000000       14.5000000       0.00000000    
 X   0.00000000       0.00000000       14.5000000    
 X   14.5000000       14.5000000       0.00000000    
 X   14.5000000       0.00000000       14.5000000    
 X   0.00000000       14.5000000       14.5000000    
 X   14.5000000       14.5000000       14.5000000    
 N    14.4513702       14.4406796       14.4085999    
 N    1.01966000       14.2552700       14.3194904    
 N   0.603030026       13.9842396       2.22462010    
 N   0.447679996      0.490640014       2.30009007    
 N    2.14502001       1.87070000       14.3317900    
 N    1.94246995       2.84243011       1.56500004E-02
 N    1.99269998       5.11320019       2.12500002E-02
 N    2.02568007       5.11878014       1.03334999    
 N    1.98787999       3.05725002       4.92888021    
 N    2.98451996       3.12680006       4.91627979    
          18
 Energy:  -75.230385200000001     
 X   0.00000000       0.00000000       0.00000000    
 X   14.5000000       0.00000000       0.00000000    
 X   0.00000000       14.5000000       0.00000000    
 X   0.00000000       0.00000000       14.5000000    
 X   14.5000000       14.5000000       0.00000000    
 X   14.5000000       0.00000000       14.5000000    
 X   0.00000000       14.5000000       14.5000000    
 X   14.5000000       14.5000000       14.5000000    
 N    14.4403400       14.4378996       14.3927202    
 N    1.01651001       14.2280798       14.2970200    
 N   0.609849989       14.0002699       2.25166988    
 N   0.444610000      0.472790003       2.32986999    
 N    2.16762996       1.85201001       14.3140097    
 N    1.93030000       2.84404993       1.84300002E-02
 N    1.99257004       5.13279009       3.57500017E-02
 N    2.02787995       5.13489008       1.02630997    
 N    1.99194002       3.06060004       4.92397022    
 N    2.97836995       3.13661003       4.91024017    
          18
 Energy:  -77.758048299999999     
 X   0.00000000       0.00000000       0.00000000    
 X   14.5000000       0.00000000       0.00000000    
 X   0.00000000       14.5000000       0.00000000    
 X   0.00000000       0.00000000       14.5000000    
 X   14.5000000       14.5000000       0.00000000    
 X   14.5000000       0.00000000       14.5000000    
 X   0.00000000       14.5000000       14.5000000    
 X   14.5000000       14.5000000       14.5000000    
 N    14.4269505       14.4355001       14.3763504    
 N    1.01531005       14.1999197       14.2737904    
 N   0.620329976       13.9948702       2.27780008    
 N   0.437949985      0.476370007       2.36184001    
 N    2.19326997       1.82312000       14.2939596    
 N    1.91538000       2.85492992       2.32299995E-02
 N    1.99175000       5.15331984       2.90399995E-02
 N    2.03086996       5.15157986       1.04069996    
 N    1.97416997       3.06226993       4.91940022    
 N    2.99401999       3.14811993       4.90391016    
          18
 Energy:  -80.557374300000006     
 X   0.00000000       0.00000000       0.00000000    
 X   14.5000000       0.00000000       0.00000000    
 X   0.00000000       14.5000000       0.00000000    
 X   0.00000000       0.00000000       14.5000000    
 X   14.5000000       14.5000000       0.00000000    
 X   14.5000000       0.00000000       14.5000000    
 X   0.00000000       14.5000000       14.5000000    
 X   14.5000000       14.5000000       14.5000000    
 N    14.4130602       14.4330997       14.3593998    
 N    1.01418996       14.1712103       14.2500601    
 N   0.634259999       13.9709702       2.30302000    
 N   0.427890003      0.498420000       2.39578009    
 N    2.22022009       1.79152000       14.2731400    
 N    1.89943004       2.86760998       2.85599995E-02
 N    1.99036002       5.17480993       5.97999990E-03
 N    2.03451991       5.16875982       1.07161999    
 N    1.94219995       3.06275010       4.91506004    
 N    3.02385998       3.16084003       4.89736986    
          18
 Energy:  -80.975624300000007     
 X   0.00000000       0.00000000       0.00000000    
 X   14.5000000       0.00000000       0.00000000    
 X   0.00000000       14.5000000       0.00000000    
 X   0.00000000       0.00000000       14.5000000    
 X   14.5000000       14.5000000       0.00000000    
 X   14.5000000       0.00000000       14.5000000    
 X   0.00000000       14.5000000       14.5000000    
 X   14.5000000       14.5000000       14.5000000    
 N    14.4003801       14.4303198       14.3417997    
 N    1.01148999       14.1423798       14.2260399    
 N   0.649990022       13.9382601       2.32801008    
 N   0.416099995      0.529269993       2.43088007    
 N    2.24694991       1.76260996       14.2528095    
 N    1.88392997       2.87676001       3.31799984E-02
 N    1.98878002       5.19719982       14.4763403    
 N    2.03849006       5.18639994       1.10934997    
 N    1.90618002       3.06287003       4.91079998    
 N    3.05771995       3.17392993       4.89077997    
          18
 Energy:  -79.567988900000003     
 X   0.00000000       0.00000000       0.00000000    
 X   14.5000000       0.00000000       0.00000000    
 X   0.00000000       14.5000000       0.00000000    
 X   0.00000000       0.00000000       14.5000000    
 X   14.5000000       14.5000000       0.00000000    
 X   14.5000000       0.00000000       14.5000000    
 X   0.00000000       14.5000000       14.5000000    
 X   14.5000000       14.5000000       14.5000000    
 N    14.3901596       14.4267797       14.3234701    
 N    1.00595999       14.1138496       14.2019596    
 N   0.665759981       13.9054003       2.35346007    
 N   0.404329985      0.560259998       2.46631002    
 N    2.27238989       1.73934996       14.2337599    
 N    1.86992002       2.87947989       3.62999998E-02
 N    1.98731995       5.22034979       14.4479599    
 N    2.04243994       5.20453978       1.14602005    
 N    1.87308002       3.06327009       4.90649986    
 N    3.08864999       3.18672991       4.88425016    
          18
 Energy:  -77.718184399999998     
 X   0.00000000       0.00000000       0.00000000    
 X   14.5000000       0.00000000       0.00000000    
 X   0.00000000       14.5000000       0.00000000    
 X   0.00000000       0.00000000       14.5000000    
 X   14.5000000       14.5000000       0.00000000    
 X   14.5000000       0.00000000       14.5000000    
 X   0.00000000       14.5000000       14.5000000    
 X   14.5000000       14.5000000       14.5000000    
 N    14.3831902       14.4222097       14.3043804    
 N   0.996829987       14.0859098       14.1779404    
 N   0.680440009       13.8774204       2.37981009    
 N   0.393709987      0.586369991       2.50153995    
 N    2.29584002       1.72315001       14.2164698    
 N    1.85806000       2.87443995       3.74700017E-02
 N    1.98619998       5.24408007       14.4252701    
 N    2.04618001       5.22319984       1.17718995    
 N    1.84650004       3.06434989       4.90209007    
 N    3.11304998       3.19885993       4.87785006    
          18
 Energy:  -76.294011800000007     
 X   0.00000000       0.00000000       0.00000000    
 X   14.5000000       0.00000000       0.00000000    
 X   0.00000000       14.5000000       0.00000000    
 X   0.00000000       0.00000000       14.5000000    
 X   14.5000000       14.5000000       0.00000000    
 X   14.5000000       0.00000000       14.5000000    
 X   0.00000000       14.5000000       14.5000000    
 X   14.5000000       14.5000000       14.5000000    
 N    14.3797798       14.4164495       14.2845297    
 N   0.983839989       14.0587797       14.1541100    
 N   0.693379998       13.8567400       2.40725994    
 N   0.384869993      0.605210006       2.53625989    
 N    2.31684995       1.71458995       14.2011900    
 N    1.84877002       2.86115003       3.64600010E-02
 N    1.98553002       5.26824999       14.4103498    
 N    2.04959011       5.24240017       1.20070004    
 N    1.82813001       3.06631994       4.89754009    
 N    3.12926006       3.21010995       4.87161016    
          18
 Energy:  -75.672584099999995     
 X   0.00000000       0.00000000       0.00000000    
 X   14.5000000       0.00000000       0.00000000    
 X   0.00000000       14.5000000       0.00000000    
 X   0.00000000       0.00000000       14.5000000    
 X   14.5000000       14.5000000       0.00000000    
 X   14.5000000       0.00000000       14.5000000    
 X   0.00000000       14.5000000       14.5000000    
 X   14.5000000       14.5000000       14.5000000    
 N    14.3797703       14.4094696       14.2639704    
 N   0.967159986       14.0325203       14.1304703    
 N   0.704249978       13.8444405       2.43589997    
 N   0.378160000      0.615700006       2.57030010    
 N    2.33511996       1.71379006       14.1880903    
 N    1.84233999       2.83961010       3.31499986E-02
 N    1.98536003       5.29272985       14.4041796    
 N    2.05259991       5.26211977       1.21557999    
 N    1.81870997       3.06928992       4.89280987    
 N    3.13652992       3.22034001       4.86555004    
          18
 Energy:  -75.952117700000002     
 X   0.00000000       0.00000000       0.00000000    
 X   14.5000000       0.00000000       0.00000000    
 X   0.00000000       14.5000000       0.00000000    
 X   0.00000000       0.00000000       14.5000000    
 X   14.5000000       14.5000000       0.00000000    
 X   14.5000000       0.00000000       14.5000000    
 X   0.00000000       14.5000000       14.5000000    
 X   14.5000000       14.5000000       14.5000000    
 N    14.3825397       14.4014101       14.2428198    
 N   0.947409987       14.0070400       14.1070099    
 N   0.712840021       13.8409901       2.46574998    
 N   0.373760015      0.617359996       2.60355997    
 N    2.35050011       1.72048998       14.1772003    
 N    1.83890998       2.81012011       2.74999999E-02
 N    1.98573005       5.31740999       14.4071503    
 N    2.05518007       5.28235006       1.22141004    
 N    1.81853998       3.07332993       4.88790989    
 N    3.13458991       3.22950006       4.85968018    
          18
 Energy:  -77.054623500000005     
 X   0.00000000       0.00000000       0.00000000    
 X   14.5000000       0.00000000       0.00000000    
 X   0.00000000       14.5000000       0.00000000    
 X   0.00000000       0.00000000       14.5000000    
 X   14.5000000       14.5000000       0.00000000    
 X   14.5000000       0.00000000       14.5000000    
 X   0.00000000       14.5000000       14.5000000    
 X   14.5000000       14.5000000       14.5000000    
 N    14.3870296       14.3926201       14.2212400    
 N   0.925700009       13.9820204       14.0836296    
 N   0.719039977       13.8464804       2.49681997    
 N   0.371789992      0.610109985       2.63597012    
 N    2.36299992       1.73404002       14.1684303    
 N    1.83843994       2.77341008       1.96300000E-02
 N    1.98662996       5.34219980       14.4193201    
 N    2.05731010       5.30308008       1.21812999    
 N    1.82758999       3.07848001       4.88281012    
 N    3.12346005       3.23754001       4.85401011    
          18
 Energy:  -78.727347800000004     
 X   0.00000000       0.00000000       0.00000000    
 X   14.5000000       0.00000000       0.00000000    
 X   0.00000000       14.5000000       0.00000000    
 X   0.00000000       0.00000000       14.5000000    
 X   14.5000000       14.5000000       0.00000000    
 X   14.5000000       0.00000000       14.5000000    
 X   0.00000000       14.5000000       14.5000000    
 X   14.5000000       14.5000000       14.5000000    
 N    14.3917398       14.3836298       14.1994400    
 N   0.903569996       13.9569597       14.0601501    
 N   0.722809970       13.8607502       2.52905011    
 N   0.372269988      0.594099998       2.66753006    
 N    2.37300992       1.75317001       14.1614704    
 N    1.84056997       2.73082995       9.87000018E-03
 N    1.98808002       5.36704016       14.4404402    
 N    2.05896997       5.32428980       1.20599997    
 N    1.84552002       3.08473992       4.87752008    
 N    3.10346007       3.24447989       4.84852982    
          18
 Energy:  -80.487255300000001     
 X   0.00000000       0.00000000       0.00000000    
 X   14.5000000       0.00000000       0.00000000    
 X   0.00000000       14.5000000       0.00000000    
 X   0.00000000       0.00000000       14.5000000    
 X   14.5000000       14.5000000       0.00000000    
 X   14.5000000       0.00000000       14.5000000    
 X   0.00000000       14.5000000       14.5000000    
 X   14.5000000       14.5000000       14.5000000    
 N    14.3949604       14.3751802       14.1777000    
 N   0.882780015       13.9311399       14.0363598    
 N   0.724219978       13.8832703       2.56237006    
 N   0.375129998      0.569850028       2.69825006    
 N    2.38156009       1.77549005       14.1555700    
 N    1.84423995       2.68482995       14.4989796    
 N    1.99001002       5.39187002       14.4697504    
 N    2.06017995       5.34597015       1.18575001    
 N    1.87149000       3.09204006       4.87204981    
 N    3.07542992       3.25036001       4.84322977    
          18
 Energy:  -81.584609499999999     
 X   0.00000000       0.00000000       0.00000000    
 X   14.5000000       0.00000000       0.00000000    
 X   0.00000000       14.5000000       0.00000000    
 X   0.00000000       0.00000000       14.5000000    
 X   14.5000000       14.5000000       0.00000000    
 X   14.5000000       0.00000000       14.5000000    
 X   0.00000000       14.5000000       14.5000000    
 X   14.5000000       14.5000000       14.5000000    
 N    14.3951502       14.3680000       14.1562500    
 N   0.864880025       13.9038496       14.0120602    
 N   0.723529994       13.9128504       2.59664989    
 N   0.380100012      0.538529992       2.72823000    
 N    2.39085007       1.79697001       14.1492901    
 N    1.84723997       2.63951993       14.4884100    
 N    1.99236000       5.41665983       5.59999980E-03
 N    2.06102991       5.36804008       1.15903997    
 N    1.90366006       3.10016990       4.86641979    
 N    3.04120994       3.25539994       4.83805990    
          18
 Energy:  -81.196059199999993     
 X   0.00000000       0.00000000       0.00000000    
 X   14.5000000       0.00000000       0.00000000    
 X   0.00000000       14.5000000       0.00000000    
 X   0.00000000       0.00000000       14.5000000    
 X   14.5000000       14.5000000       0.00000000    
 X   14.5000000       0.00000000       14.5000000    
 X   0.00000000       14.5000000       14.5000000    
 X   14.5000000       14.5000000       14.5000000    
 N    14.3915100       14.3625803       14.1352501    
 N   0.850709975       13.8746099       13.9871397    
 N   0.721469998       13.9469299       2.63158011    
 N   0.386469990      0.502690017       2.75771999    
 N    2.40439010       1.81217003       14.1404305    
 N    1.84605002       2.60038996       14.4803896    
 N    1.99491000       5.44150019       4.44299988E-02
 N    2.06170011       5.39037991       1.12939000    
 N    1.93808997       3.10862994       4.86075020    
 N    3.00470996       3.26011992       4.83293009    
          18
 Energy:  -79.100862599999999     
 X   0.00000000       0.00000000       0.00000000    