       N       E                     dE             d eps       ncg     rms          rms(c)
DAV:   1     0.444342306425E+03    0.44434E+03   -0.11011E+04    96   0.535E+02
DAV:   2     0.783621611957E+02   -0.36598E+03   -0.35395E+03   120   0.150E+02
DAV:   3    -0.700598710046E+02   -0.14842E+03   -0.14795E+03    84   0.112E+02
DAV:   4    -0.791746881217E+02   -0.91148E+01   -0.90202E+01    96   0.354E+01
DAV:   5    -0.792891830869E+02   -0.11449E+00   -0.11332E+00    84   0.395E+00    0.224E+01
DAV:   6    -0.733487062458E+02    0.59405E+01   -0.76712E+00    84   0.139E+01    0.137E+01
DAV:   7    -0.722024216254E+02    0.11463E+01   -0.70972E+00    96   0.132E+01    0.394E+00
DAV:   8    -0.721606970130E+02    0.41725E-01   -0.74622E-01    96   0.430E+00    0.675E-01
DAV:   9    -0.721585824855E+02    0.21145E-02   -0.28876E-02    96   0.868E-01    0.293E-01
DAV:  10    -0.721620689722E+02   -0.34865E-02   -0.28300E-03    96   0.245E-01    0.155E-01
DAV:  11    -0.721655633001E+02   -0.34943E-02   -0.15074E-03    96   0.223E-01    0.774E-02
DAV:  12    -0.721666882624E+02   -0.11250E-02   -0.12981E-04    96   0.621E-02    0.314E-02
DAV:  13    -0.721695238556E+02   -0.28356E-02   -0.32830E-04    96   0.642E-02    0.317E-02
DAV:  14    -0.721706154395E+02   -0.10916E-02   -0.18039E-04    96   0.471E-02    0.131E-02
DAV:  15    -0.721716003582E+02   -0.98492E-03   -0.72692E-05    72   0.361E-02    0.893E-03
DAV:  16    -0.721720599221E+02   -0.45956E-03   -0.22681E-05    96   0.172E-02    0.490E-03
DAV:  17    -0.721723416737E+02   -0.28175E-03   -0.11769E-05    84   0.138E-02    0.394E-03
DAV:  18    -0.721724626576E+02   -0.12098E-03   -0.38123E-06    72   0.776E-03    0.159E-03
DAV:  19    -0.721725560087E+02   -0.93351E-04   -0.31004E-06    72   0.756E-03    0.846E-04
DAV:  20    -0.721725744345E+02   -0.18426E-04   -0.70109E-07    72   0.347E-03    0.770E-04
DAV:  21    -0.721725901960E+02   -0.15761E-04   -0.36435E-07    72   0.307E-03    0.522E-04
DAV:  22    -0.721725937681E+02   -0.35721E-05   -0.12053E-07    72   0.152E-03
    1 T=  1245. E= -.70724268E+02 F= -.72172594E+02 E0= -.72172594E+02  EK= 0.14483E+01 SP= 0.00E+00 SK= 0.00E+00
       N       E                     dE             d eps       ncg     rms          rms(c)
DAV:   1    -0.758165913057E+02   -0.36440E+01   -0.22536E+01    72   0.275E+01    0.202E+00
DAV:   2    -0.757517813470E+02    0.64810E-01   -0.55510E-01    96   0.376E+00    0.133E+00
DAV:   3    -0.757378298178E+02    0.13952E-01   -0.51862E-02    96   0.116E+00    0.915E-01
DAV:   4    -0.757416523045E+02   -0.38225E-02   -0.74538E-03    96   0.480E-01    0.312E-01
DAV:   5    -0.757431855230E+02   -0.15332E-02   -0.19278E-03    96   0.245E-01    0.374E-02
DAV:   6    -0.757432553383E+02   -0.69815E-04   -0.10117E-04    96   0.544E-02    0.269E-02
DAV:   7    -0.757433249072E+02   -0.69569E-04   -0.18985E-05    96   0.217E-02    0.873E-03
DAV:   8    -0.757433848681E+02   -0.59961E-04   -0.36180E-06    72   0.110E-02    0.576E-03
DAV:   9    -0.757434314764E+02   -0.46608E-04   -0.36219E-06    72   0.971E-03    0.235E-03
DAV:  10    -0.757434795401E+02   -0.48064E-04   -0.16573E-06    72   0.560E-03    0.221E-03
DAV:  11    -0.757435359471E+02   -0.56407E-04   -0.21417E-06    60   0.569E-03    0.215E-03
DAV:  12    -0.757435693891E+02   -0.33442E-04   -0.11114E-06    60   0.443E-03    0.112E-03
DAV:  13    -0.757435847109E+02   -0.15322E-04   -0.34219E-07    60   0.278E-03    0.666E-04
DAV:  14    -0.757435949241E+02   -0.10213E-04   -0.18234E-07    60   0.217E-03    0.513E-04
DAV:  15    -0.757435975479E+02   -0.26238E-05   -0.61813E-08    60   0.137E-03
    2 T=  4043. E= -.71039697E+02 F= -.75743598E+02 E0= -.75743598E+02  EK= 0.47039E+01 SP= 0.00E+00 SK= 0.00E+00
       N       E                     dE             d eps       ncg     rms          rms(c)
DAV:   1    -0.778229017634E+02   -0.20793E+01   -0.41647E+00    72   0.149E+01    0.100E+00
DAV:   2    -0.778709932701E+02   -0.48092E-01   -0.59489E-01    96   0.367E+00    0.785E-01
DAV:   3    -0.778711362005E+02   -0.14293E-03   -0.50976E-03    96   0.378E-01    0.696E-01
DAV:   4    -0.778725214554E+02   -0.13853E-02   -0.19203E-03    72   0.288E-01    0.468E-02
DAV:   5    -0.778726057257E+02   -0.84270E-04   -0.26495E-04    96   0.887E-02    0.333E-02
DAV:   6    -0.778726104297E+02   -0.47041E-05   -0.76941E-06    60   0.194E-02
    3 T=  5847. E= -.71071004E+02 F= -.77872610E+02 E0= -.77872610E+02  EK= 0.68016E+01 SP= 0.00E+00 SK= 0.00E+00
       N       E                     dE             d eps       ncg     rms          rms(c)
DAV:   1    -0.773597304062E+02    0.51288E+00   -0.48554E-01    96   0.984E+00    0.837E-01
DAV:   2    -0.773734038843E+02   -0.13673E-01   -0.20320E-01    96   0.271E+00    0.335E-01
DAV:   3    -0.773732642983E+02    0.13959E-03   -0.24568E-03    96   0.247E-01    0.200E-01
DAV:   4    -0.773733430240E+02   -0.78726E-04   -0.46898E-04    72   0.130E-01    0.493E-02
DAV:   5    -0.773733623731E+02   -0.19349E-04   -0.74714E-05    84   0.515E-02    0.180E-02
DAV:   6    -0.773733648188E+02   -0.24458E-05   -0.58333E-06    48   0.178E-02
    4 T=  5520. E= -.70951743E+02 F= -.77373365E+02 E0= -.77373365E+02  EK= 0.64216E+01 SP= 0.00E+00 SK= 0.00E+00
       N       E                     dE             d eps       ncg     rms          rms(c)
DAV:   1    -0.755832908351E+02    0.17901E+01   -0.23564E-01   120   0.767E+00    0.565E-01
DAV:   2    -0.755921103274E+02   -0.88195E-02   -0.96583E-02    72   0.176E+00    0.405E-01
DAV:   3    -0.755919244196E+02    0.18591E-03   -0.70690E-04    96   0.139E-01    0.248E-01
DAV:   4    -0.755921650406E+02   -0.24062E-03   -0.24584E-04    72   0.963E-02    0.378E-02
DAV:   5    -0.755921433823E+02    0.21658E-04   -0.67665E-05    72   0.535E-02    0.128E-02
DAV:   6    -0.755921465704E+02   -0.31881E-05   -0.11409E-05    48   0.201E-02
    5 T=  4066. E= -.70861636E+02 F= -.75592147E+02 E0= -.75592147E+02  EK= 0.47305E+01 SP= 0.00E+00 SK= 0.00E+00
       N       E                     dE             d eps       ncg     rms          rms(c)
DAV:   1    -0.737965235267E+02    0.17956E+01   -0.30121E-01    96   0.699E+00    0.422E-01
DAV:   2    -0.738042940947E+02   -0.77706E-02   -0.10750E-01    72   0.181E+00    0.362E-01
DAV:   3    -0.738039589835E+02    0.33511E-03   -0.14689E-03    84   0.179E-01    0.264E-01
DAV:   4    -0.738039586505E+02    0.33301E-06   -0.41792E-04    72   0.116E-01    0.720E-02
DAV:   5    -0.738039752367E+02   -0.16586E-04   -0.12706E-04    84   0.602E-02    0.201E-02
DAV:   6    -0.738039812121E+02   -0.59754E-05   -0.12809E-05    72   0.203E-02    0.101E-02
DAV:   7    -0.738039917106E+02   -0.10498E-04   -0.35302E-06    48   0.115E-02    0.502E-03
DAV:   8    -0.738040021376E+02   -0.10427E-04   -0.17045E-06    48   0.769E-03    0.211E-03
DAV:   9    -0.738040070974E+02   -0.49598E-05   -0.40816E-07    48   0.325E-03
    6 T=  2566. E= -.70819329E+02 F= -.73804007E+02 E0= -.73804007E+02  EK= 0.29847E+01 SP= 0.00E+00 SK= 0.00E+00
       N       E                     dE             d eps       ncg     rms          rms(c)
DAV:   1    -0.726651918797E+02    0.11388E+01   -0.19723E-01    72   0.524E+00    0.440E-01
DAV:   2    -0.726691136466E+02   -0.39218E-02   -0.54912E-02    72   0.133E+00    0.240E-01
DAV:   3    -0.726689142563E+02    0.19939E-03   -0.98584E-04    84   0.163E-01    0.135E-01
DAV:   4    -0.726690169302E+02   -0.10267E-03   -0.27856E-04    72   0.996E-02    0.426E-02
DAV:   5    -0.726690139663E+02    0.29639E-05   -0.79310E-05    72   0.546E-02    0.117E-02
DAV:   6    -0.726690279120E+02   -0.13946E-04   -0.96781E-06    60   0.178E-02    0.548E-03
DAV:   7    -0.726690403584E+02   -0.12446E-04   -0.15080E-06    60   0.768E-03    0.257E-03
DAV:   8    -0.726690561781E+02   -0.15820E-04   -0.78215E-07    48   0.465E-03    0.136E-03
DAV:   9    -0.726690655660E+02   -0.93880E-05   -0.20725E-07    60   0.253E-03    0.806E-04
DAV:  10    -0.726690810730E+02   -0.15507E-04   -0.17975E-07    48   0.227E-03    0.551E-04
DAV:  11    -0.726691019118E+02   -0.20839E-04   -0.28620E-07    48   0.264E-03    0.500E-04
DAV:  12    -0.726691094175E+02   -0.75058E-05   -0.12898E-07    60   0.164E-03    0.440E-04
DAV:  13    -0.726691120365E+02   -0.26189E-05   -0.61658E-08    48   0.989E-04
    7 T=  1604. E= -.70803264E+02 F= -.72669112E+02 E0= -.72669112E+02  EK= 0.18658E+01 SP= 0.00E+00 SK= 0.00E+00
       N       E                     dE             d eps       ncg     rms          rms(c)
DAV:   1    -0.724504410313E+02    0.21867E+00   -0.10663E-01    72   0.385E+00    0.277E-01
DAV:   2    -0.724523696249E+02   -0.19286E-02   -0.24679E-02    72   0.947E-01    0.138E-01
DAV:   3    -0.724523312277E+02    0.38397E-04   -0.39959E-04    84   0.109E-01    0.760E-02
DAV:   4    -0.724524265846E+02   -0.95357E-04   -0.11831E-04    72   0.658E-02    0.307E-02
DAV:   5    -0.724524316442E+02   -0.50596E-05   -0.40619E-05    72   0.370E-02    0.744E-03
DAV:   6    -0.724524398197E+02   -0.81755E-05   -0.58785E-06    48   0.134E-02    0.436E-03
DAV:   7    -0.724524470482E+02   -0.72285E-05   -0.97625E-07    48   0.601E-03    0.219E-03
DAV:   8    -0.724524549024E+02   -0.78542E-05   -0.47665E-07    48   0.355E-03    0.119E-03
DAV:   9    -0.724524615105E+02   -0.66082E-05   -0.16628E-07    48   0.201E-03    0.520E-04
DAV:  10    -0.724524660135E+02   -0.45030E-05   -0.67028E-08    48   0.118E-03
    8 T=  1420. E= -.70800293E+02 F= -.72452466E+02 E0= -.72452466E+02  EK= 0.16522E+01 SP= 0.00E+00 SK= 0.00E+00
       N       E                     dE             d eps       ncg     rms          rms(c)
DAV:   1    -0.732023562255E+02   -0.74989E+00   -0.59286E-02    72   0.362E+00    0.134E-01
DAV:   2    -0.732038323421E+02   -0.14761E-02   -0.16061E-02    72   0.787E-01    0.764E-02
DAV:   3    -0.732038030950E+02    0.29247E-04   -0.12925E-04    84   0.683E-02    0.483E-02
DAV:   4    -0.732038490101E+02   -0.45915E-04   -0.23344E-05    72   0.333E-02    0.284E-02
DAV:   5    -0.732038758295E+02   -0.26819E-04   -0.14273E-05    60   0.259E-02    0.665E-03
DAV:   6    -0.732038790393E+02   -0.32098E-05   -0.31292E-06    60   0.105E-02
    9 T=  2060. E= -.70807272E+02 F= -.73203879E+02 E0= -.73203879E+02  EK= 0.23966E+01 SP= 0.00E+00 SK= 0.00E+00
       N       E                     dE             d eps       ncg     rms          rms(c)
DAV:   1    -0.748060311030E+02   -0.16022E+01   -0.75260E-02    72   0.489E+00    0.159E-01
DAV:   2    -0.748085941913E+02   -0.25631E-02   -0.27251E-02    72   0.100E+00    0.102E-01
DAV:   3    -0.748084927019E+02    0.10149E-03   -0.20854E-04    84   0.852E-02    0.710E-02
DAV:   4    -0.748085510314E+02   -0.58329E-04   -0.45267E-05    72   0.440E-02    0.446E-02
DAV:   5    -0.748086102427E+02   -0.59211E-04   -0.50442E-05    72   0.411E-02    0.115E-02
DAV:   6    -0.748086152277E+02   -0.49850E-05   -0.91549E-06    48   0.164E-02
   10 T=  3422. E= -.70827617E+02 F= -.74808615E+02 E0= -.74808615E+02  EK= 0.39810E+01 SP= 0.00E+00 SK= 0.00E+00
       N       E                     dE             d eps       ncg     rms          rms(c)
DAV:   1    -0.769344746806E+02   -0.21259E+01   -0.14130E-01    72   0.676E+00    0.287E-01
DAV:   2    -0.769400529713E+02   -0.55783E-02   -0.60902E-02    72   0.145E+00    0.175E-01
DAV:   3    -0.769397780136E+02    0.27496E-03   -0.57199E-04    84   0.139E-01    0.121E-01
DAV:   4    -0.769399329491E+02   -0.15494E-03   -0.21370E-04    72   0.944E-02    0.541E-02
DAV:   5    -0.769399980032E+02   -0.65054E-04   -0.10963E-04    72   0.577E-02    0.139E-02
DAV:   6    -0.769400043128E+02   -0.63096E-05   -0.17356E-05    84   0.202E-02    0.815E-03
DAV:   7    -0.769400103183E+02   -0.60054E-05   -0.26879E-06    48   0.101E-02    0.359E-03
DAV:   8    -0.769400166551E+02   -0.63369E-05   -0.59125E-07    48   0.453E-03    0.979E-04
DAV:   9    -0.769400196001E+02   -0.29450E-05   -0.10491E-07    60   0.172E-03
   11 T=  5217. E= -.70870847E+02 F= -.76940020E+02 E0= -.76940020E+02  EK= 0.60692E+01 SP= 0.00E+00 SK= 0.00E+00
       N       E                     dE             d eps       ncg     rms          rms(c)
DAV:   1    -0.789336548228E+02   -0.19936E+01   -0.24426E-01    72   0.849E+00    0.395E-01
DAV:   2    -0.789433512687E+02   -0.96964E-02   -0.10867E-01    72   0.190E+00    0.277E-01
DAV:   3    -0.789427115068E+02    0.63976E-03   -0.11387E-03    96   0.197E-01    0.202E-01
DAV:   4    -0.789429934022E+02   -0.28190E-03   -0.64557E-04    72   0.170E-01    0.594E-02
DAV:   5    -0.789430572886E+02   -0.63886E-04   -0.16774E-04    72   0.737E-02    0.173E-02
DAV:   6    -0.789430567927E+02    0.49590E-06   -0.15437E-05    72   0.234E-02
   12 T=  6875. E= -.70944994E+02 F= -.78943057E+02 E0= -.78943057E+02  EK= 0.79981E+01 SP= 0.00E+00 SK= 0.00E+00
       N       E                     dE             d eps       ncg     rms          rms(c)
DAV:   1    -0.797860340318E+02   -0.84298E+00   -0.40151E-01    84   0.998E+00    0.413E-01
DAV:   2    -0.797990869023E+02   -0.13053E-01   -0.14892E-01    72   0.217E+00    0.383E-01
DAV:   3    -0.797979331380E+02    0.11538E-02   -0.14619E-03    96   0.213E-01    0.300E-01
DAV:   4    -0.797984522569E+02   -0.51912E-03   -0.15061E-03    72   0.252E-01    0.680E-02
DAV:   5    -0.797985511247E+02   -0.98868E-04   -0.27014E-04    72   0.907E-02    0.190E-02
DAV:   6    -0.797985491512E+02    0.19735E-05   -0.19061E-05    96   0.307E-02
   13 T=  7541. E= -.71025790E+02 F= -.79798549E+02 E0= -.79798549E+02  EK= 0.87728E+01 SP= 0.00E+00 SK= 0.00E+00
       N       E                     dE             d eps       ncg     rms          rms(c)
DAV:   1    -0.786083078624E+02    0.11902E+01   -0.52906E-01    72   0.101E+01    0.443E-01
DAV:   2    -0.786232274530E+02   -0.14920E-01   -0.16828E-01    72   0.233E+00    0.488E-01
DAV:   3    -0.786216129454E+02    0.16145E-02   -0.16852E-03    96   0.217E-01    0.411E-01
DAV:   4    -0.786224537809E+02   -0.84084E-03   -0.14412E-03    96   0.214E-01    0.117E-01
DAV:   5    -0.786226324257E+02   -0.17864E-03   -0.29606E-04    96   0.952E-02    0.245E-02
DAV:   6    -0.786226391616E+02   -0.67359E-05   -0.28682E-05    96   0.285E-02    0.105E-02
DAV:   7    -0.786226461744E+02   -0.70127E-05   -0.23351E-06    72   0.844E-03    0.423E-03
DAV:   8    -0.786226502513E+02   -0.40769E-05   -0.46389E-07    60   0.359E-03
   14 T=  6536. E= -.71018906E+02 F= -.78622650E+02 E0= -.78622650E+02  EK= 0.76037E+01 SP= 0.00E+00 SK= 0.00E+00
       N       E                     dE             d eps       ncg     rms          rms(c)
DAV:   1    -0.760641488229E+02    0.25585E+01   -0.13395E+00    96   0.112E+01    0.918E-01
DAV:   2    -0.760815405080E+02   -0.17392E-01   -0.25741E-01    96   0.292E+00    0.649E-01
DAV:   3    -0.760794960082E+02    0.20445E-02   -0.39308E-03    96   0.361E-01    0.445E-01
DAV:   4    -0.760808573172E+02   -0.13613E-02   -0.28123E-03    96   0.314E-01    0.733E-02
DAV:   5    -0.760808947196E+02   -0.37402E-04   -0.22987E-04    96   0.799E-02    0.174E-02
DAV:   6    -0.760809060453E+02   -0.11326E-04   -0.17711E-05    96   0.229E-02    0.949E-03
DAV:   7    -0.760809240219E+02   -0.17977E-04   -0.20324E-06    72   0.750E-03    0.318E-03
DAV:   8    -0.760809423566E+02   -0.18335E-04   -0.50587E-07    72   0.374E-03    0.108E-03
DAV:   9    -0.760809549105E+02   -0.12554E-04   -0.16923E-07    72   0.255E-03    0.696E-04
DAV:  10    -0.760809767828E+02   -0.21872E-04   -0.28324E-07    72   0.459E-03    0.611E-04
DAV:  11    -0.760809856369E+02   -0.88541E-05   -0.26387E-07    72   0.285E-03    0.591E-04
DAV:  12    -0.760809881685E+02   -0.25316E-05   -0.64243E-08    72   0.116E-03
   15 T=  4515. E= -.70828607E+02 F= -.76080988E+02 E0= -.76080988E+02  EK= 0.52524E+01 SP= 0.00E+00 SK= 0.00E+00
       N       E                     dE             d eps       ncg     rms          rms(c)
DAV:   1    -0.752303997632E+02    0.85059E+00   -0.21056E+00    96   0.110E+01    0.121E+00
DAV:   2    -0.752318054882E+02   -0.14057E-02   -0.20852E-01    96   0.269E+00    0.563E-01
DAV:   3    -0.752297910995E+02    0.20144E-02   -0.17827E-02    96   0.853E-01    0.240E-01
DAV:   4    -0.752302608078E+02   -0.46971E-03   -0.12895E-03    96   0.220E-01    0.108E-01
DAV:   5    -0.752303824067E+02   -0.12160E-03   -0.63552E-05   108   0.546E-02    0.191E-02
DAV:   6    -0.752303852344E+02   -0.28277E-05   -0.27767E-05    96   0.302E-02
   16 T=  3896. E= -.70698402E+02 F= -.75230385E+02 E0= -.75230385E+02  EK= 0.45320E+01 SP= 0.00E+00 SK= 0.00E+00
       N       E                     dE             d eps       ncg     rms          rms(c)
DAV:   1    -0.777504905543E+02   -0.25201E+01   -0.14601E+00    96   0.993E+00    0.112E+00
DAV:   2    -0.777592223786E+02   -0.87318E-02   -0.20437E-01    96   0.254E+00    0.439E-01
DAV:   3    -0.777575612281E+02    0.16612E-02   -0.10918E-02    96   0.650E-01    0.183E-01
DAV:   4    -0.777578794140E+02   -0.31819E-03   -0.13952E-03    96   0.230E-01    0.657E-02
DAV:   5    -0.777579975166E+02   -0.11810E-03   -0.61042E-05    96   0.458E-02    0.191E-02
DAV:   6    -0.777580093463E+02   -0.11830E-04   -0.64809E-06    72   0.153E-02    0.770E-03
DAV:   7    -0.777580162250E+02   -0.68787E-05   -0.34057E-06    72   0.103E-02    0.324E-03
DAV:   8    -0.777580244778E+02   -0.82528E-05   -0.70338E-07    60   0.539E-03    0.101E-03
DAV:   9    -0.777580321945E+02   -0.77167E-05   -0.31143E-07    60   0.397E-03    0.749E-04
DAV:  10    -0.777580439756E+02   -0.11781E-04   -0.44988E-07    60   0.436E-03    0.624E-04
DAV:  11    -0.777580483140E+02   -0.43384E-05   -0.18299E-07    60   0.201E-03
   17 T=  5876. E= -.70922601E+02 F= -.77758048E+02 E0= -.77758048E+02  EK= 0.68354E+01 SP= 0.00E+00 SK= 0.00E+00
       N       E                     dE             d eps       ncg     rms          rms(c)
DAV:   1    -0.805381581607E+02   -0.27801E+01   -0.87491E-01    72   0.107E+01    0.829E-01
DAV:   2    -0.805571442242E+02   -0.18986E-01   -0.26202E-01    96   0.292E+00    0.524E-01
DAV:   3    -0.805566462649E+02    0.49796E-03   -0.31806E-03    96   0.325E-01    0.394E-01
DAV:   4    -0.805573100069E+02   -0.66374E-03   -0.19570E-03    72   0.278E-01    0.800E-02
DAV:   5    -0.805573723893E+02   -0.62382E-04   -0.17196E-04    96   0.757E-02    0.215E-02
DAV:   6    -0.805573743839E+02   -0.19946E-05   -0.15204E-05    72   0.278E-02
   18 T=  8150. E= -.71076072E+02 F= -.80557374E+02 E0= -.80557374E+02  EK= 0.94813E+01 SP= 0.00E+00 SK= 0.00E+00
       N       E                     dE             d eps       ncg     rms          rms(c)
DAV:   1    -0.809527510798E+02   -0.39538E+00   -0.88041E-01    96   0.114E+01    0.903E-01
DAV:   2    -0.809748897152E+02   -0.22139E-01   -0.31649E-01    84   0.321E+00    0.589E-01
DAV:   3    -0.809746699946E+02    0.21972E-03   -0.27272E-03    96   0.273E-01    0.447E-01
DAV:   4    -0.809756332207E+02   -0.96323E-03   -0.17418E-03    72   0.266E-01    0.411E-02
DAV:   5    -0.809756262458E+02    0.69749E-05   -0.20464E-04    72   0.865E-02    0.222E-02
DAV:   6    -0.809756243362E+02    0.19096E-05   -0.35397E-05    72   0.387E-02
   19 T=  8576. E= -.70999331E+02 F= -.80975624E+02 E0= -.80975624E+02  EK= 0.99763E+01 SP= 0.00E+00 SK= 0.00E+00
       N       E                     dE             d eps       ncg     rms          rms(c)
DAV:   1    -0.795466697924E+02    0.14290E+01   -0.91631E-01    72   0.109E+01    0.980E-01
DAV:   2    -0.795673646886E+02   -0.20695E-01   -0.28026E-01    84   0.307E+00    0.334E-01
DAV:   3    -0.795672813330E+02    0.83356E-04   -0.25971E-03    84   0.255E-01    0.197E-01
DAV:   4    -0.795679418180E+02   -0.66048E-03   -0.77472E-04    72   0.161E-01    0.507E-02
DAV:   5    -0.795679483696E+02   -0.65516E-05   -0.11033E-04    72   0.653E-02    0.203E-02
DAV:   6    -0.795679554848E+02   -0.71152E-05   -0.16726E-05    72   0.233E-02    0.105E-02
DAV:   7    -0.795679632374E+02   -0.77526E-05   -0.45379E-06    48   0.127E-02    0.493E-03
DAV:   8    -0.795679695486E+02   -0.63112E-05   -0.82626E-07    48   0.550E-03    0.180E-03
DAV:   9    -0.795679746604E+02   -0.51118E-05   -0.21623E-07    48   0.233E-03    0.886E-04
DAV:  10    -0.795679805953E+02   -0.59349E-05   -0.91765E-08    48   0.149E-03    0.409E-04
DAV:  11    -0.795679856399E+02   -0.50446E-05   -0.65783E-08    48   0.109E-03    0.474E-04
DAV:  12    -0.795679889032E+02   -0.32633E-05   -0.40833E-08    48   0.920E-04
   20 T=  7456. E= -.70893731E+02 F= -.79567989E+02 E0= -.79567989E+02  EK= 0.86743E+01 SP= 0.00E+00 SK= 0.00E+00
       N       E                     dE             d eps       ncg     rms          rms(c)
DAV:   1    -0.776990574868E+02    0.18689E+01   -0.57114E-01    84   0.903E+00    0.471E-01
DAV:   2    -0.777180086531E+02   -0.18951E-01   -0.21274E-01    72   0.252E+00    0.521E-01
DAV:   3    -0.777169428715E+02    0.10658E-02   -0.17023E-03    84   0.199E-01    0.435E-01
DAV:   4    -0.777181678194E+02   -0.12249E-02   -0.10270E-03    72   0.201E-01    0.932E-02
DAV:   5    -0.777181866175E+02   -0.18798E-04   -0.30733E-04    72   0.108E-01    0.326E-02
DAV:   6    -0.777181844732E+02    0.21443E-05   -0.41051E-05    72   0.366E-02
   21 T=  5916. E= -.70835376E+02 F= -.77718184E+02 E0= -.77718184E+02  EK= 0.68828E+01 SP= 0.00E+00 SK= 0.00E+00
       N       E                     dE             d eps       ncg     rms          rms(c)
DAV:   1    -0.762812507529E+02    0.14369E+01   -0.42369E-01    72   0.776E+00    0.537E-01
DAV:   2    -0.762938173534E+02   -0.12567E-01   -0.15232E-01    72   0.220E+00    0.345E-01
DAV:   3    -0.762934738139E+02    0.34354E-03   -0.16029E-03    84   0.201E-01    0.230E-01
DAV:   4    -0.762939331301E+02   -0.45932E-03   -0.43362E-04    72   0.138E-01    0.111E-01
DAV:   5    -0.762938948909E+02    0.38239E-04   -0.22792E-04    72   0.973E-02    0.197E-02
DAV:   6    -0.762939217874E+02   -0.26896E-04   -0.49863E-05    72   0.310E-02    0.124E-02
DAV:   7    -0.762939283442E+02   -0.65569E-05   -0.10805E-06    60   0.603E-03    0.918E-03
DAV:   8    -0.762939545224E+02   -0.26178E-04   -0.27999E-06    48   0.944E-03    0.264E-03
DAV:   9    -0.762939643242E+02   -0.98018E-05   -0.87026E-07    60   0.480E-03    0.909E-04
DAV:  10    -0.762939742871E+02   -0.99629E-05   -0.17673E-07    48   0.211E-03    0.595E-04
DAV:  11    -0.762939946132E+02   -0.20326E-04   -0.17253E-07    48   0.229E-03    0.455E-04
DAV:  12    -0.762940101219E+02   -0.15509E-04   -0.17369E-07    48   0.211E-03    0.498E-04
DAV:  13    -0.762940118315E+02   -0.17095E-05   -0.46375E-08    60   0.107E-03
   22 T=  4713. E= -.70811364E+02 F= -.76294012E+02 E0= -.76294012E+02  EK= 0.54826E+01 SP= 0.00E+00 SK= 0.00E+00
       N       E                     dE             d eps       ncg     rms          rms(c)
DAV:   1    -0.756647822731E+02    0.62923E+00   -0.24966E-01    72   0.636E+00    0.423E-01
DAV:   2    -0.756723741541E+02   -0.75919E-02   -0.87382E-02    72   0.179E+00    0.219E-01
DAV:   3    -0.756721869413E+02    0.18721E-03   -0.96953E-04    84   0.190E-01    0.137E-01
DAV:   4    -0.756723595848E+02   -0.17264E-03   -0.19803E-04    72   0.953E-02    0.874E-02
DAV:   5    -0.756725133816E+02   -0.15380E-03   -0.13549E-04    72   0.727E-02    0.124E-02
DAV:   6    -0.756725310184E+02   -0.17637E-04   -0.31059E-05    84   0.273E-02    0.881E-03
DAV:   7    -0.756725365953E+02   -0.55769E-05   -0.89891E-07    48   0.555E-03    0.611E-03
DAV:   8    -0.756725497259E+02   -0.13131E-04   -0.12573E-06    48   0.579E-03    0.266E-03
DAV:   9    -0.756725607261E+02   -0.11000E-04   -0.50987E-07    48   0.363E-03    0.618E-04
DAV:  10    -0.756725669405E+02   -0.62144E-05   -0.13964E-07    48   0.176E-03    0.464E-04
DAV:  11    -0.756725775828E+02   -0.10642E-04   -0.15188E-07    48   0.177E-03    0.444E-04
DAV:  12    -0.756725831985E+02   -0.56157E-05   -0.12637E-07    48   0.153E-03    0.354E-04
DAV:  13    -0.756725841410E+02   -0.94258E-06   -0.47208E-08    60   0.927E-04
   23 T=  4184. E= -.70805523E+02 F= -.75672584E+02 E0= -.75672584E+02  EK= 0.48671E+01 SP= 0.00E+00 SK= 0.00E+00
       N       E                     dE             d eps       ncg     rms          rms(c)
DAV:   1    -0.759465013335E+02   -0.27392E+00   -0.16631E-01    72   0.569E+00    0.285E-01
DAV:   2    -0.759520195205E+02   -0.55182E-02   -0.60572E-02    72   0.149E+00    0.165E-01
DAV:   3    -0.759517983024E+02    0.22122E-03   -0.59182E-04    72   0.159E-01    0.101E-01
DAV:   4    -0.759518883377E+02   -0.90035E-04   -0.85569E-05    72   0.559E-02    0.696E-02
DAV:   5    -0.759521046196E+02   -0.21628E-03   -0.72176E-05    72   0.483E-02    0.143E-02
DAV:   6    -0.759521128336E+02   -0.82140E-05   -0.16751E-05    72   0.190E-02    0.700E-03
DAV:   7    -0.759521177620E+02   -0.49284E-05   -0.14132E-06    48   0.605E-03
   24 T=  4420. E= -.70810310E+02 F= -.75952118E+02 E0= -.75952118E+02  EK= 0.51418E+01 SP= 0.00E+00 SK= 0.00E+00
       N       E                     dE             d eps       ncg     rms          rms(c)
DAV:   1    -0.770488404097E+02   -0.10967E+01   -0.14448E-01    72   0.599E+00    0.240E-01
DAV:   2    -0.770546166160E+02   -0.57762E-02   -0.61553E-02    72   0.144E+00    0.168E-01
DAV:   3    -0.770543074811E+02    0.30913E-03   -0.47684E-04    84   0.139E-01    0.111E-01
DAV:   4    -0.770543504720E+02   -0.42991E-04   -0.74291E-05    72   0.459E-02    0.853E-02
DAV:   5    -0.770545860552E+02   -0.23558E-03   -0.96097E-05    72   0.542E-02    0.229E-02
DAV:   6    -0.770546041147E+02   -0.18059E-04   -0.25799E-05    84   0.255E-02    0.851E-03
DAV:   7    -0.770546117309E+02   -0.76163E-05   -0.22163E-06    48   0.780E-03    0.395E-03
DAV:   8    -0.770546197795E+02   -0.80485E-05   -0.79506E-07    48   0.474E-03    0.141E-03
DAV:   9    -0.770546235837E+02   -0.38042E-05   -0.11293E-07    60   0.186E-03
   25 T=  5354. E= -.70826300E+02 F= -.77054624E+02 E0= -.77054624E+02  EK= 0.62283E+01 SP= 0.00E+00 SK= 0.00E+00
       N       E                     dE             d eps       ncg     rms          rms(c)
DAV:   1    -0.787194295268E+02   -0.16648E+01   -0.19021E-01    72   0.718E+00    0.313E-01
DAV:   2    -0.787274382711E+02   -0.80087E-02   -0.86489E-02    72   0.170E+00    0.213E-01
DAV:   3    -0.787269689799E+02    0.46929E-03   -0.68538E-04    72   0.163E-01    0.149E-01
DAV:   4    -0.787270737950E+02   -0.10482E-03   -0.13216E-04    72   0.673E-02    0.103E-01
DAV:   5    -0.787273359216E+02   -0.26213E-03   -0.18969E-04    72   0.793E-02    0.225E-02
DAV:   6    -0.787273457003E+02   -0.97788E-05   -0.29729E-05    72   0.302E-02    0.106E-02
DAV:   7    -0.787273478757E+02   -0.21753E-05   -0.24601E-06    60   0.973E-03
   26 T=  6764. E= -.70858095E+02 F= -.78727348E+02 E0= -.78727348E+02  EK= 0.78693E+01 SP= 0.00E+00 SK= 0.00E+00
       N       E                     dE             d eps       ncg     rms          rms(c)
DAV:   1    -0.804757287409E+02   -0.17484E+01   -0.30949E-01    72   0.860E+00    0.407E-01
DAV:   2    -0.804874264340E+02   -0.11698E-01   -0.12862E-01    72   0.203E+00    0.292E-01
DAV:   3    -0.804866618477E+02    0.76459E-03   -0.11044E-03    96   0.196E-01    0.214E-01
DAV:   4    -0.804870086955E+02   -0.34685E-03   -0.42225E-04    72   0.122E-01    0.106E-01
DAV:   5    -0.804872441579E+02   -0.23546E-03   -0.23160E-04    72   0.888E-02    0.220E-02
DAV:   6    -0.804872518101E+02   -0.76522E-05   -0.25327E-05    72   0.294E-02    0.125E-02
DAV:   7    -0.804872553359E+02   -0.35257E-05   -0.38691E-06    48   0.122E-02
   27 T=  8231. E= -.70911436E+02 F= -.80487255E+02 E0= -.80487255E+02  EK= 0.95758E+01 SP= 0.00E+00 SK= 0.00E+00
       N       E                     dE             d eps       ncg     rms          rms(c)
DAV:   1    -0.815692776982E+02   -0.10820E+01   -0.52630E-01    72   0.990E+00    0.522E-01
DAV:   2    -0.815850863017E+02   -0.15809E-01   -0.17652E-01    72   0.235E+00    0.399E-01
DAV:   3    -0.815839206003E+02    0.11657E-02   -0.16607E-03    96   0.228E-01    0.295E-01
DAV:   4    -0.815844944798E+02   -0.57388E-03   -0.14877E-03    72   0.221E-01    0.860E-02
DAV:   5    -0.815846099150E+02   -0.11544E-03   -0.17699E-04    84   0.749E-02    0.212E-02
DAV:   6    -0.815846095061E+02    0.40890E-06   -0.20487E-05    72   0.288E-02
   28 T=  9117. E= -.70978301E+02 F= -.81584610E+02 E0= -.81584610E+02  EK= 0.10606E+02 SP= 0.00E+00 SK= 0.00E+00
       N       E                     dE             d eps       ncg     rms          rms(c)
DAV:   1    -0.811809641985E+02    0.40365E+00   -0.80073E-01    72   0.106E+01    0.602E-01
DAV:   2    -0.811968122587E+02   -0.15848E-01   -0.18898E-01    72   0.243E+00    0.444E-01
DAV:   3    -0.811953029978E+02    0.15093E-02   -0.25712E-03    96   0.274E-01    0.329E-01
DAV:   4    -0.811958694084E+02   -0.56641E-03   -0.15932E-03    72   0.218E-01    0.103E-01
DAV:   5    -0.811960545644E+02   -0.18516E-03   -0.21213E-04    84   0.813E-02    0.183E-02
DAV:   6    -0.811960591963E+02   -0.46319E-05   -0.17900E-05    84   0.245E-02
   29 T=  8746. E= -.71021403E+02 F= -.81196059E+02 E0= -.81196059E+02  EK= 0.10175E+02 SP= 0.00E+00 SK= 0.00E+00
       N       E                     dE             d eps       ncg     rms          rms(c)
DAV:   1    -0.790830831883E+02    0.21130E+01   -0.11813E+00    72   0.109E+01    0.632E-01
DAV:   2    -0.791012068718E+02   -0.18124E-01   -0.21972E-01    84   0.267E+00    0.661E-01
DAV:   3    -0.790984275717E+02    0.27793E-02   -0.18745E-03    96   0.234E-01    0.554E-01
DAV:   4    -0.791006313147E+02   -0.22037E-02   -0.31108E-03    72   0.284E-01    0.102E-01
DAV:   5    -0.791007941071E+02   -0.16279E-03   -0.19880E-04    84   0.755E-02    0.238E-02
DAV:   6    -0.791008106083E+02   -0.16501E-04   -0.20927E-05    72   0.229E-02    0.969E-03
DAV:   7    -0.791008257139E+02   -0.15106E-04   -0.23788E-06    48   0.772E-03    0.332E-03
DAV:   8    -0.791008382415E+02   -0.12528E-04   -0.43633E-07    60   0.333E-03    0.776E-04
DAV:   9    -0.791008462593E+02   -0.80178E-05   -0.14303E-07    48   0.193E-03    0.474E-04
DAV:  10    -0.791008557424E+02   -0.94831E-05   -0.12173E-07    48   0.204E-03    0.317E-04
DAV:  11    -0.791008618505E+02   -0.61081E-05   -0.13729E-07    48   0.214E-03    0.221E-04
DAV:  12    -0.791008626654E+02   -0.81493E-06   -0.45625E-08    60   0.939E-04
   30 T=  7015. E= -.70939472E+02 F= -.79100863E+02 E0= -.79100863E+02  EK= 0.81614E+01 SP= 0.00E+00 SK= 0.00E+00
       N       E                     dE             d eps       ncg     rms          rms(c)
DAV:   1    -0.770237602820E+02    0.20771E+01   -0.23918E+00    72   0.121E+01    0.107E+00
DAV:   2    -0.770330435926E+02   -0.92833E-02   -0.26707E-01    96   0.295E+00    0.537E-01
DAV:   3    -0.770307524203E+02    0.22912E-02   -0.97894E-03    96   0.554E-01    0.302E-01
DAV:   4    -0.770317443066E+02   -0.99189E-03   -0.20368E-03    84   0.255E-01    0.954E-02
DAV:   5    -0.770319148426E+02   -0.17054E-03   -0.88326E-05    96   0.495E-02    0.151E-02
DAV:   6    -0.770319272703E+02   -0.12428E-04   -0.45615E-06    72   0.132E-02    0.872E-03
DAV:   7    -0.770319404383E+02   -0.13168E-04   -0.13718E-06    72   0.617E-03    0.369E-03
DAV:   8    -0.770319520632E+02   -0.11625E-04   -0.50384E-07    72   0.410E-03    0.796E-04
DAV:   9    -0.770319621466E+02   -0.10083E-04   -0.25922E-07    72   0.300E-03    0.525E-04
DAV:  10    -0.770319732542E+02   -0.11108E-04   -0.31813E-07    60   0.366E-03    0.417E-04
DAV:  11    -0.770319764057E+02   -0.31515E-05   -0.14658E-07    72   0.173E-03
   31 T=  5417. E= -.70730119E+02 F= -.77031976E+02 E0= -.77031976E+02  EK= 0.63019E+01 SP= 0.00E+00 SK= 0.00E+00
       N       E                     dE             d eps       ncg     rms          rms(c)
DAV:   1    -0.779088342274E+02   -0.87686E+00   -0.23415E+00    72   0.116E+01    0.136E+00
DAV:   2    -0.779117547433E+02   -0.29205E-02   -0.22650E-01    96   0.263E+00    0.596E-01
DAV:   3    -0.779091623040E+02    0.25924E-02   -0.14980E-02    96   0.680E-01    0.240E-01
DAV:   4    -0.779097426912E+02   -0.58039E-03   -0.17719E-03    72   0.239E-01    0.867E-02
DAV:   5    -0.779098920653E+02   -0.14937E-03   -0.78079E-05    72   0.504E-02    0.321E-02
DAV:   6    -0.779099083479E+02   -0.16283E-04   -0.16389E-05    96   0.221E-02    0.106E-02
DAV:   7    -0.779099116277E+02   -0.32799E-05   -0.64551E-06    60   0.135E-02
   32 T=  6110. E= -.70801551E+02 F= -.77909912E+02 E0= -.77909912E+02  EK= 0.71084E+01 SP= 0.00E+00 SK= 0.00E+00
       N       E                     dE             d eps       ncg     rms          rms(c)
DAV:   1    -0.806902274410E+02   -0.27803E+01   -0.10383E+00    84   0.105E+01    0.892E-01
DAV:   2    -0.807069504784E+02   -0.16723E-01   -0.23113E-01    72   0.266E+00    0.393E-01
DAV:   3    -0.807060253536E+02    0.92512E-03   -0.40515E-03    96   0.357E-01    0.256E-01
DAV:   4    -0.807065171091E+02   -0.49176E-03   -0.17544E-03    72   0.235E-01    0.902E-02
DAV:   5    -0.807066389756E+02   -0.12187E-03   -0.15862E-04    84   0.757E-02    0.316E-02
DAV:   6    -0.807066644483E+02   -0.25473E-04   -0.11354E-05    84   0.201E-02    0.111E-02
DAV:   7    -0.807066739958E+02   -0.95475E-05   -0.29255E-06    60   0.892E-03    0.398E-03
DAV:   8    -0.807066792193E+02   -0.52234E-05   -0.46425E-07    48   0.426E-03    0.116E-03
DAV:   9    -0.807066834467E+02   -0.42275E-05   -0.12894E-07    60   0.198E-03
   33 T=  8313. E= -.71036355E+02 F= -.80706683E+02 E0= -.80706683E+02  EK= 0.96703E+01 SP= 0.00E+00 SK= 0.00E+00
       N       E                     dE             d eps       ncg     rms          rms(c)
DAV:   1    -0.819242061457E+02   -0.12175E+01   -0.88588E-01    84   0.113E+01    0.835E-01
DAV:   2    -0.819449200002E+02   -0.20714E-01   -0.29568E-01    72   0.302E+00    0.621E-01
DAV:   3    -0.819446139136E+02    0.30609E-03   -0.26723E-03    96   0.257E-01    0.479E-01
DAV:   4    -0.819457831737E+02   -0.11693E-02   -0.17565E-03    72   0.240E-01    0.433E-02
DAV:   5    -0.819457695253E+02    0.13648E-04   -0.19957E-04    72   0.853E-02    0.212E-02
DAV:   6    -0.819457664117E+02    0.31135E-05   -0.21645E-05    84   0.278E-02
   34 T=  9378. E= -.71036434E+02 F= -.81945766E+02 E0= -.81945766E+02  EK= 0.10909E+02 SP= 0.00E+00 SK= 0.00E+00
       N       E                     dE             d eps       ncg     rms          rms(c)
DAV:   1    -0.809824171576E+02    0.96335E+00   -0.99815E-01    72   0.113E+01    0.960E-01
DAV:   2    -0.810047254560E+02   -0.22308E-01   -0.31225E-01    84   0.313E+00    0.394E-01
DAV:   3    -0.810047289515E+02   -0.34955E-05   -0.28191E-03    96   0.262E-01    0.261E-01
DAV:   4    -0.810057740857E+02   -0.10451E-02   -0.10520E-03    72   0.186E-01    0.454E-02
DAV:   5    -0.810057735243E+02    0.56139E-06   -0.13208E-04    72   0.699E-02    0.228E-02
DAV:   6    -0.810057740526E+02   -0.52833E-06   -0.21184E-05    72   0.274E-02
   35 T=  8663. E= -.70927704E+02 F= -.81005774E+02 E0= -.81005774E+02  EK= 0.10078E+02 SP= 0.00E+00 SK= 0.00E+00
       N       E                     dE             d eps       ncg     rms          rms(c)
DAV:   1    -0.791394094515E+02    0.18664E+01   -0.52473E-01    72   0.897E+00    0.620E-01
DAV:   2    -0.791578952817E+02   -0.18486E-01   -0.20175E-01    72   0.252E+00    0.440E-01
DAV:   3    -0.791571724036E+02    0.72288E-03   -0.13418E-03    84   0.192E-01    0.306E-01
DAV:   4    -0.791581176274E+02   -0.94522E-03   -0.12039E-03    72   0.194E-01    0.915E-02
DAV:   5    -0.791580127479E+02    0.10488E-03   -0.20772E-04    72   0.943E-02    0.208E-02
DAV:   6    -0.791580147414E+02   -0.19936E-05   -0.63804E-05    72   0.378E-02    0.989E-03
DAV:   7    -0.791580198837E+02   -0.51423E-05   -0.38365E-06    48   0.105E-02    0.426E-03
DAV:   8    -0.791580250262E+02   -0.51425E-05   -0.50901E-07    48   0.454E-03    0.186E-03
DAV:   9    -0.791580281731E+02   -0.31470E-05   -0.15322E-07    48   0.224E-03
   36 T=  7139. E= -.70852852E+02 F= -.79158028E+02 E0= -.79158028E+02  EK= 0.83052E+01 SP= 0.00E+00 SK= 0.00E+00
       N       E                     dE             d eps       ncg     rms          rms(c)
DAV:   1    -0.774598745338E+02    0.16982E+01   -0.60739E-01    96   0.861E+00    0.468E-01
DAV:   2    -0.774740863514E+02   -0.14212E-01   -0.17614E-01    72   0.234E+00    0.399E-01
DAV:   3    -0.774734879804E+02    0.59837E-03   -0.15714E-03    84   0.203E-01    0.291E-01
DAV:   4    -0.774744582152E+02   -0.97023E-03   -0.50952E-04    72   0.153E-01    0.136E-01
DAV:   5    -0.774744793957E+02   -0.21180E-04   -0.31597E-04    72   0.117E-01    0.244E-02
DAV:   6    -0.774745059751E+02   -0.26579E-04   -0.68611E-05    72   0.382E-02    0.191E-02
DAV:   7    -0.774745112569E+02   -0.52818E-05   -0.27855E-06    60   0.105E-02    0.137E-02
DAV:   8    -0.774745288740E+02   -0.17617E-04   -0.67230E-06    48   0.175E-02    0.264E-03
DAV:   9    -0.774745348674E+02   -0.59934E-05   -0.22687E-06    60   0.835E-03    0.206E-03
DAV:  10    -0.774745383617E+02   -0.34943E-05   -0.38344E-07    48   0.304E-03
   37 T=  5720. E= -.70819822E+02 F= -.77474538E+02 E0= -.77474538E+02  EK= 0.66547E+01 SP= 0.00E+00 SK= 0.00E+00
       N       E                     dE             d eps       ncg     rms          rms(c)
DAV:   1    -0.764602361437E+02    0.10143E+01   -0.34844E-01    72   0.720E+00    0.521E-01
DAV:   2    -0.764706457805E+02   -0.10410E-01   -0.12147E-01    72   0.210E+00    0.269E-01
DAV:   3    -0.764704100139E+02    0.23577E-03   -0.12686E-03    72   0.203E-01    0.171E-01
DAV:   4    -0.764706961306E+02   -0.28612E-03   -0.26442E-04    72   0.111E-01    0.109E-01
DAV:   5    -0.764708160633E+02   -0.11993E-03   -0.16783E-04    72   0.859E-02    0.165E-02
DAV:   6    -0.764708405705E+02   -0.24507E-04   -0.46559E-05    84   0.313E-02    0.965E-03
DAV:   7    -0.764708476401E+02   -0.70696E-05   -0.96109E-07    48   0.624E-03    0.642E-03
DAV:   8    -0.764708672514E+02   -0.19611E-04   -0.19173E-06    48   0.757E-03    0.259E-03
DAV:   9    -0.764708764547E+02   -0.92032E-05   -0.44688E-07    60   0.386E-03    0.742E-04
DAV:  10    -0.764708846353E+02   -0.81806E-05   -0.10752E-07    48   0.171E-03    0.482E-04
DAV:  11    -0.764709009318E+02   -0.16297E-04   -0.12865E-07    48   0.220E-03    0.425E-04
DAV:  12    -0.764709085033E+02   -0.75715E-05   -0.92316E-08    60   0.149E-03    0.406E-04
DAV:  13    -0.764709098165E+02   -0.13132E-05   -0.23545E-08    48   0.723E-04
   38 T=  4867. E= -.70809476E+02 F= -.76470910E+02 E0= -.76470910E+02  EK= 0.56614E+01 SP= 0.00E+00 SK= 0.00E+00
       N       E                     dE             d eps       ncg     rms          rms(c)
DAV:   1    -0.763102200698E+02    0.16069E+00   -0.22441E-01    72   0.619E+00    0.363E-01
DAV:   2    -0.763172965470E+02   -0.70765E-02   -0.78561E-02    72   0.172E+00    0.193E-01
DAV:   3    -0.763171186581E+02    0.17789E-03   -0.74412E-04    84   0.173E-01    0.124E-01
DAV:   4    -0.763172328943E+02   -0.11424E-03   -0.10802E-04    72   0.702E-02    0.844E-02
DAV:   5    -0.763174356169E+02   -0.20272E-03   -0.98529E-05    72   0.614E-02    0.146E-02
DAV:   6    -0.763174472763E+02   -0.11659E-04   -0.17792E-05    84   0.227E-02    0.772E-03
DAV:   7    -0.763174509552E+02   -0.36789E-05   -0.98750E-07    48   0.686E-03
   39 T=  4733. E= -.70810855E+02 F= -.76317451E+02 E0= -.76317451E+02  EK= 0.55066E+01 SP= 0.00E+00 SK= 0.00E+00
       N       E                     dE             d eps       ncg     rms          rms(c)
DAV:   1    -0.769897877383E+02   -0.67234E+00   -0.14244E-01    72   0.608E+00    0.270E-01
DAV:   2    -0.769961319115E+02   -0.63442E-02   -0.67800E-02    72   0.159E+00    0.181E-01
DAV:   3    -0.769958764729E+02    0.25544E-03   -0.52595E-04    84   0.145E-01    0.124E-01
DAV:   4    -0.769959329443E+02   -0.56471E-04   -0.68179E-05    72   0.481E-02    0.947E-02
DAV:   5    -0.769961786909E+02   -0.24575E-03   -0.10956E-04    72   0.594E-02    0.194E-02
DAV:   6    -0.769961934203E+02   -0.14729E-04   -0.15718E-05    84   0.236E-02    0.900E-03
DAV:   7    -0.769961978965E+02   -0.44762E-05   -0.12203E-06    48   0.800E-03
   40 T=  5308. E= -.70820763E+02 F= -.76996198E+02 E0= -.76996198E+02  EK= 0.61754E+01 SP= 0.00E+00 SK= 0.00E+00
       N       E                     dE             d eps       ncg     rms          rms(c)
DAV:   1    -0.783421837789E+02   -0.13460E+01   -0.14259E-01    72   0.691E+00    0.299E-01
DAV:   2    -0.783497610366E+02   -0.75773E-02   -0.81212E-02    72   0.167E+00    0.204E-01
DAV:   3    -0.783494283002E+02    0.33274E-03   -0.64306E-04    72   0.154E-01    0.144E-01
DAV:   4    -0.783494993357E+02   -0.71036E-04   -0.10925E-04    72   0.597E-02    0.103E-01
DAV:   5    -0.783497197329E+02   -0.22040E-03   -0.16015E-04    72   0.718E-02    0.245E-02
DAV:   6    -0.783497331983E+02   -0.13465E-04   -0.21908E-05    84   0.282E-02    0.112E-02
DAV:   7    -0.783497370784E+02   -0.38801E-05   -0.14914E-06    48   0.842E-03
   41 T=  6453. E= -.70843207E+02 F= -.78349737E+02 E0= -.78349737E+02  EK= 0.75065E+01 SP= 0.00E+00 SK= 0.00E+00
       N       E                     dE             d eps       ncg     rms          rms(c)
DAV:   1    -0.800228256533E+02   -0.16731E+01   -0.20696E-01    72   0.811E+00    0.376E-01
DAV:   2    -0.800331961943E+02   -0.10371E-01   -0.11254E-01    72   0.194E+00    0.258E-01
DAV:   3    -0.800327138907E+02    0.48230E-03   -0.97142E-04    84   0.176E-01    0.187E-01
DAV:   4    -0.800329389886E+02   -0.22510E-03   -0.29283E-04    72   0.956E-02    0.101E-01
DAV:   5    -0.800331397260E+02   -0.20074E-03   -0.18132E-04    72   0.767E-02    0.230E-02
DAV:   6    -0.800331530521E+02   -0.13326E-04   -0.20598E-05    84   0.269E-02    0.126E-02
DAV:   7    -0.800331615808E+02   -0.85287E-05   -0.22142E-06    48   0.939E-03    0.550E-03
DAV:   8    -0.800331682774E+02   -0.66966E-05   -0.61566E-07    60   0.466E-03    0.171E-03
DAV:   9    -0.800331707799E+02   -0.25025E-05   -0.11598E-07    48   0.208E-03
   42 T=  7863. E= -.70885820E+02 F= -.80033171E+02 E0= -.80033171E+02  EK= 0.91474E+01 SP= 0.00E+00 SK= 0.00E+00
       N       E                     dE             d eps       ncg     rms          rms(c)
DAV:   1    -0.814170952166E+02   -0.13839E+01   -0.34715E-01    72   0.938E+00    0.460E-01
DAV:   2    -0.814310208376E+02   -0.13926E-01   -0.15398E-01    72   0.224E+00    0.356E-01
DAV:   3    -0.814301770952E+02    0.84374E-03   -0.13431E-03    96   0.193E-01    0.266E-01
DAV:   4    -0.814307462895E+02   -0.56919E-03   -0.10232E-03    72   0.170E-01    0.773E-02
DAV:   5    -0.814308459511E+02   -0.99662E-04   -0.13505E-04    72   0.639E-02    0.205E-02
DAV:   6    -0.814308465412E+02   -0.59010E-06   -0.14877E-05    84   0.235E-02
   43 T=  9011. E= -.70947794E+02 F= -.81430847E+02 E0= -.81430847E+02  EK= 0.10483E+02 SP= 0.00E+00 SK= 0.00E+00
       N       E                     dE             d eps       ncg     rms          rms(c)
DAV:   1    -0.817172086004E+02   -0.28636E+00   -0.60772E-01    72   0.104E+01    0.595E-01
DAV:   2    -0.817316281739E+02   -0.14420E-01   -0.17624E-01    72   0.238E+00    0.406E-01
DAV:   3    -0.817303851608E+02    0.12430E-02   -0.20950E-03    96   0.237E-01    0.279E-01
DAV:   4    -0.817311271157E+02   -0.74195E-03   -0.14640E-03    72   0.198E-01    0.751E-02
DAV:   5    -0.817312323649E+02   -0.10525E-03   -0.11543E-04    84   0.577E-02    0.189E-02
DAV:   6    -0.817312353517E+02   -0.29868E-05   -0.14508E-05    72   0.214E-02
   44 T=  9218. E= -.71007113E+02 F= -.81731235E+02 E0= -.81731235E+02  EK= 0.10724E+02 SP= 0.00E+00 SK= 0.00E+00
       N       E                     dE             d eps       ncg     rms          rms(c)
DAV:   1    -0.803208408687E+02    0.14104E+01   -0.83107E-01    72   0.106E+01    0.535E-01
DAV:   2    -0.803358423546E+02   -0.15001E-01   -0.18980E-01    72   0.242E+00    0.575E-01
DAV:   3    -0.803337182659E+02    0.21241E-02   -0.19369E-03    96   0.222E-01    0.487E-01
DAV:   4    -0.803352292235E+02   -0.15110E-02   -0.21080E-03    72   0.226E-01    0.131E-01
DAV:   5    -0.803355046401E+02   -0.27542E-03   -0.26380E-04    96   0.819E-02    0.244E-02
DAV:   6    -0.803355181622E+02   -0.13522E-04   -0.34039E-05    72   0.271E-02    0.883E-03
DAV:   7    -0.803355254777E+02   -0.73156E-05   -0.13537E-06    60   0.604E-03    0.423E-03
DAV:   8    -0.803355313711E+02   -0.58934E-05   -0.46727E-07    48   0.297E-03    0.782E-04
DAV:   9    -0.803355346033E+02   -0.32322E-05   -0.13714E-07    60   0.151E-03
   45 T=  8024. E= -.71000906E+02 F= -.80335535E+02 E0= -.80335535E+02  EK= 0.93346E+01 SP= 0.00E+00 SK= 0.00E+00
       N       E                     dE             d eps       ncg     rms          rms(c)
DAV:   1    -0.778827400764E+02    0.24528E+01   -0.15859E+00    72   0.112E+01    0.832E-01
DAV:   2    -0.778980200333E+02   -0.15280E-01   -0.23868E-01    72   0.275E+00    0.596E-01
DAV:   3    -0.778959001776E+02    0.21199E-02   -0.36793E-03    96   0.315E-01    0.421E-01
DAV:   4    -0.778972317912E+02   -0.13316E-02   -0.31373E-03    72   0.274E-01    0.973E-02
DAV:   5    -0.778973425751E+02   -0.11078E-03   -0.15748E-04    84   0.657E-02    0.140E-02
DAV:   6    -0.778973544695E+02   -0.11894E-04   -0.75371E-06    72   0.169E-02    0.750E-03
DAV:   7    -0.778973697021E+02   -0.15233E-04   -0.13888E-06    60   0.571E-03    0.346E-03
DAV:   8    -0.778973894491E+02   -0.19747E-04   -0.48733E-07    60   0.357E-03    0.856E-04
DAV:   9    -0.778974028201E+02   -0.13371E-04   -0.15261E-07    60   0.204E-03    0.611E-04
DAV:  10    -0.778974258106E+02   -0.22990E-04   -0.39848E-07    48   0.366E-03    0.454E-04
DAV:  11    -0.778974296644E+02   -0.38538E-05   -0.13664E-07    60   0.157E-03
   46 T=  6084. E= -.70819368E+02 F= -.77897430E+02 E0= -.77897430E+02  EK= 0.70781E+01 SP= 0.00E+00 SK= 0.00E+00
       N       E                     dE             d eps       ncg     rms          rms(c)
DAV:   1    -0.772589877965E+02    0.63844E+00   -0.26290E+00    72   0.122E+01    0.133E+00
DAV:   2    -0.772585242365E+02    0.46356E-03   -0.24355E-01    96   0.269E+00    0.601E-01
DAV:   3    -0.772557174541E+02    0.28068E-02   -0.13875E-02    96   0.615E-01    0.253E-01
DAV:   4    -0.772564596463E+02   -0.74219E-03   -0.18379E-03    84   0.234E-01    0.863E-02
DAV:   5    -0.772565961736E+02   -0.13653E-03   -0.92274E-05    84   0.561E-02    0.319E-02
DAV:   6    -0.772566114445E+02   -0.15271E-04   -0.13861E-05    84   0.213E-02    0.132E-02
DAV:   7    -0.772566169500E+02   -0.55055E-05   -0.31572E-06    60   0.100E-02    0.498E-03
DAV:   8    -0.772566215634E+02   -0.46134E-05   -0.70551E-07    60   0.497E-03
   47 T=  5614. E= -.70725193E+02 F= -.77256622E+02 E0= -.77256622E+02  EK= 0.65314E+01 SP= 0.00E+00 SK= 0.00E+00
       N       E                     dE             d eps       ncg     rms          rms(c)
DAV:   1    -0.795608724648E+02   -0.23043E+01   -0.13106E+00    96   0.105E+01    0.100E+00
DAV:   2    -0.795724483966E+02   -0.11576E-01   -0.21336E-01    96   0.260E+00    0.395E-01
DAV:   3    -0.795710420643E+02    0.14063E-02   -0.63396E-03    96   0.418E-01    0.192E-01
DAV:   4    -0.795715733487E+02   -0.53128E-03   -0.15164E-03    96   0.205E-01    0.667E-02
DAV:   5    -0.795717073609E+02   -0.13401E-03   -0.86448E-05    84   0.546E-02    0.262E-02
DAV:   6    -0.795717428292E+02   -0.35468E-04   -0.84200E-06    84   0.179E-02    0.877E-03
DAV:   7    -0.795717524884E+02   -0.96592E-05   -0.28712E-06    60   0.844E-03    0.330E-03
DAV:   8    -0.795717597265E+02   -0.72381E-05   -0.47075E-07    60   0.395E-03    0.126E-03
DAV:   9    -0.795717667063E+02   -0.69798E-05   -0.17612E-07    48   0.230E-03    0.657E-04
DAV:  10    -0.795717767161E+02   -0.10010E-04   -0.28078E-07    48   0.262E-03    0.562E-04
DAV:  11    -0.795717866822E+02   -0.99662E-05   -0.29989E-07    48   0.243E-03    0.423E-04
DAV:  12    -0.795717899131E+02   -0.32309E-05   -0.10683E-07    48   0.123E-03
   48 T=  7409. E= -.70952747E+02 F= -.79571790E+02 E0= -.79571790E+02  EK= 0.86190E+01 SP= 0.00E+00 SK= 0.00E+00
       N       E                     dE             d eps       ncg     rms          rms(c)
DAV:   1    -0.816637384401E+02   -0.20920E+01   -0.86678E-01    84   0.107E+01    0.798E-01
DAV:   2    -0.816815216219E+02   -0.17783E-01   -0.25135E-01    72   0.282E+00    0.563E-01
DAV:   3    -0.816809250346E+02    0.59659E-03   -0.27480E-03    96   0.276E-01    0.418E-01
DAV:   4    -0.816819750819E+02   -0.10500E-02   -0.19520E-03    84   0.246E-01    0.627E-02
DAV:   5    -0.816819728792E+02    0.22027E-05   -0.20616E-04    72   0.872E-02    0.249E-02
DAV:   6    -0.816819722967E+02    0.58251E-06   -0.27463E-05    84   0.292E-02
   49 T=  9131. E= -.71059106E+02 F= -.81681972E+02 E0= -.81681972E+02  EK= 0.10623E+02 SP= 0.00E+00 SK= 0.00E+00
       N       E                     dE             d eps       ncg     rms          rms(c)
DAV:   1    -0.815400857925E+02    0.14189E+00   -0.95048E-01    72   0.112E+01    0.875E-01
DAV:   2    -0.815606352730E+02   -0.20549E-01   -0.29800E-01    96   0.304E+00    0.490E-01
DAV:   3    -0.815602757429E+02    0.35953E-03   -0.27775E-03    96   0.263E-01    0.347E-01
DAV:   4    -0.815616022817E+02   -0.13265E-02   -0.11992E-03    72   0.203E-01    0.672E-02
DAV:   5    -0.815615590629E+02    0.43219E-04   -0.19400E-04    72   0.888E-02    0.200E-02
DAV:   6    -0.815615612805E+02   -0.22176E-05   -0.37847E-05    84   0.316E-02
   50 T=  9103. E= -.70972102E+02 F= -.81561561E+02 E0= -.81561561E+02  EK= 0.10589E+02 SP= 0.00E+00 SK= 0.00E+00
       N       E                     dE             d eps       ncg     rms          rms(c)
DAV:   1    -0.799672957236E+02    0.15943E+01   -0.84980E-01    72   0.103E+01    0.869E-01
DAV:   2    -0.799875960388E+02   -0.20300E-01   -0.25948E-01    84   0.286E+00    0.341E-01
DAV:   3    -0.799872500841E+02    0.34595E-03   -0.24277E-03    84   0.250E-01    0.194E-01
DAV:   4    -0.799880095621E+02   -0.75948E-03   -0.78488E-04    72   0.163E-01    0.712E-02
DAV:   5    -0.799880130609E+02   -0.34988E-05   -0.13116E-04    72   0.711E-02    0.196E-02
DAV:   6    -0.799880251681E+02   -0.12107E-04   -0.26840E-05    72   0.265E-02    0.104E-02
DAV:   7    -0.799880312022E+02   -0.60341E-05   -0.29506E-06    48   0.102E-02    0.534E-03
DAV:   8    -0.799880389334E+02   -0.77312E-05   -0.93861E-07    48   0.488E-03    0.202E-03
DAV:   9    -0.799880445564E+02   -0.56230E-05   -0.21238E-07    48   0.240E-03    0.729E-04
DAV:  10    -0.799880476106E+02   -0.30542E-05   -0.66378E-08    48   0.125E-03
   51 T=  7830. E= -.70879602E+02 F= -.79988048E+02 E0= -.79988048E+02  EK= 0.91084E+01 SP= 0.00E+00 SK= 0.00E+00
       N       E                     dE             d eps       ncg     rms          rms(c)
DAV:   1    -0.781817404826E+02    0.18063E+01   -0.60525E-01    96   0.869E+00    0.566E-01
DAV:   2    -0.781972402593E+02   -0.15500E-01   -0.17818E-01    72   0.231E+00    0.419E-01
DAV:   3    -0.781966930736E+02    0.54719E-03   -0.13306E-03    84   0.196E-01    0.288E-01
DAV:   4    -0.781976813655E+02   -0.98829E-03   -0.68577E-04    72   0.161E-01    0.116E-01
DAV:   5    -0.781975933911E+02    0.87974E-04   -0.25583E-04    84   0.981E-02    0.208E-02
DAV:   6    -0.781976109904E+02   -0.17599E-04   -0.58503E-05    72   0.326E-02    0.137E-02
DAV:   7    -0.781976176858E+02   -0.66954E-05   -0.53184E-06    60   0.133E-02    0.656E-03
DAV:   8    -0.781976266251E+02   -0.89393E-05   -0.15905E-06    48   0.721E-03    0.233E-03
DAV:   9    -0.781976319225E+02   -0.52974E-05   -0.53619E-07    60   0.385E-03    0.911E-04
DAV:  10    -0.781976353913E+02   -0.34688E-05   -0.17488E-07    48   0.199E-03
   52 T=  6330. E= -.70833088E+02 F= -.78197635E+02 E0= -.78197635E+02  EK= 0.73645E+01 SP= 0.00E+00 SK= 0.00E+00
       N       E                     dE             d eps       ncg     rms          rms(c)
DAV:   1    -0.768811370492E+02    0.13165E+01   -0.33467E-01    72   0.762E+00    0.527E-01
DAV:   2    -0.768936754190E+02   -0.12538E-01   -0.14773E-01    72   0.221E+00    0.320E-01
DAV:   3    -0.768933071861E+02    0.36823E-03   -0.14175E-03    72   0.199E-01    0.215E-01
DAV:   4    -0.768937754103E+02   -0.46822E-03   -0.33399E-04    72   0.125E-01    0.122E-01
DAV:   5    -0.768938319245E+02   -0.56514E-04   -0.20381E-04    84   0.939E-02    0.223E-02
DAV:   6    -0.768938568896E+02   -0.24965E-04   -0.47888E-05    72   0.303E-02    0.111E-02
DAV:   7    -0.768938635852E+02   -0.66956E-05   -0.16334E-06    60   0.779E-03    0.663E-03
DAV:   8    -0.768938766909E+02   -0.13106E-04   -0.21194E-06    48   0.785E-03    0.150E-03
DAV:   9    -0.768938813287E+02   -0.46378E-05   -0.34458E-07    60   0.335E-03
   53 T=  5224. E= -.70816019E+02 F= -.76893881E+02 E0= -.76893881E+02  EK= 0.60779E+01 SP= 0.00E+00 SK= 0.00E+00
       N       E                     dE             d eps       ncg     rms          rms(c)
DAV:   1    -0.763489294039E+02    0.54495E+00   -0.20458E-01    72   0.653E+00    0.425E-01
DAV:   2    -0.763569969230E+02   -0.80675E-02   -0.91602E-02    72   0.179E+00    0.221E-01
DAV:   3    -0.763568508144E+02    0.14611E-03   -0.88395E-04    84   0.171E-01    0.144E-01
DAV:   4    -0.763570650717E+02   -0.21426E-03   -0.16623E-04    72   0.857E-02    0.908E-02
DAV:   5    -0.763571808932E+02   -0.11582E-03   -0.11492E-04    72   0.701E-02    0.156E-02
DAV:   6    -0.763571926863E+02   -0.11793E-04   -0.28570E-05    84   0.251E-02    0.836E-03
DAV:   7    -0.763571945285E+02   -0.18422E-05   -0.98391E-07    48   0.670E-03
   54 T=  4766. E= -.70812298E+02 F= -.76357195E+02 E0= -.76357195E+02  EK= 0.55449E+01 SP= 0.00E+00 SK= 0.00E+00
       N       E                     dE             d eps       ncg     rms          rms(c)
DAV:   1    -0.766483908299E+02   -0.29120E+00   -0.14685E-01    72   0.602E+00    0.301E-01
DAV:   2    -0.766546663645E+02   -0.62755E-02   -0.68297E-02    72   0.155E+00    0.182E-01
DAV:   3    -0.766545262614E+02    0.14010E-03   -0.58154E-04    84   0.140E-01    0.128E-01
DAV:   4    -0.766546471913E+02   -0.12093E-03   -0.88518E-05    72   0.560E-02    0.878E-02
DAV:   5    -0.766548121085E+02   -0.16492E-03   -0.97352E-05    72   0.584E-02    0.165E-02
DAV:   6    -0.766548229710E+02   -0.10862E-04   -0.16761E-05    84   0.209E-02    0.800E-03
DAV:   7    -0.766548242544E+02   -0.12834E-05   -0.96929E-07    48   0.666E-03
   55 T=  5019. E= -.70816087E+02 F= -.76654824E+02 E0= -.76654824E+02  EK= 0.58387E+01 SP= 0.00E+00 SK= 0.00E+00
       N       E                     dE             d eps       ncg     rms          rms(c)
DAV:   1    -0.777177884099E+02   -0.10630E+01   -0.13577E-01    72   0.653E+00    0.280E-01
DAV:   2    -0.777242222292E+02   -0.64338E-02   -0.69854E-02    72   0.158E+00    0.180E-01
DAV:   3    -0.777240779117E+02    0.14432E-03   -0.55027E-04    84   0.131E-01    0.130E-01
DAV:   4    -0.777241951789E+02   -0.11727E-03   -0.10246E-04    72   0.584E-02    0.872E-02
DAV:   5    -0.777243430022E+02   -0.14782E-03   -0.10517E-04    72   0.614E-02    0.260E-02
DAV:   6    -0.777243540944E+02   -0.11092E-04   -0.19725E-05    84   0.256E-02    0.108E-02
DAV:   7    -0.777243574660E+02   -0.33715E-05   -0.13742E-06    48   0.727E-03
   56 T=  5925. E= -.70830950E+02 F= -.77724357E+02 E0= -.77724357E+02  EK= 0.68934E+01 SP= 0.00E+00 SK= 0.00E+00
       N       E                     dE             d eps       ncg     rms          rms(c)
DAV:   1    -0.793182206399E+02   -0.15939E+01   -0.16656E-01    72   0.765E+00    0.339E-01
DAV:   2    -0.793265992542E+02   -0.83786E-02   -0.91690E-02    72   0.178E+00    0.210E-01
DAV:   3    -0.793262979060E+02    0.30135E-03   -0.75573E-04    96   0.147E-01    0.150E-01
DAV:   4    -0.793265659941E+02   -0.26809E-03   -0.21795E-04    72   0.819E-02    0.768E-02
DAV:   5    -0.793267130767E+02   -0.14708E-03   -0.10746E-04    84   0.608E-02    0.220E-02
DAV:   6    -0.793267224158E+02   -0.93390E-05   -0.15241E-05    84   0.225E-02    0.105E-02
DAV:   7    -0.793267259600E+02   -0.35443E-05   -0.14917E-06    60   0.735E-03
   57 T=  7272. E= -.70866733E+02 F= -.79326726E+02 E0= -.79326726E+02  EK= 0.84600E+01 SP= 0.00E+00 SK= 0.00E+00
       N       E                     dE             d eps       ncg     rms          rms(c)
DAV:   1    -0.809214282775E+02   -0.15947E+01   -0.27153E-01    72   0.884E+00    0.397E-01
DAV:   2    -0.809334742265E+02   -0.12046E-01   -0.13268E-01    72   0.209E+00    0.312E-01
DAV:   3    -0.809327373833E+02    0.73684E-03   -0.10914E-03    96   0.167E-01    0.235E-01
DAV:   4    -0.809334236672E+02   -0.68628E-03   -0.76744E-04    72   0.148E-01    0.686E-02
DAV:   5    -0.809335235187E+02   -0.99851E-04   -0.11757E-04    84   0.607E-02    0.205E-02
DAV:   6    -0.809335237962E+02   -0.27755E-06   -0.13017E-05    84   0.217E-02
   58 T=  8604. E= -.70923891E+02 F= -.80933524E+02 E0= -.80933524E+02  EK= 0.10010E+02 SP= 0.00E+00 SK= 0.00E+00
       N       E                     dE             d eps       ncg     rms          rms(c)
DAV:   1    -0.817513187073E+02   -0.81780E+00   -0.51658E-01    72   0.102E+01    0.543E-01
DAV:   2    -0.817662028227E+02   -0.14884E-01   -0.17514E-01    72   0.237E+00    0.397E-01
DAV:   3    -0.817650085524E+02    0.11943E-02   -0.18202E-03    96   0.214E-01    0.280E-01
DAV:   4    -0.817659173760E+02   -0.90882E-03   -0.15845E-03    72   0.203E-01    0.624E-02
DAV:   5    -0.817659758069E+02   -0.58431E-04   -0.12964E-04    84   0.609E-02    0.198E-02
DAV:   6    -0.817659733958E+02    0.24111E-05   -0.16520E-05    84   0.240E-02
   59 T=  9268. E= -.70984229E+02 F= -.81765973E+02 E0= -.81765973E+02  EK= 0.10782E+02 SP= 0.00E+00 SK= 0.00E+00
       N       E                     dE             d eps       ncg     rms          rms(c)
DAV:   1    -0.810948902883E+02    0.67109E+00   -0.81797E-01    72   0.105E+01    0.560E-01
DAV:   2    -0.811076547355E+02   -0.12764E-01   -0.17401E-01    84   0.232E+00    0.453E-01
DAV:   3    -0.811060444414E+02    0.16103E-02   -0.22306E-03    96   0.232E-01    0.346E-01
DAV:   4    -0.811070815916E+02   -0.10372E-02   -0.13986E-03    72   0.184E-01    0.993E-02
DAV:   5    -0.811073002915E+02   -0.21870E-03   -0.17092E-04    96   0.666E-02    0.139E-02
DAV:   6    -0.811073055573E+02   -0.52658E-05   -0.97611E-06    72   0.172E-02    0.623E-03
DAV:   7    -0.811073089895E+02   -0.34322E-05   -0.23177E-06    60   0.754E-03
   60 T=  8672. E= -.71018339E+02 F= -.81107309E+02 E0= -.81107309E+02  EK= 0.10089E+02 SP= 0.00E+00 SK= 0.00E+00
       N       E                     dE             d eps       ncg     rms          rms(c)
DAV:   1    -0.788870184967E+02    0.22203E+01   -0.12982E+00    72   0.105E+01    0.691E-01
DAV:   2    -0.789038672062E+02   -0.16849E-01   -0.21181E-01    96   0.254E+00    0.644E-01
DAV:   3    -0.789015336449E+02    0.23336E-02   -0.18444E-03    96   0.226E-01    0.513E-01
DAV:   4    -0.789034130214E+02   -0.18794E-02   -0.33440E-03    72   0.281E-01    0.108E-01
DAV:   5    -0.789035525440E+02   -0.13952E-03   -0.17330E-04    72   0.739E-02    0.256E-02
DAV:   6    -0.789035658089E+02   -0.13265E-04   -0.19036E-05    84   0.246E-02    0.124E-02
DAV:   7    -0.789035794821E+02   -0.13673E-04   -0.46193E-06    60   0.105E-02    0.473E-03
DAV:   8    -0.789035906821E+02   -0.11200E-04   -0.84299E-07    48   0.454E-03    0.127E-03
DAV:   9    -0.789035968259E+02   -0.61438E-05   -0.21786E-07    60   0.210E-03    0.443E-04
DAV:  10    -0.789036035145E+02   -0.66886E-05   -0.11082E-07    48   0.147E-03    0.354E-04
DAV:  11    -0.789036075606E+02   -0.40462E-05   -0.75368E-08    60   0.117E-03
   61 T=  6866. E= -.70916064E+02 F= -.78903608E+02 E0= -.78903608E+02  EK= 0.79875E+01 SP= 0.00E+00 SK= 0.00E+00
       N       E                     dE             d eps       ncg     rms          rms(c)
DAV:   1    -0.771205062059E+02    0.17831E+01   -0.25486E+00    72   0.119E+01    0.109E+00
DAV:   2    -0.771250667872E+02   -0.45606E-02   -0.24957E-01    96   0.274E+00    0.540E-01
DAV:   3    -0.771225400276E+02    0.25268E-02   -0.96790E-03    96   0.499E-01    0.273E-01
DAV:   4    -0.771234573009E+02   -0.91727E-03   -0.20205E-03    84   0.246E-01    0.101E-01
DAV:   5    -0.771236014646E+02   -0.14416E-03   -0.12806E-04    84   0.692E-02    0.347E-02
DAV:   6    -0.771236373156E+02   -0.35851E-04   -0.19294E-05    84   0.212E-02    0.126E-02
DAV:   7    -0.771236509115E+02   -0.13596E-04   -0.35785E-06    60   0.104E-02    0.494E-03
DAV:   8    -0.771236603103E+02   -0.93988E-05   -0.70999E-07    60   0.510E-03    0.135E-03
DAV:   9    -0.771236715375E+02   -0.11227E-04   -0.30671E-07    60   0.240E-03    0.648E-04
DAV:  10    -0.771236846980E+02   -0.13161E-04   -0.34444E-07    60   0.222E-03    0.523E-04
DAV:  11    -0.771236934205E+02   -0.87225E-05   -0.21961E-07    48   0.189E-03    0.335E-04
DAV:  12    -0.771236969259E+02   -0.35054E-05   -0.12690E-07    60   0.141E-03
   62 T=  5503. E= -.70722237E+02 F= -.77123697E+02 E0= -.77123697E+02  EK= 0.64015E+01 SP= 0.00E+00 SK= 0.00E+00
       N       E                     dE             d eps       ncg     rms          rms(c)
DAV:   1    -0.783685995354E+02   -0.12449E+01   -0.20775E+00    96   0.110E+01    0.125E+00
DAV:   2    -0.783728536657E+02   -0.42541E-02   -0.21453E-01    96   0.252E+00    0.527E-01
DAV:   3    -0.783706767894E+02    0.21769E-02   -0.11260E-02    96   0.553E-01    0.217E-01
DAV:   4    -0.783713895819E+02   -0.71279E-03   -0.15108E-03    96   0.221E-01    0.863E-02
DAV:   5    -0.783715498381E+02   -0.16026E-03   -0.93641E-05    96   0.600E-02    0.367E-02
DAV:   6    -0.783715988789E+02   -0.49041E-04   -0.20801E-05    96   0.237E-02    0.110E-02
DAV:   7    -0.783716029399E+02   -0.40609E-05   -0.75868E-06    84   0.139E-02
   63 T=  6472. E= -.70842940E+02 F= -.78371603E+02 E0= -.78371603E+02  EK= 0.75287E+01 SP= 0.00E+00 SK= 0.00E+00
       N       E                     dE             d eps       ncg     rms          rms(c)
DAV:   1    -0.809611426075E+02   -0.25895E+01   -0.98129E-01    96   0.102E+01    0.825E-01
DAV:   2    -0.809762225413E+02   -0.15080E-01   -0.21262E-01    84   0.261E+00    0.438E-01
DAV:   3    -0.809752864303E+02    0.93611E-03   -0.34121E-03    96   0.324E-01    0.290E-01
DAV:   4    -0.809759232909E+02   -0.63686E-03   -0.16408E-03    72   0.232E-01    0.895E-02
DAV:   5    -0.809759892326E+02   -0.65942E-04   -0.16395E-04    84   0.822E-02    0.313E-02
DAV:   6    -0.809760077332E+02   -0.18501E-04   -0.20787E-05    84   0.238E-02    0.118E-02
DAV:   7    -0.809760140724E+02   -0.63392E-05   -0.31575E-06    60   0.957E-03    0.534E-03
DAV:   8    -0.809760214026E+02   -0.73302E-05   -0.82590E-07    48   0.501E-03    0.152E-03
DAV:   9    -0.809760243001E+02   -0.28975E-05   -0.12532E-07    60   0.210E-03
   64 T=  8537. E= -.71044514E+02 F= -.80976024E+02 E0= -.80976024E+02  EK= 0.99315E+01 SP= 0.00E+00 SK= 0.00E+00
       N       E                     dE             d eps       ncg     rms          rms(c)
DAV:   1    -0.817983096929E+02   -0.82229E+00   -0.90638E-01    96   0.112E+01    0.819E-01
DAV:   2    -0.818180786340E+02   -0.19769E-01   -0.28782E-01    84   0.298E+00    0.573E-01
DAV:   3    -0.818174247038E+02    0.65393E-03   -0.27496E-03    96   0.265E-01    0.426E-01
DAV:   4    -0.818186171824E+02   -0.11925E-02   -0.14062E-03    72   0.222E-01    0.788E-02
DAV:   5    -0.818185737382E+02    0.43444E-04   -0.22279E-04    72   0.987E-02    0.191E-02
DAV:   6    -0.818185764683E+02   -0.27302E-05   -0.42034E-05    84   0.325E-02
   65 T=  9286. E= -.71016290E+02 F= -.81818576E+02 E0= -.81818576E+02  EK= 0.10802E+02 SP= 0.00E+00 SK= 0.00E+00
       N       E                     dE             d eps       ncg     rms          rms(c)
DAV:   1    -0.806971896453E+02    0.11214E+01   -0.97539E-01    72   0.109E+01    0.918E-01
DAV:   2    -0.807178348583E+02   -0.20645E-01   -0.28576E-01    84   0.294E+00    0.349E-01
DAV:   3    -0.807175370814E+02    0.29778E-03   -0.28593E-03    84   0.279E-01    0.211E-01
DAV:   4    -0.807184384742E+02   -0.90139E-03   -0.68999E-04    84   0.165E-01    0.826E-02
DAV:   5    -0.807185270751E+02   -0.88601E-04   -0.14916E-04    72   0.785E-02    0.221E-02
DAV:   6    -0.807185353198E+02   -0.82448E-05   -0.29511E-05    72   0.297E-02    0.136E-02
DAV:   7    -0.807185414287E+02   -0.61088E-05   -0.45777E-06    48   0.126E-02    0.656E-03
DAV:   8    -0.807185500420E+02   -0.86134E-05   -0.17343E-06    48   0.632E-03    0.171E-03
DAV:   9    -0.807185542636E+02   -0.42216E-05   -0.23453E-07    48   0.246E-03
   66 T=  8428. E= -.70913443E+02 F= -.80718554E+02 E0= -.80718554E+02  EK= 0.98051E+01 SP= 0.00E+00 SK= 0.00E+00
       N       E                     dE             d eps       ncg     rms          rms(c)
DAV:   1    -0.789069094892E+02    0.18116E+01   -0.52307E-01    72   0.851E+00    0.500E-01
DAV:   2    -0.789236199825E+02   -0.16710E-01   -0.17859E-01    72   0.229E+00    0.471E-01
DAV:   3    -0.789226801954E+02    0.93979E-03   -0.97049E-04    96   0.166E-01    0.373E-01
DAV:   4    -0.789237813091E+02   -0.11011E-02   -0.12886E-03    72   0.182E-01    0.934E-02
DAV:   5    -0.789237032277E+02    0.78081E-04   -0.26072E-04    72   0.959E-02    0.292E-02
DAV:   6    -0.789236965780E+02    0.66497E-05   -0.55784E-05    72   0.368E-02    0.145E-02
DAV:   7    -0.789236970753E+02   -0.49731E-06   -0.97226E-06    72   0.154E-02
   67 T=  6940. E= -.70849546E+02 F= -.78923697E+02 E0= -.78923697E+02  EK= 0.80742E+01 SP= 0.00E+00 SK= 0.00E+00
       N       E                     dE             d eps       ncg     rms          rms(c)
DAV:   1    -0.773478914581E+02    0.15758E+01   -0.54520E-01    96   0.813E+00    0.427E-01
DAV:   2    -0.773603329941E+02   -0.12442E-01   -0.15461E-01    72   0.219E+00    0.360E-01
DAV:   3    -0.773598621506E+02    0.47084E-03   -0.13006E-03    96   0.174E-01    0.263E-01
DAV:   4    -0.773606975679E+02   -0.83542E-03   -0.51889E-04    72   0.132E-01    0.759E-02
DAV:   5    -0.773607060857E+02   -0.85178E-05   -0.13261E-04    84   0.718E-02    0.205E-02
DAV:   6    -0.773607155502E+02   -0.94645E-05   -0.21566E-05    72   0.222E-02    0.119E-02
DAV:   7    -0.773607209838E+02   -0.54336E-05   -0.47040E-06    60   0.118E-02    0.504E-03
DAV:   8    -0.773607260307E+02   -0.50469E-05   -0.16211E-06    48   0.695E-03    0.154E-03
DAV:   9    -0.773607285973E+02   -0.25666E-05   -0.33784E-07    60   0.303E-03
   68 T=  5621. E= -.70821968E+02 F= -.77360729E+02 E0= -.77360729E+02  EK= 0.65388E+01 SP= 0.00E+00 SK= 0.00E+00
       N       E                     dE             d eps       ncg     rms          rms(c)
DAV:   1    -0.764569930408E+02    0.90373E+00   -0.38337E-01    72   0.697E+00    0.476E-01
DAV:   2    -0.764661422343E+02   -0.91492E-02   -0.10695E-01    72   0.195E+00    0.252E-01
DAV:   3    -0.764659691714E+02    0.17306E-03   -0.10370E-03    84   0.161E-01    0.165E-01
DAV:   4    -0.764664013622E+02   -0.43219E-03   -0.25248E-04    72   0.956E-02    0.546E-02
DAV:   5    -0.764664328908E+02   -0.31529E-04   -0.66244E-05    84   0.543E-02    0.162E-02
DAV:   6    -0.764664428599E+02   -0.99691E-05   -0.93450E-06    72   0.185E-02    0.703E-03
DAV:   7    -0.764664490036E+02   -0.61437E-05   -0.17223E-06    60   0.770E-03    0.376E-03
DAV:   8    -0.764664558612E+02   -0.68576E-05   -0.10524E-06    48   0.564E-03    0.174E-03
DAV:   9    -0.764664592389E+02   -0.33777E-05   -0.19083E-07    60   0.263E-03
   69 T=  4861. E= -.70811812E+02 F= -.76466459E+02 E0= -.76466459E+02  EK= 0.56546E+01 SP= 0.00E+00 SK= 0.00E+00
       N       E                     dE             d eps       ncg     rms          rms(c)
DAV:   1    -0.764050659204E+02    0.61390E-01   -0.32047E-01    72   0.617E+00    0.355E-01
DAV:   2    -0.764115252769E+02   -0.64594E-02   -0.72630E-02    72   0.166E+00    0.193E-01
DAV:   3    -0.764113929806E+02    0.13230E-03   -0.65831E-04    84   0.133E-01    0.135E-01
DAV:   4    -0.764117294435E+02   -0.33646E-03   -0.20658E-04    72   0.825E-02    0.546E-02
DAV:   5    -0.764117623537E+02   -0.32910E-04   -0.53574E-05    84   0.500E-02    0.171E-02
DAV:   6    -0.764117712798E+02   -0.89261E-05   -0.10021E-05    84   0.179E-02    0.646E-03
DAV:   7    -0.764117733755E+02   -0.20957E-05   -0.11891E-06    60   0.659E-03
   70 T=  4815. E= -.70810537E+02 F= -.76411773E+02 E0= -.76411773E+02  EK= 0.56012E+01 SP= 0.00E+00 SK= 0.00E+00
       N       E                     dE             d eps       ncg     rms          rms(c)
DAV:   1    -0.772080037267E+02   -0.79623E+00   -0.28665E-01    72   0.630E+00    0.289E-01
DAV:   2    -0.772139162582E+02   -0.59125E-02   -0.64123E-02    72   0.151E+00    0.166E-01
DAV:   3    -0.772137296465E+02    0.18661E-03   -0.49565E-04    84   0.111E-01    0.120E-01
DAV:   4    -0.772140191295E+02   -0.28948E-03   -0.15373E-04    72   0.686E-02    0.577E-02
DAV:   5    -0.772140850076E+02   -0.65878E-04   -0.45654E-05    84   0.444E-02    0.198E-02
DAV:   6    -0.772141017734E+02   -0.16766E-04   -0.73929E-06    72   0.145E-02    0.637E-03
DAV:   7    -0.772141045640E+02   -0.27906E-05   -0.76724E-07    60   0.527E-03
   71 T=  5495. E= -.70821680E+02 F= -.77214105E+02 E0= -.77214105E+02  EK= 0.63924E+01 SP= 0.00E+00 SK= 0.00E+00
       N       E                     dE             d eps       ncg     rms          rms(c)
DAV:   1    -0.786865859882E+02   -0.14725E+01   -0.27679E-01    72   0.709E+00    0.298E-01
DAV:   2    -0.786935472340E+02   -0.69612E-02   -0.75356E-02    72   0.162E+00    0.175E-01
DAV:   3    -0.786932670677E+02    0.28017E-03   -0.56507E-04    84   0.123E-01    0.124E-01
DAV:   4    -0.786935817711E+02   -0.31470E-03   -0.14595E-04    72   0.714E-02    0.622E-02
DAV:   5    -0.786936993985E+02   -0.11763E-03   -0.65178E-05    84   0.512E-02    0.201E-02
DAV:   6    -0.786937143379E+02   -0.14939E-04   -0.98661E-06    72   0.181E-02    0.816E-03
DAV:   7    -0.786937176478E+02   -0.33099E-05   -0.11456E-06    60   0.618E-03
   72 T=  6740. E= -.70853247E+02 F= -.78693718E+02 E0= -.78693718E+02  EK= 0.78405E+01 SP= 0.00E+00 SK= 0.00E+00
       N       E                     dE             d eps       ncg     rms          rms(c)
DAV:   1    -0.803690767909E+02   -0.16754E+01   -0.41209E-01    72   0.829E+00    0.348E-01
DAV:   2    -0.803792152336E+02   -0.10138E-01   -0.11123E-01    72   0.192E+00    0.264E-01
DAV:   3    -0.803785559638E+02    0.65927E-03   -0.88941E-04    96   0.153E-01    0.197E-01
DAV:   4    -0.803792099521E+02   -0.65399E-03   -0.49995E-04    72   0.128E-01    0.645E-02
DAV:   5    -0.803793185030E+02   -0.10855E-03   -0.10866E-04    84   0.612E-02    0.213E-02
DAV:   6    -0.803793187457E+02   -0.24268E-06   -0.10687E-05    72   0.224E-02
   73 T=  8144. E= -.70904827E+02 F= -.80379319E+02 E0= -.80379319E+02  EK= 0.94745E+01 SP= 0.00E+00 SK= 0.00E+00
       N       E                     dE             d eps       ncg     rms          rms(c)
DAV:   1    -0.815365181823E+02   -0.11572E+01   -0.63769E-01    72   0.985E+00    0.484E-01
DAV:   2    -0.815507407825E+02   -0.14223E-01   -0.16370E-01    72   0.231E+00    0.417E-01
DAV:   3    -0.815496313279E+02    0.11095E-02   -0.14348E-03    96   0.182E-01    0.326E-01
DAV:   4    -0.815506356247E+02   -0.10043E-02   -0.15837E-03    72   0.204E-01    0.608E-02
DAV:   5    -0.815506831463E+02   -0.47522E-04   -0.14283E-04    84   0.639E-02    0.204E-02
DAV:   6    -0.815506817015E+02    0.14448E-05   -0.14210E-05    84   0.233E-02
   74 T=  9104. E= -.70960015E+02 F= -.81550682E+02 E0= -.81550682E+02  EK= 0.10591E+02 SP= 0.00E+00 SK= 0.00E+00
       N       E                     dE             d eps       ncg     rms          rms(c)
DAV:   1    -0.814974915898E+02    0.53192E-01   -0.91238E-01    72   0.102E+01    0.591E-01
DAV:   2    -0.815085230680E+02   -0.11031E-01   -0.15664E-01    72   0.224E+00    0.385E-01
DAV:   3    -0.815073757258E+02    0.11473E-02   -0.24314E-03    96   0.239E-01    0.262E-01
DAV:   4    -0.815080886363E+02   -0.71291E-03   -0.11996E-03    96   0.172E-01    0.729E-02
DAV:   5    -0.815082105833E+02   -0.12195E-03   -0.88610E-05    84   0.520E-02    0.135E-02
DAV:   6    -0.815082157354E+02   -0.51520E-05   -0.57195E-06    60   0.161E-02    0.549E-03
DAV:   7    -0.815082197934E+02   -0.40581E-05   -0.26420E-06    60   0.831E-03
   75 T=  9028. E= -.71005544E+02 F= -.81508220E+02 E0= -.81508220E+02  EK= 0.10503E+02 SP= 0.00E+00 SK= 0.00E+00
       N       E                     dE             d eps       ncg     rms          rms(c)
DAV:   1    -0.798673005387E+02    0.16409E+01   -0.10263E+00    72   0.102E+01    0.570E-01
DAV:   2    -0.798832545800E+02   -0.15954E-01   -0.19510E-01    96   0.244E+00    0.608E-01
DAV:   3    -0.798808812309E+02    0.23733E-02   -0.16012E-03    96   0.203E-01    0.515E-01
DAV:   4    -0.798828712983E+02   -0.19901E-02   -0.24631E-03    72   0.243E-01    0.132E-01
DAV:   5    -0.798831271372E+02   -0.25584E-03   -0.24510E-04    72   0.858E-02    0.283E-02
DAV:   6    -0.798831451805E+02   -0.18043E-04   -0.23562E-05    84   0.256E-02    0.157E-02
DAV:   7    -0.798831571180E+02   -0.11938E-04   -0.58553E-06    48   0.112E-02    0.625E-03
DAV:   8    -0.798831649376E+02   -0.78196E-05   -0.13523E-06    60   0.556E-03    0.169E-03
DAV:   9    -0.798831692841E+02   -0.43466E-05   -0.28924E-07    48   0.242E-03
   76 T=  7652. E= -.70981338E+02 F= -.79883169E+02 E0= -.79883169E+02  EK= 0.89018E+01 SP= 0.00E+00 SK= 0.00E+00
       N       E                     dE             d eps       ncg     rms          rms(c)
DAV:   1    -0.776021628288E+02    0.22810E+01   -0.19152E+00    72   0.110E+01    0.849E-01
DAV:   2    -0.776128412261E+02   -0.10678E-01   -0.22697E-01    84   0.260E+00    0.551E-01
DAV:   3    -0.776106609605E+02    0.21803E-02   -0.45612E-03    96   0.348E-01    0.366E-01
DAV:   4    -0.776121535341E+02   -0.14926E-02   -0.24777E-03    84   0.255E-01    0.135E-01
DAV:   5    -0.776123276397E+02   -0.17411E-03   -0.19818E-04    84   0.866E-02    0.333E-02
DAV:   6    -0.776123659367E+02   -0.38297E-04   -0.42029E-05    84   0.276E-02    0.119E-02
DAV:   7    -0.776123785386E+02   -0.12602E-04   -0.20969E-06    60   0.759E-03    0.614E-03
DAV:   8    -0.776123968523E+02   -0.18314E-04   -0.86589E-07    60   0.491E-03    0.110E-03
DAV:   9    -0.776124071995E+02   -0.10347E-04   -0.21342E-07    60   0.213E-03    0.758E-04
DAV:  10    -0.776124272029E+02   -0.20003E-04   -0.51913E-07    60   0.300E-03    0.579E-04
DAV:  11    -0.776124300182E+02   -0.28153E-05   -0.10477E-07    60   0.128E-03
   77 T=  5866. E= -.70788260E+02 F= -.77612430E+02 E0= -.77612430E+02  EK= 0.68242E+01 SP= 0.00E+00 SK= 0.00E+00
       N       E                     dE             d eps       ncg     rms          rms(c)
DAV:   1    -0.775419598951E+02    0.70467E-01   -0.25971E+00    72   0.117E+01    0.134E+00
DAV:   2    -0.775410233045E+02    0.93659E-03   -0.23044E-01    96   0.259E+00    0.583E-01
DAV:   3    -0.775386546315E+02    0.23687E-02   -0.14392E-02    96   0.631E-01    0.240E-01
DAV:   4    -0.775394684977E+02   -0.81387E-03   -0.17947E-03    96   0.250E-01    0.105E-01
DAV:   5    -0.775396774125E+02   -0.20891E-03   -0.11679E-04    96   0.661E-02    0.417E-02
DAV:   6    -0.775397332734E+02   -0.55861E-04   -0.32894E-05    96   0.266E-02    0.122E-02
DAV:   7    -0.775397383148E+02   -0.50413E-05   -0.74588E-06    84   0.142E-02    0.554E-03
DAV:   8    -0.775397428081E+02   -0.44934E-05   -0.74404E-07    72   0.519E-03
   78 T=  5831. E= -.70756174E+02 F= -.77539743E+02 E0= -.77539743E+02  EK= 0.67836E+01 SP= 0.00E+00 SK= 0.00E+00
       N       E                     dE             d eps       ncg     rms          rms(c)
DAV:   1    -0.799881895104E+02   -0.24485E+01   -0.12769E+00    96   0.103E+01    0.925E-01
DAV:   2    -0.799999500447E+02   -0.11761E-01   -0.20001E-01    96   0.254E+00    0.383E-01
DAV:   3    -0.799988405960E+02    0.11094E-02   -0.52756E-03    96   0.385E-01    0.204E-01
DAV:   4    -0.799993975204E+02   -0.55692E-03   -0.13487E-03    96   0.203E-01    0.880E-02
DAV:   5    -0.799995489530E+02   -0.15143E-03   -0.12051E-04    84   0.684E-02    0.299E-02
DAV:   6    -0.799995950544E+02   -0.46101E-04   -0.18399E-05    84   0.206E-02    0.945E-03
DAV:   7    -0.799996043587E+02   -0.93043E-05   -0.29759E-06    60   0.938E-03    0.423E-03
DAV:   8    -0.799996134369E+02   -0.90782E-05   -0.64521E-07    60   0.420E-03    0.132E-03
DAV:   9    -0.799996201013E+02   -0.66644E-05   -0.17990E-07    48   0.211E-03    0.683E-04
DAV:  10    -0.799996305963E+02   -0.10495E-04   -0.32485E-07    48   0.257E-03    0.685E-04
DAV:  11    -0.799996374427E+02   -0.68463E-05   -0.19224E-07    48   0.164E-03    0.396E-04
DAV:  12    -0.799996405941E+02   -0.31514E-05   -0.11053E-07    48   0.120E-03
   79 T=  7750. E= -.70983797E+02 F= -.79999641E+02 E0= -.79999641E+02  EK= 0.90158E+01 SP= 0.00E+00 SK= 0.00E+00
       N       E                     dE             d eps       ncg     rms          rms(c)
DAV:   1    -0.817272342573E+02   -0.17276E+01   -0.91436E-01    96   0.107E+01    0.817E-01
DAV:   2    -0.817454234933E+02   -0.18189E-01   -0.26227E-01    84   0.285E+00    0.574E-01
DAV:   3    -0.817445988595E+02    0.82463E-03   -0.28458E-03    96   0.282E-01    0.419E-01
DAV:   4    -0.817457035808E+02   -0.11047E-02   -0.17224E-03    84   0.239E-01    0.954E-02
DAV:   5    -0.817457039359E+02   -0.35517E-06   -0.21798E-04    72   0.970E-02    0.229E-02
DAV:   6    -0.817457126829E+02   -0.87470E-05   -0.44101E-05    84   0.333E-02    0.137E-02
DAV:   7    -0.817457150855E+02   -0.24026E-05   -0.28525E-06    48   0.955E-03
   80 T=  9197. E= -.71046833E+02 F= -.81745715E+02 E0= -.81745715E+02  EK= 0.10699E+02 SP= 0.00E+00 SK= 0.00E+00
       N       E                     dE             d eps       ncg     rms          rms(c)
DAV:   1    -0.813077878658E+02    0.43792E+00   -0.97429E-01    72   0.110E+01    0.900E-01
DAV:   2    -0.813287712869E+02   -0.20983E-01   -0.29642E-01    96   0.296E+00    0.431E-01
DAV:   3    -0.813282338028E+02    0.53748E-03   -0.29607E-03    84   0.286E-01    0.287E-01
DAV:   4    -0.813292041406E+02   -0.97034E-03   -0.82663E-04    84   0.178E-01    0.930E-02
DAV:   5    -0.813292653040E+02   -0.61163E-04   -0.15268E-04    72   0.820E-02    0.194E-02
DAV:   6    -0.813292715831E+02   -0.62790E-05   -0.38517E-05    84   0.325E-02    0.147E-02
DAV:   7    -0.813292745528E+02   -0.29697E-05   -0.43551E-06    48   0.124E-02
   81 T=  8918. E= -.70954436E+02 F= -.81329275E+02 E0= -.81329275E+02  EK= 0.10375E+02 SP= 0.00E+00 SK= 0.00E+00
       N       E                     dE             d eps       ncg     rms          rms(c)
DAV:   1    -0.796630377818E+02    0.16662E+01   -0.73420E-01    72   0.955E+00    0.795E-01
DAV:   2    -0.796823315723E+02   -0.19294E-01   -0.23060E-01    72   0.262E+00    0.374E-01
DAV:   3    -0.796817198215E+02    0.61175E-03   -0.19740E-03    84   0.244E-01    0.225E-01
DAV:   4    -0.796823982627E+02   -0.67844E-03   -0.73439E-04    72   0.154E-01    0.741E-02
DAV:   5    -0.796824755558E+02   -0.77293E-04   -0.98687E-05    72   0.651E-02    0.204E-02
DAV:   6    -0.796824784304E+02   -0.28746E-05   -0.24521E-05    72   0.286E-02
   82 T=  7574. E= -.70871584E+02 F= -.79682478E+02 E0= -.79682478E+02  EK= 0.88109E+01 SP= 0.00E+00 SK= 0.00E+00
       N       E                     dE             d eps       ncg     rms          rms(c)
DAV:   1    -0.779220481655E+02    0.17604E+01   -0.60568E-01    96   0.845E+00    0.506E-01
DAV:   2    -0.779364164338E+02   -0.14368E-01   -0.16915E-01    72   0.222E+00    0.392E-01
[...]
DAV:   5    -0.783425333119E+02   -0.49094E-05   -0.40135E-04    84   0.107E-01    0.472E-02
DAV:   6    -0.783426059056E+02   -0.72594E-04   -0.79957E-05    84   0.380E-02    0.159E-02
DAV:   7    -0.783426155401E+02   -0.96345E-05   -0.65896E-06    84   0.140E-02    0.818E-03
DAV:   8    -0.783426246587E+02   -0.91186E-05   -0.12967E-06    72   0.637E-03    0.398E-03
DAV:   9    -0.783426350497E+02   -0.10391E-04   -0.68530E-07    72   0.378E-03    0.109E-03
DAV:  10    -0.783426416281E+02   -0.65784E-05   -0.20048E-07    72   0.201E-03    0.599E-04
DAV:  11    -0.783426496244E+02   -0.79962E-05   -0.19944E-07    60   0.169E-03    0.441E-04
DAV:  12    -0.783426546512E+02   -0.50268E-05   -0.18755E-07    60   0.145E-03    0.310E-04
DAV:  13    -0.783426566191E+02   -0.19679E-05   -0.93754E-08    72   0.993E-04
  480 T=  6455. E= -.70833146E+02 F= -.78342657E+02 E0= -.78342657E+02  EK= 0.75095E+01 SP= 0.00E+00 SK= 0.00E+00
       N       E                     dE             d eps       ncg     rms          rms(c)
DAV:   1    -0.794726306602E+02   -0.11300E+01   -0.11572E+00    96   0.938E+00    0.860E-01
DAV:   2    -0.794835796912E+02   -0.10949E-01   -0.18587E-01    72   0.231E+00    0.440E-01
DAV:   3    -0.794819865703E+02    0.15931E-02   -0.39949E-03    96   0.312E-01    0.277E-01
DAV:   4    -0.794828981048E+02   -0.91153E-03   -0.14891E-03    72   0.222E-01    0.161E-01
DAV:   5    -0.794829796167E+02   -0.81512E-04   -0.41199E-04    84   0.120E-01    0.441E-02
DAV:   6    -0.794830696701E+02   -0.90053E-04   -0.64972E-05    72   0.353E-02    0.151E-02
DAV:   7    -0.794830729860E+02   -0.33159E-05   -0.40865E-06    72   0.120E-02
  481 T=  7349. E= -.70933333E+02 F= -.79483073E+02 E0= -.79483073E+02  EK= 0.85497E+01 SP= 0.00E+00 SK= 0.00E+00
       N       E                     dE             d eps       ncg     rms          rms(c)
DAV:   1    -0.799738841901E+02   -0.49081E+00   -0.78739E-01    96   0.957E+00    0.782E-01
DAV:   2    -0.799895611415E+02   -0.15677E-01   -0.22218E-01    72   0.244E+00    0.486E-01
DAV:   3    -0.799883935515E+02    0.11676E-02   -0.22224E-03    96   0.246E-01    0.332E-01
DAV:   4    -0.799898999142E+02   -0.15064E-02   -0.10293E-03    72   0.193E-01    0.165E-01
DAV:   5    -0.799900007443E+02   -0.10083E-03   -0.37099E-04    72   0.120E-01    0.308E-02
DAV:   6    -0.799900405485E+02   -0.39804E-04   -0.93533E-05    84   0.385E-02    0.172E-02
DAV:   7    -0.799900435067E+02   -0.29582E-05   -0.33293E-06    48   0.104E-02
  482 T=  7787. E= -.70931142E+02 F= -.79990044E+02 E0= -.79990044E+02  EK= 0.90589E+01 SP= 0.00E+00 SK= 0.00E+00
       N       E                     dE             d eps       ncg     rms          rms(c)
DAV:   1    -0.795557292883E+02    0.43431E+00   -0.83545E-01    72   0.957E+00    0.850E-01
DAV:   2    -0.795715261183E+02   -0.15797E-01   -0.21434E-01    84   0.245E+00    0.419E-01
DAV:   3    -0.795704822908E+02    0.10438E-02   -0.23360E-03    72   0.256E-01    0.274E-01
DAV:   4    -0.795714489145E+02   -0.96662E-03   -0.86002E-04    72   0.175E-01    0.137E-01
DAV:   5    -0.795716163256E+02   -0.16741E-03   -0.30744E-04    72   0.110E-01    0.284E-02
DAV:   6    -0.795716395029E+02   -0.23177E-04   -0.73987E-05    72   0.442E-02    0.192E-02
DAV:   7    -0.795716417252E+02   -0.22223E-05   -0.51616E-06    48   0.157E-02
  483 T=  7475. E= -.70875587E+02 F= -.79571642E+02 E0= -.79571642E+02  EK= 0.86961E+01 SP= 0.00E+00 SK= 0.00E+00
       N       E                     dE             d eps       ncg     rms          rms(c)
DAV:   1    -0.788405040099E+02    0.73114E+00   -0.55316E-01    96   0.845E+00    0.758E-01
DAV:   2    -0.788542632800E+02   -0.13759E-01   -0.15446E-01    72   0.204E+00    0.375E-01
DAV:   3    -0.788535064587E+02    0.75682E-03   -0.18573E-03    72   0.247E-01    0.229E-01
DAV:   4    -0.788541458863E+02   -0.63943E-03   -0.59563E-04    72   0.159E-01    0.118E-01
DAV:   5    -0.788543013983E+02   -0.15551E-03   -0.24923E-04    72   0.100E-01    0.348E-02
DAV:   6    -0.788543001622E+02    0.12361E-05   -0.57809E-05    84   0.418E-02    0.169E-02
DAV:   7    -0.788543008641E+02   -0.70194E-06   -0.15334E-05    84   0.190E-02
  484 T=  6887. E= -.70842721E+02 F= -.78854301E+02 E0= -.78854301E+02  EK= 0.80116E+01 SP= 0.00E+00 SK= 0.00E+00
       N       E                     dE             d eps       ncg     rms          rms(c)
DAV:   1    -0.782790188905E+02    0.57528E+00   -0.35969E-01    72   0.782E+00    0.402E-01
DAV:   2    -0.782919880894E+02   -0.12969E-01   -0.14304E-01    72   0.204E+00    0.350E-01
DAV:   3    -0.782909291068E+02    0.10590E-02   -0.12144E-03    84   0.189E-01    0.263E-01
DAV:   4    -0.782916376685E+02   -0.70856E-03   -0.22274E-04    72   0.895E-02    0.161E-01
DAV:   5    -0.782922248694E+02   -0.58720E-03   -0.32182E-04    72   0.108E-01    0.431E-02
DAV:   6    -0.782922345235E+02   -0.96541E-05   -0.54378E-05    72   0.446E-02    0.187E-02
DAV:   7    -0.782922439681E+02   -0.94446E-05   -0.81498E-06    60   0.138E-02    0.108E-02
DAV:   8    -0.782922539255E+02   -0.99574E-05   -0.21241E-06    48   0.887E-03    0.355E-03
DAV:   9    -0.782922567596E+02   -0.28341E-05   -0.47632E-07    60   0.434E-03
  485 T=  6405. E= -.70841534E+02 F= -.78292257E+02 E0= -.78292257E+02  EK= 0.74507E+01 SP= 0.00E+00 SK= 0.00E+00
       N       E                     dE             d eps       ncg     rms          rms(c)
DAV:   1    -0.779360163766E+02    0.35624E+00   -0.32769E-01    72   0.746E+00    0.377E-01
DAV:   2    -0.779471165257E+02   -0.11100E-01   -0.12039E-01    72   0.187E+00    0.326E-01
DAV:   3    -0.779462094879E+02    0.90704E-03   -0.10084E-03    84   0.168E-01    0.247E-01
DAV:   4    -0.779469604884E+02   -0.75100E-03   -0.30735E-04    72   0.995E-02    0.141E-01
DAV:   5    -0.779473658760E+02   -0.40539E-03   -0.27593E-04    72   0.101E-01    0.431E-02
DAV:   6    -0.779473930887E+02   -0.27213E-04   -0.50411E-05    72   0.419E-02    0.179E-02
DAV:   7    -0.779474056331E+02   -0.12544E-04   -0.63474E-06    72   0.135E-02    0.104E-02
DAV:   8    -0.779474169038E+02   -0.11271E-04   -0.26147E-06    48   0.968E-03    0.384E-03
DAV:   9    -0.779474225389E+02   -0.56351E-05   -0.54819E-07    60   0.434E-03    0.181E-03
DAV:  10    -0.779474283278E+02   -0.57889E-05   -0.16297E-07    48   0.204E-03    0.938E-04
DAV:  11    -0.779474321606E+02   -0.38328E-05   -0.58387E-08    60   0.120E-03
  486 T=  6104. E= -.70846872E+02 F= -.77947432E+02 E0= -.77947432E+02  EK= 0.71006E+01 SP= 0.00E+00 SK= 0.00E+00
       N       E                     dE             d eps       ncg     rms          rms(c)
DAV:   1    -0.778173485999E+02    0.13008E+00   -0.53411E-01    72   0.752E+00    0.454E-01
DAV:   2    -0.778259505815E+02   -0.86020E-02   -0.10787E-01    72   0.181E+00    0.341E-01
DAV:   3    -0.778250596651E+02    0.89092E-03   -0.13222E-03    84   0.203E-01    0.237E-01
DAV:   4    -0.778259751297E+02   -0.91546E-03   -0.74026E-04    72   0.150E-01    0.151E-01
DAV:   5    -0.778262313174E+02   -0.25619E-03   -0.37364E-04    84   0.113E-01    0.378E-02
DAV:   6    -0.778262690735E+02   -0.37756E-04   -0.67941E-05    84   0.399E-02    0.154E-02
DAV:   7    -0.778262750867E+02   -0.60132E-05   -0.72573E-06    72   0.156E-02    0.789E-03
DAV:   8    -0.778262788873E+02   -0.38006E-05   -0.18130E-06    60   0.816E-03
  487 T=  6017. E= -.70826589E+02 F= -.77826279E+02 E0= -.77826279E+02  EK= 0.69997E+01 SP= 0.00E+00 SK= 0.00E+00
       N       E                     dE             d eps       ncg     rms          rms(c)
DAV:   1    -0.782444820116E+02   -0.41821E+00   -0.76712E-01    72   0.806E+00    0.619E-01
DAV:   2    -0.782507268445E+02   -0.62448E-02   -0.11723E-01    84   0.192E+00    0.316E-01
DAV:   3    -0.782499275199E+02    0.79932E-03   -0.27398E-03    96   0.287E-01    0.203E-01
DAV:   4    -0.782504005147E+02   -0.47299E-03   -0.85010E-04    72   0.167E-01    0.135E-01
DAV:   5    -0.782508986272E+02   -0.49811E-03   -0.33483E-04    72   0.103E-01    0.398E-02
DAV:   6    -0.782509999549E+02   -0.10133E-03   -0.67313E-05    84   0.403E-02    0.162E-02
DAV:   7    -0.782510140958E+02   -0.14141E-04   -0.80199E-06    72   0.156E-02    0.763E-03
DAV:   8    -0.782510204904E+02   -0.63945E-05   -0.16822E-06    60   0.704E-03    0.387E-03
DAV:   9    -0.782510281262E+02   -0.76358E-05   -0.61771E-07    60   0.366E-03    0.144E-03
DAV:  10    -0.782510317192E+02   -0.35930E-05   -0.17634E-07    60   0.183E-03
  488 T=  6388. E= -.70819695E+02 F= -.78251032E+02 E0= -.78251032E+02  EK= 0.74313E+01 SP= 0.00E+00 SK= 0.00E+00
       N       E                     dE             d eps       ncg     rms          rms(c)
DAV:   1    -0.792788947545E+02   -0.10279E+01   -0.49372E-01    72   0.822E+00    0.604E-01
DAV:   2    -0.792919571436E+02   -0.13062E-01   -0.15669E-01    96   0.216E+00    0.388E-01
DAV:   3    -0.792909903129E+02    0.96683E-03   -0.17400E-03    96   0.244E-01    0.289E-01
DAV:   4    -0.792914069476E+02   -0.41663E-03   -0.40288E-04    72   0.120E-01    0.222E-01
DAV:   5    -0.792923101672E+02   -0.90322E-03   -0.55298E-04    72   0.135E-01    0.481E-02
DAV:   6    -0.792924025825E+02   -0.92415E-04   -0.90175E-05    72   0.480E-02    0.169E-02
DAV:   7    -0.792924101124E+02   -0.75299E-05   -0.54354E-06    72   0.127E-02    0.998E-03
DAV:   8    -0.792924153756E+02   -0.52632E-05   -0.21538E-06    48   0.753E-03    0.469E-03
DAV:   9    -0.792924196402E+02   -0.42646E-05   -0.68880E-07    60   0.414E-03
  489 T=  7226. E= -.70885549E+02 F= -.79292420E+02 E0= -.79292420E+02  EK= 0.84069E+01 SP= 0.00E+00 SK= 0.00E+00
       N       E                     dE             d eps       ncg     rms          rms(c)
DAV:   1    -0.801315356274E+02   -0.83912E+00   -0.63818E-01    84   0.896E+00    0.556E-01
DAV:   2    -0.801465250267E+02   -0.14989E-01   -0.17362E-01    72   0.219E+00    0.475E-01
DAV:   3    -0.801449152410E+02    0.16098E-02   -0.17603E-03    96   0.233E-01    0.361E-01
DAV:   4    -0.801461771705E+02   -0.12619E-02   -0.94856E-04    72   0.166E-01    0.216E-01
DAV:   5    -0.801466949818E+02   -0.51781E-03   -0.74074E-04    72   0.146E-01    0.346E-02
DAV:   6    -0.801467221020E+02   -0.27120E-04   -0.13220E-04    84   0.490E-02    0.171E-02
DAV:   7    -0.801467261386E+02   -0.40366E-05   -0.71700E-06    60   0.137E-02
  490 T=  7932. E= -.70919188E+02 F= -.80146726E+02 E0= -.80146726E+02  EK= 0.92275E+01 SP= 0.00E+00 SK= 0.00E+00
       N       E                     dE             d eps       ncg     rms          rms(c)
DAV:   1    -0.804298359281E+02   -0.28311E+00   -0.13178E+00    72   0.104E+01    0.799E-01
DAV:   2    -0.804418050149E+02   -0.11969E-01   -0.20849E-01    84   0.237E+00    0.444E-01
DAV:   3    -0.804393850931E+02    0.24199E-02   -0.53971E-03    84   0.391E-01    0.269E-01
DAV:   4    -0.804402071806E+02   -0.82209E-03   -0.17632E-03    72   0.228E-01    0.140E-01
DAV:   5    -0.804405585041E+02   -0.35132E-03   -0.31389E-04    72   0.101E-01    0.411E-02
DAV:   6    -0.804406231063E+02   -0.64602E-04   -0.61340E-05    84   0.357E-02    0.133E-02
DAV:   7    -0.804406287013E+02   -0.55950E-05   -0.19517E-06    60   0.908E-03    0.780E-03
DAV:   8    -0.804406375197E+02   -0.88184E-05   -0.22951E-06    60   0.671E-03    0.182E-03
DAV:   9    -0.804406410803E+02   -0.35606E-05   -0.29903E-07    60   0.267E-03
  491 T=  8213. E= -.70885575E+02 F= -.80440641E+02 E0= -.80440641E+02  EK= 0.95551E+01 SP= 0.00E+00 SK= 0.00E+00
       N       E                     dE             d eps       ncg     rms          rms(c)
DAV:   1    -0.805495764440E+02   -0.10894E+00   -0.10278E+00    72   0.103E+01    0.888E-01
DAV:   2    -0.805662538117E+02   -0.16677E-01   -0.23507E-01    96   0.255E+00    0.522E-01
DAV:   3    -0.805646064278E+02    0.16474E-02   -0.39102E-03    96   0.335E-01    0.326E-01
DAV:   4    -0.805659545936E+02   -0.13482E-02   -0.14420E-03    96   0.201E-01    0.144E-01
DAV:   5    -0.805663032269E+02   -0.34863E-03   -0.22647E-04    96   0.906E-02    0.354E-02
DAV:   6    -0.805663418165E+02   -0.38590E-04   -0.58558E-05    84   0.303E-02    0.158E-02
DAV:   7    -0.805663451629E+02   -0.33465E-05   -0.32471E-06    60   0.984E-03
  492 T=  8276. E= -.70938985E+02 F= -.80566345E+02 E0= -.80566345E+02  EK= 0.96274E+01 SP= 0.00E+00 SK= 0.00E+00
       N       E                     dE             d eps       ncg     rms          rms(c)
DAV:   1    -0.799743721973E+02    0.59197E+00   -0.82987E-01    72   0.991E+00    0.640E-01
DAV:   2    -0.799929869023E+02   -0.18615E-01   -0.22723E-01    72   0.245E+00    0.519E-01
DAV:   3    -0.799914255197E+02    0.15614E-02   -0.21194E-03    96   0.249E-01    0.383E-01
DAV:   4    -0.799929563892E+02   -0.15309E-02   -0.11698E-03    72   0.170E-01    0.154E-01
DAV:   5    -0.799933061709E+02   -0.34978E-03   -0.29680E-04    72   0.102E-01    0.356E-02
DAV:   6    -0.799933108260E+02   -0.46551E-05   -0.48481E-05    84   0.385E-02
  493 T=  7763. E= -.70962508E+02 F= -.79993311E+02 E0= -.79993311E+02  EK= 0.90308E+01 SP= 0.00E+00 SK= 0.00E+00
       N       E                     dE             d eps       ncg     rms          rms(c)
DAV:   1    -0.786485773026E+02    0.13447E+01   -0.17861E+00    72   0.105E+01    0.841E-01
DAV:   2    -0.786568742275E+02   -0.82969E-02   -0.20882E-01    96   0.241E+00    0.533E-01
DAV:   3    -0.786547720924E+02    0.21021E-02   -0.56243E-03    96   0.402E-01    0.307E-01
DAV:   4    -0.786557253555E+02   -0.95326E-03   -0.19596E-03    96   0.252E-01    0.145E-01
DAV:   5    -0.786558176127E+02   -0.92257E-04   -0.33205E-04    96   0.104E-01    0.547E-02
DAV:   6    -0.786558707821E+02   -0.53169E-04   -0.46987E-05    96   0.358E-02    0.174E-02
DAV:   7    -0.786558889551E+02   -0.18173E-04   -0.10774E-05    96   0.159E-02    0.724E-03
DAV:   8    -0.786559019573E+02   -0.13002E-04   -0.72722E-07    72   0.553E-03    0.305E-03
DAV:   9    -0.786559130237E+02   -0.11066E-04   -0.33430E-07    72   0.314E-03    0.860E-04
DAV:  10    -0.786559194170E+02   -0.63933E-05   -0.11839E-07    60   0.155E-03    0.540E-04
DAV:  11    -0.786559308502E+02   -0.11433E-04   -0.22048E-07    60   0.190E-03    0.336E-04
DAV:  12    -0.786559348199E+02   -0.39697E-05   -0.11500E-07    60   0.116E-03
  494 T=  6711. E= -.70849079E+02 F= -.78655935E+02 E0= -.78655935E+02  EK= 0.78069E+01 SP= 0.00E+00 SK= 0.00E+00
       N       E                     dE             d eps       ncg     rms          rms(c)
DAV:   1    -0.781095288120E+02    0.54640E+00   -0.19310E+00    96   0.104E+01    0.976E-01
DAV:   2    -0.781178512195E+02   -0.83224E-02   -0.20529E-01    72   0.233E+00    0.502E-01
DAV:   3    -0.781159775492E+02    0.18737E-02   -0.68069E-03    96   0.419E-01    0.269E-01
DAV:   4    -0.781172105991E+02   -0.12330E-02   -0.22689E-03    96   0.262E-01    0.136E-01
DAV:   5    -0.781172577668E+02   -0.47168E-04   -0.33161E-04    84   0.984E-02    0.479E-02
DAV:   6    -0.781173322476E+02   -0.74481E-04   -0.63701E-05    96   0.374E-02    0.140E-02
DAV:   7    -0.781173445542E+02   -0.12307E-04   -0.78178E-06    84   0.154E-02    0.678E-03
DAV:   8    -0.781173518165E+02   -0.72623E-05   -0.11862E-06    72   0.609E-03    0.306E-03
DAV:   9    -0.781173584441E+02   -0.66276E-05   -0.55916E-07    72   0.341E-03    0.850E-04
DAV:  10    -0.781173618077E+02   -0.33636E-05   -0.14506E-07    72   0.169E-03
  495 T=  6287. E= -.70803229E+02 F= -.78117362E+02 E0= -.78117362E+02  EK= 0.73141E+01 SP= 0.00E+00 SK= 0.00E+00
       N       E                     dE             d eps       ncg     rms          rms(c)
DAV:   1    -0.789553531879E+02   -0.83799E+00   -0.14711E+00    96   0.975E+00    0.909E-01
DAV:   2    -0.789617420778E+02   -0.63889E-02   -0.16834E-01    96   0.219E+00    0.493E-01
DAV:   3    -0.789601209268E+02    0.16212E-02   -0.49705E-03    96   0.349E-01    0.279E-01
DAV:   4    -0.789612209375E+02   -0.11000E-02   -0.19946E-03    72   0.244E-01    0.153E-01
DAV:   5    -0.789611880361E+02    0.32901E-04   -0.35681E-04    72   0.109E-01    0.481E-02
DAV:   6    -0.789612733676E+02   -0.85332E-04   -0.73234E-05    96   0.361E-02    0.172E-02
DAV:   7    -0.789612794454E+02   -0.60778E-05   -0.74730E-06    72   0.157E-02    0.850E-03
DAV:   8    -0.789612851876E+02   -0.57422E-05   -0.25498E-06    60   0.900E-03    0.397E-03
DAV:   9    -0.789612905288E+02   -0.53412E-05   -0.63689E-07    60   0.454E-03    0.134E-03
DAV:  10    -0.789612942977E+02   -0.37689E-05   -0.15541E-07    48   0.190E-03
  496 T=  6937. E= -.70890824E+02 F= -.78961294E+02 E0= -.78961294E+02  EK= 0.80705E+01 SP= 0.00E+00 SK= 0.00E+00
       N       E                     dE             d eps       ncg     rms          rms(c)
DAV:   1    -0.798444467283E+02   -0.88316E+00   -0.83582E-01    84   0.943E+00    0.755E-01
DAV:   2    -0.798597216736E+02   -0.15275E-01   -0.21463E-01    72   0.242E+00    0.442E-01
DAV:   3    -0.798582841519E+02    0.14375E-02   -0.24618E-03    96   0.252E-01    0.306E-01
DAV:   4    -0.798593958259E+02   -0.11117E-02   -0.12268E-03    72   0.199E-01    0.159E-01
DAV:   5    -0.798595096756E+02   -0.11385E-03   -0.37401E-04    72   0.120E-01    0.397E-02
DAV:   6    -0.798595640671E+02   -0.54392E-04   -0.74134E-05    84   0.358E-02    0.145E-02
DAV:   7    -0.798595667660E+02   -0.26989E-05   -0.24436E-06    48   0.874E-03
  497 T=  7665. E= -.70942955E+02 F= -.79859567E+02 E0= -.79859567E+02  EK= 0.89166E+01 SP= 0.00E+00 SK= 0.00E+00
       N       E                     dE             d eps       ncg     rms          rms(c)
DAV:   1    -0.797977973267E+02    0.61767E-01   -0.84236E-01    96   0.979E+00    0.857E-01
DAV:   2    -0.798141440346E+02   -0.16347E-01   -0.22588E-01    72   0.248E+00    0.488E-01
DAV:   3    -0.798131581407E+02    0.98589E-03   -0.22367E-03    96   0.244E-01    0.332E-01
DAV:   4    -0.798144578108E+02   -0.12997E-02   -0.12166E-03    72   0.201E-01    0.125E-01
DAV:   5    -0.798144384001E+02    0.19411E-04   -0.27882E-04    72   0.108E-01    0.279E-02
DAV:   6    -0.798144566805E+02   -0.18280E-04   -0.66665E-05    72   0.400E-02    0.173E-02
DAV:   7    -0.798144584728E+02   -0.17922E-05   -0.47886E-06    60   0.137E-02
  498 T=  7664. E= -.70898494E+02 F= -.79814458E+02 E0= -.79814458E+02  EK= 0.89160E+01 SP= 0.00E+00 SK= 0.00E+00
       N       E                     dE             d eps       ncg     rms          rms(c)
DAV:   1    -0.791754986538E+02    0.63896E+00   -0.71407E-01    72   0.901E+00    0.735E-01
DAV:   2    -0.791911303635E+02   -0.15632E-01   -0.19408E-01    72   0.228E+00    0.406E-01
DAV:   3    -0.791900728482E+02    0.10575E-02   -0.19418E-03    96   0.225E-01    0.271E-01
DAV:   4    -0.791911090383E+02   -0.10362E-02   -0.11644E-03    72   0.176E-01    0.105E-01
DAV:   5    -0.791912158631E+02   -0.10682E-03   -0.19887E-04    72   0.882E-02    0.253E-02
DAV:   6    -0.791912279306E+02   -0.12067E-04   -0.55162E-05    84   0.381E-02    0.161E-02
DAV:   7    -0.791912287655E+02   -0.83492E-06   -0.43909E-06    48   0.136E-02
  499 T=  7168. E= -.70851961E+02 F= -.79191229E+02 E0= -.79191229E+02  EK= 0.83393E+01 SP= 0.00E+00 SK= 0.00E+00
       N       E                     dE             d eps       ncg     rms          rms(c)
DAV:   1    -0.785706747308E+02    0.62055E+00   -0.43454E-01    84   0.814E+00    0.526E-01
DAV:   2    -0.785833735903E+02   -0.12699E-01   -0.14007E-01    72   0.198E+00    0.360E-01
DAV:   3    -0.785825732530E+02    0.80034E-03   -0.12058E-03    96   0.187E-01    0.246E-01
DAV:   4    -0.785837586676E+02   -0.11854E-02   -0.42511E-04    72   0.123E-01    0.871E-02
DAV:   5    -0.785838701029E+02   -0.11144E-03   -0.13243E-04    72   0.814E-02    0.243E-02
DAV:   6    -0.785838684212E+02    0.16816E-05   -0.33450E-05    72   0.338E-02
  500 T=  6655. E= -.70842107E+02 F= -.78583868E+02 E0= -.78583868E+02  EK= 0.77418E+01 SP= 0.00E+00 SK= 0.00E+00
