          18
 Energy:  -72.1725937000000     
 X  0.0000000E+00  0.0000000E+00  0.0000000E+00
 X   14.50000      0.0000000E+00  0.0000000E+00
 X  0.0000000E+00   14.50000      0.0000000E+00
 X  0.0000000E+00  0.0000000E+00   14.50000    
 X   14.50000       14.50000      0.0000000E+00
 X   14.50000      0.0000000E+00   14.50000    
 X  0.0000000E+00   14.50000       14.50000    
 X   14.50000       14.50000       14.50000    
 N   0.0000000E+00  0.0000000E+00  0.0000000E+00
 N    1.100000      0.0000000E+00  0.0000000E+00
 N   0.5000000       14.00000       2.000000    
 N   0.5000000      0.5000000       2.000000    
 N    2.000000       1.900000      0.0000000E+00
 N    2.000000       2.900000      0.0000000E+00
 N    2.000000       5.000000      0.0000000E+00
 N    2.000000       5.000000       1.000000    
 N    2.000000       3.000000       5.000000    
 N    3.000000       3.000000       5.000000    
          18
 Energy:  -75.7435975000000     
 X  0.0000000E+00  0.0000000E+00  0.0000000E+00
 X   14.50000      0.0000000E+00  0.0000000E+00
 X  0.0000000E+00   14.50000      0.0000000E+00
 X  0.0000000E+00  0.0000000E+00   14.50000    
 X   14.50000       14.50000      0.0000000E+00
 X   14.50000      0.0000000E+00   14.50000    
 X  0.0000000E+00   14.50000       14.50000    
 X   14.50000       14.50000       14.50000    
 N    14.48922       14.49572      6.6000000E-03
 N    1.106770       14.49242       14.49868    
 N   0.5097300       13.97895       2.001760    
 N   0.4943400      0.5193400       2.010520    
 N    2.004350       1.884680       14.48689    
 N    1.996690       2.919680      6.7900000E-03
 N    1.998730       4.995670       14.47939    
 N    2.002040       5.000240       1.020420    
 N    1.974220       3.003230       4.995100    
 N    3.023890       3.010060       4.993840    
          18
 Energy:  -77.8726104000000     
 X  0.0000000E+00  0.0000000E+00  0.0000000E+00
 X   14.50000      0.0000000E+00  0.0000000E+00
 X  0.0000000E+00   14.50000      0.0000000E+00
 X  0.0000000E+00  0.0000000E+00   14.50000    
 X   14.50000       14.50000      0.0000000E+00
 X   14.50000      0.0000000E+00   14.50000    
 X  0.0000000E+00   14.50000       14.50000    
 X   14.50000       14.50000       14.50000    
 N    14.47724       14.49152      1.0560000E-02
 N    1.113940       14.48304       14.49488    
 N   0.5195800       13.94661       2.006040    
 N   0.4884300      0.5499600       2.023680    
 N    2.009840       1.858600       14.47358    
 N    1.993160       2.948800      1.3190000E-02
 N    1.997450       4.993260       14.44819    
 N    2.004140       5.001660       1.052010    
 N    1.939000       3.006380       4.990210    
 N    3.057220       3.020170       4.987660    
          18
 Energy:  -77.3733648000000     
 X  0.0000000E+00  0.0000000E+00  0.0000000E+00
 X   14.50000      0.0000000E+00  0.0000000E+00
 X  0.0000000E+00   14.50000      0.0000000E+00
 X  0.0000000E+00  0.0000000E+00   14.50000    
 X   14.50000       14.50000      0.0000000E+00
 X   14.50000      0.0000000E+00   14.50000    
 X  0.0000000E+00   14.50000       14.50000    
 X   14.50000       14.50000       14.50000    
 N    14.46577       14.48740      1.2030000E-02
 N    1.119790       14.47188       14.48876    
 N   0.5294400       13.91197       2.012800    
 N   0.4823600      0.5828400       2.039260    
 N    2.016450       1.830230       14.46014    
 N    1.989420       2.978670      1.9029999E-02
 N    1.996190       4.992880       14.41535    
 N    2.006280       5.004360       1.085870    
 N    1.903360       3.009500       4.985300    
 N    3.090950       3.030270       4.981470    
          18
 Energy:  -75.5921465000000     
 X  0.0000000E+00  0.0000000E+00  0.0000000E+00
 X   14.50000      0.0000000E+00  0.0000000E+00
 X  0.0000000E+00   14.50000      0.0000000E+00
 X  0.0000000E+00  0.0000000E+00   14.50000    
 X   14.50000       14.50000      0.0000000E+00
 X   14.50000      0.0000000E+00   14.50000    
 X  0.0000000E+00   14.50000       14.50000    
 X   14.50000       14.50000       14.50000    
 N    14.45610       14.48331      1.1150000E-02
 N    1.122990       14.45899       14.48054    
 N   0.5391200       13.88084       2.021970    
 N   0.4763600      0.6121900       2.056940    
 N    2.024120       1.805310       14.44681    
 N    1.985540       3.003380      2.4010001E-02
 N    1.994990       4.994590       14.38656    
 N    2.008410       5.008420       1.116360    
 N    1.872620       3.012700       4.980370    
 N    3.119770       3.040270       4.975280    
          18
 Energy:  -73.8040071000000     
 X  0.0000000E+00  0.0000000E+00  0.0000000E+00
 X   14.50000      0.0000000E+00  0.0000000E+00
 X  0.0000000E+00   14.50000      0.0000000E+00
 X  0.0000000E+00  0.0000000E+00   14.50000    
 X   14.50000       14.50000      0.0000000E+00
 X   14.50000      0.0000000E+00   14.50000    
 X  0.0000000E+00   14.50000       14.50000    
 X   14.50000       14.50000       14.50000    
 N    14.44910       14.47923      8.1099998E-03
 N    1.122660       14.44444       14.47045    
 N   0.5484300       13.85619       2.033460    
 N   0.4706300      0.6350300       2.076420    
 N    2.032730       1.786890       14.43382    
 N    1.981600       3.019820      2.7860001E-02
 N    1.993900       4.998390       14.36474    
 N    2.010500       5.013890       1.140610    
 N    1.849370       3.016040       4.975410    
 N    3.141090       3.050090       4.969130    
          18
 Energy:  -72.6691120000000     
 X  0.0000000E+00  0.0000000E+00  0.0000000E+00
 X   14.50000      0.0000000E+00  0.0000000E+00
 X  0.0000000E+00   14.50000      0.0000000E+00
 X  0.0000000E+00  0.0000000E+00   14.50000    
 X   14.50000       14.50000      0.0000000E+00
 X   14.50000      0.0000000E+00   14.50000    
 X  0.0000000E+00   14.50000       14.50000    
 X   14.50000       14.50000       14.50000    
 N    14.44519       14.47509      3.0600000E-03
 N    1.118380       14.42836       14.45871    
 N   0.5572300       13.83945       2.047170    
 N   0.4653400      0.6499400       2.097420    
 N    2.042170       1.776330       14.42132    
 N    1.977680       3.026590      3.0379999E-02
 N    1.992970       5.004200       14.35123    
 N    2.012540       5.020790       1.157280    
 N    1.834780       3.019580       4.970410    
 N    3.153730       3.059670       4.963020    
          18
 Energy:  -72.4524660000000     
 X  0.0000000E+00  0.0000000E+00  0.0000000E+00
 X   14.50000      0.0000000E+00  0.0000000E+00
 X  0.0000000E+00   14.50000      0.0000000E+00
 X  0.0000000E+00  0.0000000E+00   14.50000    
 X   14.50000       14.50000      0.0000000E+00
 X   14.50000      0.0000000E+00   14.50000    
 X  0.0000000E+00   14.50000       14.50000    
 X   14.50000       14.50000       14.50000    
 N    14.44444       14.47083       14.49616    
 N    1.110100       14.41088       14.44551    
 N   0.5654000       13.83130       2.062990    
 N   0.4606200      0.6562600       2.119730    
 N    2.052330       1.774120       14.40943    
 N    1.973850       3.023220      3.1470001E-02
 N    1.992220       5.011950       14.34663    
 N    2.014490       5.029070       1.165740    
 N    1.829370       3.023390       4.965370    
 N    3.157190       3.068970       4.956970    
          18
 Energy:  -73.2038790000000     
 X  0.0000000E+00  0.0000000E+00  0.0000000E+00
 X   14.50000      0.0000000E+00  0.0000000E+00
 X  0.0000000E+00   14.50000      0.0000000E+00
 X  0.0000000E+00  0.0000000E+00   14.50000    
 X   14.50000       14.50000      0.0000000E+00
 X   14.50000      0.0000000E+00   14.50000    
 X  0.0000000E+00   14.50000       14.50000    
 X   14.50000       14.50000       14.50000    
 N    14.44650       14.46642       14.48752    
 N    1.098180       14.39214       14.43100    
 N   0.5728500       13.83203       2.080850    
 N   0.4566000      0.6537000       2.143140    
 N    2.063060       1.780220       14.39823    
 N    1.970170       3.009770      3.1110000E-02
 N    1.991690       5.021570       14.35117    
 N    2.016360       5.038700       1.165730    
 N    1.833260       3.027500       4.960270    
 N    3.151320       3.077950       4.950990    
          18
 Energy:  -74.8086152000000     
 X  0.0000000E+00  0.0000000E+00  0.0000000E+00
 X   14.50000      0.0000000E+00  0.0000000E+00
 X  0.0000000E+00   14.50000      0.0000000E+00
 X  0.0000000E+00  0.0000000E+00   14.50000    
 X   14.50000       14.50000      0.0000000E+00
 X   14.50000      0.0000000E+00   14.50000    
 X  0.0000000E+00   14.50000       14.50000    
 X   14.50000       14.50000       14.50000    
 N    14.45060       14.46184       14.47729    
 N    1.083450       14.37223       14.41529    
 N   0.5795100       13.84168       2.100660    
 N   0.4533700      0.6422300       2.167490    
 N    2.074270       1.794070       14.38770    
 N    1.966710       2.986840      2.9330000E-02
 N    1.991390       5.032990       14.36480    
 N    2.018110       5.049590       1.157240    
 N    1.846320       3.031930       4.955120    
 N    3.136270       3.086600       4.945090    
          18
 Energy:  -76.9400196000000     
 X  0.0000000E+00  0.0000000E+00  0.0000000E+00
 X   14.50000      0.0000000E+00  0.0000000E+00
 X  0.0000000E+00   14.50000      0.0000000E+00
 X  0.0000000E+00  0.0000000E+00   14.50000    
 X   14.50000       14.50000      0.0000000E+00
 X   14.50000      0.0000000E+00   14.50000    
 X  0.0000000E+00   14.50000       14.50000    
 X   14.50000       14.50000       14.50000    
 N    14.45551       14.45715       14.46561    
 N    1.067170       14.35122       14.39844    
 N   0.5853200       13.85999       2.122350    
 N   0.4510100      0.6221100       2.192630    
 N    2.085880       1.814290       14.37777    
 N    1.963450       2.955880      2.6319999E-02
 N    1.991330       5.046130       14.38716    
 N    2.019740       5.061620       1.140560    
 N    1.868000       3.036730       4.949910    
 N    3.112580       3.094890       4.939260    
          18
 Energy:  -78.9430567000000     
 X  0.0000000E+00  0.0000000E+00  0.0000000E+00
 X   14.50000      0.0000000E+00  0.0000000E+00
 X  0.0000000E+00   14.50000      0.0000000E+00
 X  0.0000000E+00  0.0000000E+00   14.50000    
 X   14.50000       14.50000      0.0000000E+00
 X   14.50000      0.0000000E+00   14.50000    
 X  0.0000000E+00   14.50000       14.50000    
 X   14.50000       14.50000       14.50000    
 N    14.45959       14.45248       14.45268    
 N    1.051040       14.32911       14.38045    
 N   0.5902900       13.88623       2.145840    
 N   0.4495500      0.5940600       2.218450    
 N    2.098010       1.838040       14.36811    
 N    1.960210       2.919820      2.2460001E-02
 N    1.991500       5.060880       14.41733    
 N    2.021240       5.074670       1.116540    
 N    1.897120       3.041850       4.944640    
 N    3.081450       3.102850       4.933510    
          18
 Energy:  -79.7985491000000     
 X  0.0000000E+00  0.0000000E+00  0.0000000E+00
 X   14.50000      0.0000000E+00  0.0000000E+00
 X  0.0000000E+00   14.50000      0.0000000E+00
 X  0.0000000E+00  0.0000000E+00   14.50000    
 X   14.50000       14.50000      0.0000000E+00
 X   14.50000      0.0000000E+00   14.50000    
 X  0.0000000E+00   14.50000       14.50000    
 X   14.50000       14.50000       14.50000    
 N    14.46106       14.44803       14.43872    
 N    1.036900       14.30581       14.36130    
 N   0.5945300       13.91871       2.170960    
 N   0.4488600      0.5597900       2.244870    
 N    2.111150       1.860160       14.35803    
 N    1.956440       2.883990      1.8540001E-02
 N    1.991890       5.077100       14.45323    
 N    2.022640       5.088610       1.087210    
 N    1.931020       3.047220       4.939340    
 N    3.045500       3.110580       4.927800    
          18
 Energy:  -78.6226502000000     
 X  0.0000000E+00  0.0000000E+00  0.0000000E+00
 X   14.50000      0.0000000E+00  0.0000000E+00
 X  0.0000000E+00   14.50000      0.0000000E+00
 X  0.0000000E+00  0.0000000E+00   14.50000    
 X   14.50000       14.50000      0.0000000E+00
 X   14.50000      0.0000000E+00   14.50000    
 X  0.0000000E+00   14.50000       14.50000    
 X   14.50000       14.50000       14.50000    
 N    14.45849       14.44404       14.42396    
 N    1.026250       14.28122       14.34096    
 N   0.5984600       13.95373       2.197420    
 N   0.4485600      0.5229600       2.271970    
 N    2.126370       1.873230       14.34635    
 N    1.950990       2.855970      1.5820000E-02
 N    1.992360       5.094600       14.49048    
 N    2.024050       5.103330       1.056890    
 N    1.964320       3.052540       4.934050    
 N    3.010150       3.118370       4.922100    
          18
 Energy:  -76.0809881000000     
 X  0.0000000E+00  0.0000000E+00  0.0000000E+00
 X   14.50000      0.0000000E+00  0.0000000E+00
 X  0.0000000E+00   14.50000      0.0000000E+00
 X  0.0000000E+00  0.0000000E+00   14.50000    
 X   14.50000       14.50000      0.0000000E+00
 X   14.50000      0.0000000E+00   14.50000    
 X  0.0000000E+00   14.50000       14.50000    
 X   14.50000       14.50000       14.50000    
 N    14.45137       14.44068       14.40860    
 N    1.019660       14.25527       14.31949    
 N   0.6030300       13.98424       2.224620    
 N   0.4476800      0.4906400       2.300090    
 N    2.145020       1.870700       14.33179    
 N    1.942470       2.842430      1.5650000E-02
 N    1.992700       5.113200      2.1250000E-02
 N    2.025680       5.118780       1.033350    
 N    1.987880       3.057250       4.928880    
 N    2.984520       3.126800       4.916280    
          18
 Energy:  -75.2303852000000     
 X  0.0000000E+00  0.0000000E+00  0.0000000E+00
 X   14.50000      0.0000000E+00  0.0000000E+00
 X  0.0000000E+00   14.50000      0.0000000E+00
 X  0.0000000E+00  0.0000000E+00   14.50000    
 X   14.50000       14.50000      0.0000000E+00
 X   14.50000      0.0000000E+00   14.50000    
 X  0.0000000E+00   14.50000       14.50000    
 X   14.50000       14.50000       14.50000    
 N    14.44034       14.43790       14.39272    
 N    1.016510       14.22808       14.29702    
 N   0.6098500       14.00027       2.251670    
 N   0.4446100      0.4727900       2.329870    
 N    2.167630       1.852010       14.31401    
 N    1.930300       2.844050      1.8430000E-02
 N    1.992570       5.132790      3.5750002E-02
 N    2.027880       5.134890       1.026310    
 N    1.991940       3.060600       4.923970    
 N    2.978370       3.136610       4.910240    
          18
 Energy:  -77.7580483000000     
 X  0.0000000E+00  0.0000000E+00  0.0000000E+00
 X   14.50000      0.0000000E+00  0.0000000E+00
 X  0.0000000E+00   14.50000      0.0000000E+00
 X  0.0000000E+00  0.0000000E+00   14.50000    
 X   14.50000       14.50000      0.0000000E+00
 X   14.50000      0.0000000E+00   14.50000    
 X  0.0000000E+00   14.50000       14.50000    
 X   14.50000       14.50000       14.50000    
 N    14.42695       14.43550       14.37635    
 N    1.015310       14.19992       14.27379    
 N   0.6203300       13.99487       2.277800    
 N   0.4379500      0.4763700       2.361840    
 N    2.193270       1.823120       14.29396    
 N    1.915380       2.854930      2.3229999E-02
 N    1.991750       5.153320      2.9039999E-02
 N    2.030870       5.151580       1.040700    
 N    1.974170       3.062270       4.919400    
 N    2.994020       3.148120       4.903910    
          18
 Energy:  -80.5573743000000     
 X  0.0000000E+00  0.0000000E+00  0.0000000E+00
 X   14.50000      0.0000000E+00  0.0000000E+00
 X  0.0000000E+00   14.50000      0.0000000E+00
 X  0.0000000E+00  0.0000000E+00   14.50000    
 X   14.50000       14.50000      0.0000000E+00
 X   14.50000      0.0000000E+00   14.50000    
 X  0.0000000E+00   14.50000       14.50000    
 X   14.50000       14.50000       14.50000    
 N    14.41306       14.43310       14.35940    
 N    1.014190       14.17121       14.25006    
 N   0.6342600       13.97097       2.303020    
 N   0.4278900      0.4984200       2.395780    
 N    2.220220       1.791520       14.27314    
 N    1.899430       2.867610      2.8560000E-02
 N    1.990360       5.174810      5.9799999E-03
 N    2.034520       5.168760       1.071620    
 N    1.942200       3.062750       4.915060    
 N    3.023860       3.160840       4.897370    
          18
 Energy:  -80.9756243000000     
 X  0.0000000E+00  0.0000000E+00  0.0000000E+00
 X   14.50000      0.0000000E+00  0.0000000E+00
 X  0.0000000E+00   14.50000      0.0000000E+00
 X  0.0000000E+00  0.0000000E+00   14.50000    
 X   14.50000       14.50000      0.0000000E+00
 X   14.50000      0.0000000E+00   14.50000    
 X  0.0000000E+00   14.50000       14.50000    
 X   14.50000       14.50000       14.50000    
 N    14.40038       14.43032       14.34180    
 N    1.011490       14.14238       14.22604    
 N   0.6499900       13.93826       2.328010    
 N   0.4161000      0.5292700       2.430880    
 N    2.246950       1.762610       14.25281    
 N    1.883930       2.876760      3.3179998E-02
 N    1.988780       5.197200       14.47634    
 N    2.038490       5.186400       1.109350    
 N    1.906180       3.062870       4.910800    
 N    3.057720       3.173930       4.890780    
          18
 Energy:  -79.5679889000000     
 X  0.0000000E+00  0.0000000E+00  0.0000000E+00
 X   14.50000      0.0000000E+00  0.0000000E+00
 X  0.0000000E+00   14.50000      0.0000000E+00
 X  0.0000000E+00  0.0000000E+00   14.50000    
 X   14.50000       14.50000      0.0000000E+00
 X   14.50000      0.0000000E+00   14.50000    
 X  0.0000000E+00   14.50000       14.50000    
 X   14.50000       14.50000       14.50000    
 N    14.39016       14.42678       14.32347    
 N    1.005960       14.11385       14.20196    
 N   0.6657600       13.90540       2.353460    
 N   0.4043300      0.5602600       2.466310    
 N    2.272390       1.739350       14.23376    
 N    1.869920       2.879480      3.6300000E-02
 N    1.987320       5.220350       14.44796    
 N    2.042440       5.204540       1.146020    
 N    1.873080       3.063270       4.906500    
 N    3.088650       3.186730       4.884250    
          18
 Energy:  -77.7181844000000     
 X  0.0000000E+00  0.0000000E+00  0.0000000E+00
 X   14.50000      0.0000000E+00  0.0000000E+00
 X  0.0000000E+00   14.50000      0.0000000E+00
 X  0.0000000E+00  0.0000000E+00   14.50000    
 X   14.50000       14.50000      0.0000000E+00
 X   14.50000      0.0000000E+00   14.50000    
 X  0.0000000E+00   14.50000       14.50000    
 X   14.50000       14.50000       14.50000    
 N    14.38319       14.42221       14.30438    
 N   0.9968300       14.08591       14.17794    
 N   0.6804400       13.87742       2.379810    
 N   0.3937100      0.5863700       2.501540    
 N    2.295840       1.723150       14.21647    
 N    1.858060       2.874440      3.7470002E-02
 N    1.986200       5.244080       14.42527    
 N    2.046180       5.223200       1.177190    
 N    1.846500       3.064350       4.902090    
 N    3.113050       3.198860       4.877850    
          18
 Energy:  -76.2940118000000     
 X  0.0000000E+00  0.0000000E+00  0.0000000E+00
 X   14.50000      0.0000000E+00  0.0000000E+00
 X  0.0000000E+00   14.50000      0.0000000E+00
 X  0.0000000E+00  0.0000000E+00   14.50000    
 X   14.50000       14.50000      0.0000000E+00
 X   14.50000      0.0000000E+00   14.50000    
 X  0.0000000E+00   14.50000       14.50000    
 X   14.50000       14.50000       14.50000    
 N    14.37978       14.41645       14.28453    
 N   0.9838400       14.05878       14.15411    
 N   0.6933800       13.85674       2.407260    
 N   0.3848700      0.6052100       2.536260    
 N    2.316850       1.714590       14.20119    
 N    1.848770       2.861150      3.6460001E-02
 N    1.985530       5.268250       14.41035    
 N    2.049590       5.242400       1.200700    
 N    1.828130       3.066320       4.897540    
 N    3.129260       3.210110       4.871610    
          18
 Energy:  -75.6725841000000     
 X  0.0000000E+00  0.0000000E+00  0.0000000E+00
 X   14.50000      0.0000000E+00  0.0000000E+00
 X  0.0000000E+00   14.50000      0.0000000E+00
 X  0.0000000E+00  0.0000000E+00   14.50000    
 X   14.50000       14.50000      0.0000000E+00
 X   14.50000      0.0000000E+00   14.50000    
 X  0.0000000E+00   14.50000       14.50000    
 X   14.50000       14.50000       14.50000    
 N    14.37977       14.40947       14.26397    
 N   0.9671600       14.03252       14.13047    
 N   0.7042500       13.84444       2.435900    
 N   0.3781600      0.6157000       2.570300    
 N    2.335120       1.713790       14.18809    
 N    1.842340       2.839610      3.3149999E-02
 N    1.985360       5.292730       14.40418    
 N    2.052600       5.262120       1.215580    
 N    1.818710       3.069290       4.892810    
 N    3.136530       3.220340       4.865550    
          18
 Energy:  -75.9521177000000     
 X  0.0000000E+00  0.0000000E+00  0.0000000E+00
 X   14.50000      0.0000000E+00  0.0000000E+00
 X  0.0000000E+00   14.50000      0.0000000E+00
 X  0.0000000E+00  0.0000000E+00   14.50000    
 X   14.50000       14.50000      0.0000000E+00
 X   14.50000      0.0000000E+00   14.50000    
 X  0.0000000E+00   14.50000       14.50000    
 X   14.50000       14.50000       14.50000    
 N    14.38254       14.40141       14.24282    
 N   0.9474100       14.00704       14.10701    
 N   0.7128400       13.84099       2.465750    
 N   0.3737600      0.6173600       2.603560    
 N    2.350500       1.720490       14.17720    
 N    1.838910       2.810120      2.7500000E-02
 N    1.985730       5.317410       14.40715    
 N    2.055180       5.282350       1.221410    
 N    1.818540       3.073330       4.887910    
 N    3.134590       3.229500       4.859680    
          18
 Energy:  -77.0546235000000     
 X  0.0000000E+00  0.0000000E+00  0.0000000E+00
 X   14.50000      0.0000000E+00  0.0000000E+00
 X  0.0000000E+00   14.50000      0.0000000E+00
 X  0.0000000E+00  0.0000000E+00   14.50000    
 X   14.50000       14.50000      0.0000000E+00
 X   14.50000      0.0000000E+00   14.50000    
 X  0.0000000E+00   14.50000       14.50000    
 X   14.50000       14.50000       14.50000    
 N    14.38703       14.39262       14.22124    
 N   0.9257000       13.98202       14.08363    
 N   0.7190400       13.84648       2.496820    
 N   0.3717900      0.6101100       2.635970    
 N    2.363000       1.734040       14.16843    
 N    1.838440       2.773410      1.9630000E-02
 N    1.986630       5.342200       14.41932    
 N    2.057310       5.303080       1.218130    
 N    1.827590       3.078480       4.882810    
 N    3.123460       3.237540       4.854010    
          18
 Energy:  -78.7273478000000     
 X  0.0000000E+00  0.0000000E+00  0.0000000E+00
 X   14.50000      0.0000000E+00  0.0000000E+00
 X  0.0000000E+00   14.50000      0.0000000E+00
 X  0.0000000E+00  0.0000000E+00   14.50000    
 X   14.50000       14.50000      0.0000000E+00
 X   14.50000      0.0000000E+00   14.50000    
 X  0.0000000E+00   14.50000       14.50000    
 X   14.50000       14.50000       14.50000    
 N    14.39174       14.38363       14.19944    
 N   0.9035700       13.95696       14.06015    
 N   0.7228100       13.86075       2.529050    
 N   0.3722700      0.5941000       2.667530    
 N    2.373010       1.753170       14.16147    
 N    1.840570       2.730830      9.8700002E-03
 N    1.988080       5.367040       14.44044    
 N    2.058970       5.324290       1.206000    
 N    1.845520       3.084740       4.877520    
 N    3.103460       3.244480       4.848530    
          18
 Energy:  -80.4872553000000     
 X  0.0000000E+00  0.0000000E+00  0.0000000E+00
 X   14.50000      0.0000000E+00  0.0000000E+00
 X  0.0000000E+00   14.50000      0.0000000E+00
 X  0.0000000E+00  0.0000000E+00   14.50000    
 X   14.50000       14.50000      0.0000000E+00
 X   14.50000      0.0000000E+00   14.50000    
 X  0.0000000E+00   14.50000       14.50000    
 X   14.50000       14.50000       14.50000    
 N    14.39496       14.37518       14.17770    
 N   0.8827800       13.93114       14.03636    
 N   0.7242200       13.88327       2.562370    
 N   0.3751300      0.5698500       2.698250    
 N    2.381560       1.775490       14.15557    
 N    1.844240       2.684830       14.49898    
 N    1.990010       5.391870       14.46975    
 N    2.060180       5.345970       1.185750    
 N    1.871490       3.092040       4.872050    
 N    3.075430       3.250360       4.843230    
          18
 Energy:  -81.5846095000000     
 X  0.0000000E+00  0.0000000E+00  0.0000000E+00
 X   14.50000      0.0000000E+00  0.0000000E+00
 X  0.0000000E+00   14.50000      0.0000000E+00
 X  0.0000000E+00  0.0000000E+00   14.50000    
 X   14.50000       14.50000      0.0000000E+00
 X   14.50000      0.0000000E+00   14.50000    
 X  0.0000000E+00   14.50000       14.50000    
 X   14.50000       14.50000       14.50000    
 N    14.39515       14.36800       14.15625    
 N   0.8648800       13.90385       14.01206    
 N   0.7235300       13.91285       2.596650    
 N   0.3801000      0.5385300       2.728230    
 N    2.390850       1.796970       14.14929    
 N    1.847240       2.639520       14.48841    
 N    1.992360       5.416660      5.5999998E-03
 N    2.061030       5.368040       1.159040    
 N    1.903660       3.100170       4.866420    
 N    3.041210       3.255400       4.838060    
          18
 Energy:  -81.1960592000000     
 X  0.0000000E+00  0.0000000E+00  0.0000000E+00
 X   14.50000      0.0000000E+00  0.0000000E+00
 X  0.0000000E+00   14.50000      0.0000000E+00
 X  0.0000000E+00  0.0000000E+00   14.50000    
 X   14.50000       14.50000      0.0000000E+00
 X   14.50000      0.0000000E+00   14.50000    
 X  0.0000000E+00   14.50000       14.50000    
 X   14.50000       14.50000       14.50000    
 N    14.39151       14.36258       14.13525    
 N   0.8507100       13.87461       13.98714    
 N   0.7214700       13.94693       2.631580    
 N   0.3864700      0.5026900       2.757720    
 N    2.404390       1.812170       14.14043    
 N    1.846050       2.600390       14.48039    
 N    1.994910       5.441500      4.4429999E-02
 N    2.061700       5.390380       1.129390    
 N    1.938090       3.108630       4.860750    
 N    3.004710       3.260120       4.832930    
          18
 Energy:  -79.1008626000000     
 X  0.0000000E+00  0.0000000E+00  0.0000000E+00
 X   14.50000      0.0000000E+00  0.0000000E+00
 X  0.0000000E+00   14.50000      0.0000000E+00
 X  0.0000000E+00  0.0000000E+00   14.50000    
 X   14.50000       14.50000      0.0000000E+00
 X   14.50000      0.0000000E+00   14.50000    
 X  0.0000000E+00   14.50000       14.50000    
 X   14.50000       14.50000       14.50000    
 N    14.38427       14.35891       14.11471    
 N   0.8400600       13.84345       13.96164    
 N   0.7196200       13.98032       2.666530    
 N   0.3926300      0.4675400       2.787310    
 N    2.425770       1.816550       14.12686    
 N    1.837070       2.571990       14.47707    
 N    1.997260       5.466650      7.9499997E-02
 N    2.062600       5.412640       1.103520    
 N    1.967380       3.116390       4.855210    
 N    2.973340       3.265560       4.827660    
          18
 Energy:  -77.0319764000000     
 X  0.0000000E+00  0.0000000E+00  0.0000000E+00
 X   14.50000      0.0000000E+00  0.0000000E+00
 X  0.0000000E+00   14.50000      0.0000000E+00
 X  0.0000000E+00  0.0000000E+00   14.50000    
 X   14.50000       14.50000      0.0000000E+00
 X   14.50000      0.0000000E+00   14.50000    
 X  0.0000000E+00   14.50000       14.50000    
 X   14.50000       14.50000       14.50000    
 N    14.37459       14.35650       14.09447    
 N   0.8317600       13.81090       13.93574    
 N   0.7208600       14.00437       2.700430    
 N   0.3957100      0.4417400       2.818060    
 N    2.455950       1.809870       14.10811    
 N    1.819370       2.554600       14.47889    
 N    1.998790       5.492610      0.1011900    
 N    2.064340       5.434270       1.091080    
 N    1.981310       3.121880       4.850080    
 N    2.957320       3.273250       4.821940    
          18
 Energy:  -77.9099116000000     
 X  0.0000000E+00  0.0000000E+00  0.0000000E+00
 X   14.50000      0.0000000E+00  0.0000000E+00
 X  0.0000000E+00   14.50000      0.0000000E+00
 X  0.0000000E+00  0.0000000E+00   14.50000    
 X   14.50000       14.50000      0.0000000E+00
 X   14.50000      0.0000000E+00   14.50000    
 X  0.0000000E+00   14.50000       14.50000    
 X   14.50000       14.50000       14.50000    
 N    14.36409       14.35448       14.07430    
 N   0.8242200       13.77782       13.90970    
 N   0.7284600       14.01007       2.732080    
 N   0.3924300      0.4343300       2.851110    
 N    2.492190       1.796280       14.08588    
 N    1.795670       2.544090       14.48419    
 N    1.998970       5.519860      0.1021900    
 N    2.067450       5.454740       1.099400    
 N    1.973270       3.123990       4.845590    
 N    2.963260       3.284350       4.815560    
          18
 Energy:  -80.7066834000000     
 X  0.0000000E+00  0.0000000E+00  0.0000000E+00
 X   14.50000      0.0000000E+00  0.0000000E+00
 X  0.0000000E+00   14.50000      0.0000000E+00
 X  0.0000000E+00  0.0000000E+00   14.50000    
 X   14.50000       14.50000      0.0000000E+00
 X   14.50000      0.0000000E+00   14.50000    
 X  0.0000000E+00   14.50000       14.50000    
 X   14.50000       14.50000       14.50000    
 N    14.35434       14.35193       14.05394    
 N   0.8158400       13.74516       13.88377    