NiAl                                    
           1
    14.500000    0.000000    0.000000
     0.000000   14.500000    0.000000
     0.000000    0.000000   14.500000
   N 
  10
Direct configuration=     1
   0.00000000  0.00000000  0.00000000
   0.07586207  0.00000000  0.00000000
   0.03448276  0.96551724  0.13793103
   0.03448276  0.03448276  0.13793103
   0.13793103  0.13103448  0.00000000
   0.13793103  0.20000000  0.00000000
   0.13793103  0.34482759  0.00000000
   0.13793103  0.34482759  0.06896552
   0.13793103  0.20689655  0.34482759
   0.20689655  0.20689655  0.34482759
Direct configuration=     2
   0.99925625  0.99970481  0.00045491
   0.07632923  0.99947742  0.99990916
   0.03515413  0.96406581  0.13805215
   0.03409275  0.03581687  0.13865654
   0.13823124  0.12997778  0.99909584
   0.13770264  0.20135702  0.00046856
   0.13784366  0.34452880  0.99857882
   0.13807198  0.34484428  0.07037381
   0.13615339  0.20711932  0.34448988
   0.20854404  0.20759065  0.34440310
Direct configuration=     3
   0.99843052  0.99941528  0.00072854
   0.07682369  0.99883063  0.99964692
   0.03583310  0.96183534  0.13834784
   0.03368452  0.03792804  0.13956416
   0.13860939  0.12817922  0.99817766
   0.13745930  0.20336533  0.00090974
   0.13775533  0.34436298  0.99642696
   0.13821677  0.34494190  0.07255209
   0.13372390  0.20733636  0.34415211
   0.21084279  0.20828767  0.34397675
Direct configuration=     4
   0.99763924  0.99913077  0.00082952
   0.07722701  0.99806098  0.99922491
   0.03651315  0.95944635  0.13881378
   0.03326603  0.04019574  0.14063837
   0.13906547  0.12622246  0.99725101
   0.13720133  0.20542574  0.00131255
   0.13766807  0.34433678  0.99416177
   0.13836387  0.34512817  0.07488759
   0.13126597  0.20755184  0.34381378
   0.21316916  0.20898394  0.34354948
Direct configuration=     5
   0.99697245  0.99884929  0.00076913
   0.07744742  0.99717160  0.99865801
   0.03718048  0.95729939  0.13944597
   0.03285234  0.04221967  0.14185768
   0.13959419  0.12450444  0.99633192
   0.13693369  0.20712970  0.00165599
   0.13758528  0.34445471  0.99217678
   0.13851079  0.34540838  0.07699053
   0.12914633  0.20777213  0.34347390
   0.21515634  0.20967345  0.34312286
Direct configuration=     6
   0.99648943  0.99856768  0.00055926
   0.07742485  0.99616845  0.99796211
   0.03782251  0.95559947  0.14023841
   0.03245722  0.04379489  0.14320104
   0.14018819  0.12323393  0.99543553
   0.13666205  0.20826317  0.00192128
   0.13751038  0.34471621  0.99067188
   0.13865520  0.34578572  0.07866297
   0.12754285  0.20800248  0.34313185
   0.21662662  0.21035074  0.34269842
Direct configuration=     7
   0.99622022  0.99828208  0.00021115
   0.07712933  0.99505955  0.99715231
   0.03842941  0.95444498  0.14118389
   0.03209221  0.04482354  0.14464990
   0.14083954  0.12250536  0.99457363
   0.13639161  0.20873032  0.00209522
   0.13744607  0.34511713  0.98974009
   0.13879556  0.34626109  0.07981227
   0.12653678  0.20824719  0.34278710
   0.21749858  0.21101150  0.34227721
Direct configuration=     8
   0.99616840  0.99798859  0.99973483
   0.07655830  0.99385409  0.99624173
   0.03899306  0.95388280  0.14227531
   0.03176692  0.04525944  0.14618840
   0.14153974  0.12235287  0.99375407
   0.13612734  0.20849785  0.00217056
   0.13739459  0.34565183  0.98942297
   0.13893068  0.34683273  0.08039566
   0.12616320  0.20850968  0.34243914
   0.21773707  0.21165289  0.34186008
Direct configuration=     9
   0.99631046  0.99768426  0.99913926
   0.07573689  0.99256111  0.99524110
   0.03950684  0.95393333  0.14350670
   0.03148952  0.04508278  0.14780306
   0.14228027  0.12277367  0.99298119
   0.13587398  0.20757031  0.00214518
   0.13735781  0.34631516  0.98973577
   0.13905929  0.34749673  0.08039521
   0.12643187  0.20879281  0.34208765
   0.21733237  0.21227260  0.34144764
Direct configuration=    10
   0.99659324  0.99736852  0.99843350
   0.07472063  0.99118806  0.99415778
   0.03996598  0.95459881  0.14487290
   0.03126701  0.04429173  0.14948218
   0.14305308  0.12372888  0.99225545
   0.13563516  0.20598918  0.00202268
   0.13733696  0.34710264  0.99067566
   0.13918021  0.34824730  0.07980980
   0.12733223  0.20909893  0.34173237
   0.21629482  0.21286871  0.34104045
Direct configuration=    11
   0.99693178  0.99704497  0.99762819
   0.07359777  0.98973931  0.99299561
   0.04036681  0.95586168  0.14636891
   0.03110448  0.04290397  0.15121611
   0.14385403  0.12512356  0.99157017
   0.13541036  0.20385367  0.00181496
   0.13733284  0.34800874  0.99221788
   0.13929249  0.34907694  0.07865928
   0.12882790  0.20942936  0.34137306
   0.21466086  0.21344057  0.34063859
Direct configuration=    12
   0.99721309  0.99672270  0.99673643
   0.07248541  0.98821439  0.99175510
   0.04070940  0.95767136  0.14798865
   0.03100320  0.04096987  0.15299645
   0.14469063  0.12676164  0.99090390
   0.13518723  0.20136701  0.00154899
   0.13734517  0.34902610  0.99429870
   0.13939596  0.34997695  0.07700283
   0.13083554  0.20978307  0.34100995
   0.21251368  0.21398966  0.34024175
Direct configuration=    13
   0.99731435  0.99641597  0.99577374
   0.07151052  0.98660768  0.99043426
   0.04100210  0.95991096  0.14972139
   0.03095584  0.03860605  0.15481872
   0.14559679  0.12828701  0.99020880
   0.13492701  0.19889611  0.00127873
   0.13737140  0.35014454  0.99677433
   0.13949263  0.35093831  0.07498015
   0.13317399  0.21015312  0.34064418
   0.21003468  0.21452301  0.33984846
Direct configuration=    14
   0.99713714  0.99614102  0.99475600
   0.07077596  0.98491149  0.98903172
   0.04127293  0.96232644  0.15154609
   0.03093493  0.03606640  0.15668769
   0.14664630  0.12918823  0.98940312
   0.13455128  0.19696315  0.00109127
   0.13740410  0.35135167  0.99934361
   0.13958956  0.35195375  0.07288920
   0.13547030  0.21052030  0.34027917
   0.20759679  0.21506031  0.33945490
Direct configuration=    15
   0.99664599  0.99590866  0.99369623
   0.07032109  0.98312224  0.98755088
   0.04158834  0.96443058  0.15342205
   0.03087420  0.03383746  0.15862690
   0.14793221  0.12901372  0.98839950
   0.13396353  0.19602977  0.00107906
   0.13742748  0.35263476  0.00146554
   0.13970229  0.35301907  0.07126584
   0.13709544  0.21084497  0.33992268
   0.20582876  0.21564152  0.33905407
Direct configuration=    16
   0.99588557  0.99571732  0.99260143
   0.07010429  0.98124688  0.98600169
   0.04205886  0.96553575  0.15528759
   0.03066276  0.03260646  0.16068064
   0.14949172  0.12772513  0.98717308
   0.13312384  0.19614141  0.00127075
   0.13741850  0.35398521  0.00246560
   0.13985385  0.35413042  0.07078033
   0.13737534  0.21107603  0.33958448
   0.20540456  0.21631817  0.33863716
Direct configuration=    17
   0.99496205  0.99555158  0.99147210
   0.07002114  0.97930484  0.98439964
   0.04278139  0.96516314  0.15708959
   0.03020319  0.03285276  0.16288526
   0.15126000  0.12573257  0.98579008
   0.13209544  0.19689169  0.00160206
   0.13736192  0.35540135  0.00200257
   0.14005987  0.35528150  0.07177228
   0.13614983  0.21119133  0.33926873
   0.20648447  0.21711200  0.33820045
Direct configuration=    18
   0.99400431  0.99538642  0.99030362
   0.06994422  0.97732457  0.98276243
   0.04374220  0.96351527  0.15882896
   0.02950949  0.03437362  0.16522633
   0.15311889  0.12355309  0.98435454
   0.13099487  0.19776647  0.00196989
   0.13726652  0.35688375  0.00041258
   0.14031191  0.35646602  0.07390499
   0.13394472  0.21122435  0.33896952
   0.20854219  0.21798919  0.33774990
Direct configuration=    19
   0.99312932  0.99519425  0.98908977
   0.06975789  0.97533675  0.98110638
   0.04482667  0.96125911  0.16055248
   0.02869658  0.03650145  0.16764698
   0.15496214  0.12155903  0.98295248
   0.12992611  0.19839732  0.00228846
   0.13715720  0.35842783  0.99836798
   0.14058547  0.35768281  0.07650680
   0.13146054  0.21123230  0.33867598
   0.21087738  0.21889191  0.33729545
Direct configuration=    20
   0.99242465  0.99495016  0.98782556
   0.06937631  0.97336875  0.97944519
   0.04591440  0.95899305  0.16230779
   0.02788458  0.03863855  0.17009044
   0.15671622  0.11995486  0.98163881
   0.12895999  0.19858461  0.00250346
   0.13705669  0.36002384  0.99641129
   0.14085818  0.35893388  0.07903567
   0.12917783  0.21126028  0.33837955
   0.21301045  0.21977479  0.33684500
Direct configuration=    21
   0.99194418  0.99463510  0.98650866
   0.06874723  0.97144226  0.97778929
   0.04692658  0.95706358  0.16412467
   0.02715215  0.04043952  0.17251997
   0.15833348  0.11883785  0.98044593
   0.12814195  0.19823696  0.00258442
   0.13697934  0.36166043  0.99484593
   0.14111600  0.36022103  0.08118521
   0.12734516  0.21133483  0.33807539
   0.21469324  0.22061120  0.33640327
Direct configuration=    22
   0.99170891  0.99423788  0.98513969
   0.06785135  0.96957122  0.97614524
   0.04781949  0.95563702  0.16601767
   0.02654266  0.04173888  0.17491458
   0.15978256  0.11824784  0.97939259
   0.12750137  0.19732082  0.00251470
   0.13693287  0.36332732  0.99381718
   0.14135106  0.36154484  0.08280710
   0.12607791  0.21147039  0.33776117
   0.21581113  0.22138655  0.33597285
Direct configuration=    23
   0.99170806  0.99375664  0.98372229
   0.06670053  0.96776014  0.97451533
   0.04856902  0.95478893  0.16799287
   0.02607979  0.04246172  0.17726222
   0.16104291  0.11819223  0.97848897
   0.12705768  0.19583497  0.00228590
   0.13692131  0.36501554  0.99339161
   0.14155889  0.36290489  0.08383308
   0.12542847  0.21167522  0.33743534
   0.21631266  0.22209247  0.33555515
Direct configuration=    24
   0.99189953  0.99320102  0.98226370
   0.06533857  0.96600243  0.97289743
   0.04916140  0.95455070  0.17005200
   0.02577671  0.04257686  0.17955575
   0.16210335  0.11865421  0.97773797
   0.12682118  0.19380162  0.00189661
   0.13694655  0.36671764  0.99359660
   0.14173685  0.36430015  0.08423505
   0.12541648  0.21195400  0.33709704
   0.21617869  0.22272413  0.33515062
Direct configuration=    25
   0.99220913  0.99259435  0.98077507
   0.06384171  0.96427729  0.97128466
   0.04958892  0.95492961  0.17219440
   0.02564063  0.04207676  0.18179128
   0.16296582  0.11958915  0.97713324
   0.12678929  0.19126998  0.00135401
   0.13700921  0.36842779  0.99443616
   0.14188332  0.36572971  0.08400878
   0.12604055  0.21230923  0.33674559
   0.21541074  0.22327888  0.33475956
Direct configuration=    26
   0.99253396  0.99197453  0.97927175
   0.06231549  0.96254862  0.96966532
   0.04984903  0.95591395  0.17441720
   0.02567369  0.04097265  0.18396775
   0.16365602  0.12090846  0.97665296
   0.12693589  0.18833324  0.00068090
   0.13710863  0.37014100  0.99589231
   0.14199767  0.36719264  0.08317222
   0.12727728  0.21274077  0.33638077
   0.21403164  0.22375690  0.33438158
Direct configuration=    27
   0.99275574  0.99139160  0.97777209
   0.06088124  0.96076808  0.96802468
   0.04994611  0.95746696  0.17671521
   0.02587099  0.03930010  0.18608640
   0.16424562  0.12244760  0.97624603
   0.12718877  0.18516101  0.99992949
   0.13724233  0.37185317  0.99791402
   0.14208138  0.36868740  0.08177593
   0.12906854  0.21324408  0.33600320
   0.21209859  0.22416277  0.33401569
Direct configuration=    28
   0.99276900  0.99089640  0.97629304
   0.05964676  0.95888601  0.96634883
   0.04989891  0.95950684  0.17907898
   0.02621378  0.03714006  0.18815354
   0.16488589  0.12392891  0.97581290
   0.12739585  0.18203611  0.99920065
   0.13740419  0.37356298  0.00038634
   0.14213972  0.37020991  0.07993378
   0.13128688  0.21380488  0.33561547
   0.20973834  0.22451066  0.33365922
Direct configuration=    29
   0.99251785  0.99052242  0.97484501
   0.05866970  0.95686996  0.96463029
   0.04975632  0.96185753  0.18148806
   0.02665297  0.03466831  0.19018725
   0.16581975  0.12497714  0.97520187
   0.12731357  0.17933697  0.99864775
   0.13758024  0.37527589  0.00306385
   0.14218600  0.37175009  0.07788885
   0.13366140  0.21438856  0.33522406
   0.20722151  0.22483589  0.33330577
Direct configuration=    30
   0.99201853  0.99026996  0.97342826
   0.05793500  0.95472099  0.96287175
   0.04962877  0.96416029  0.18389888
   0.02707805  0.03224393  0.19222830
   0.16729465  0.12527950  0.97426590
   0.12669453  0.17737842  0.99841831
   0.13774234  0.37701031  0.00548243
   0.14224804  0.37328538  0.07610503
   0.13568114  0.21492324  0.33484196
   0.20505824  0.22521074  0.33294194
Direct configuration=    31
   0.99135116  0.99010338  0.97203247
   0.05736304  0.95247586  0.96108548
   0.04971446  0.96581860  0.18623663
   0.02729040  0.03046489  0.19434865
   0.16937556  0.12481894  0.97297316
   0.12547389  0.17617906  0.99854425
   0.13784751  0.37880045  0.00697880
   0.14236841  0.37477756  0.07524714
   0.13664208  0.21530231  0.33448859
   0.20395281  0.22574172  0.33254759
Direct configuration=    32
   0.99062692  0.98996406  0.97064134
   0.05684253  0.95019453  0.95928935
   0.05023840  0.96621165  0.18841953
   0.02706426  0.02995366  0.19662810
   0.17187493  0.12388107  0.97143974
   0.12383952  0.17545419  0.99890969
   0.13785972  0.38067994  0.00704750
   0.14258255  0.37618916  0.07582090
   0.13608788  0.21544765  0.33417876
   0.20436260  0.22650686  0.33210786
Direct configuration=    33
   0.98995443  0.98978808  0.96923756
   0.05626500  0.94794201  0.95750149
   0.05126722  0.96521463  0.19042570
   0.02633322  0.03083526  0.19908756
   0.17449945  0.12281846  0.96983710
   0.12208488  0.17485241  0.99934353
   0.13778437  0.38264851  0.00581727
   0.14288511  0.37751800  0.07769729
   0.13426910  0.21538926  0.33390694
   0.20603652  0.22747613  0.33162831
Direct configuration=    34
   0.98941833  0.98952010  0.96780676
   0.05554605  0.94577393  0.95573678
   0.05263237  0.96333128  0.19231671
   0.02526608  0.03260502  0.20166573
   0.17700493  0.12188128  0.96830328
   0.12045392  0.17412411  0.99970829
   0.13766291  0.38466928  0.00391499
   0.14323494  0.37880018  0.08024805
   0.13187562  0.21523491  0.33365299
   0.20828415  0.22854267  0.33112918
Direct configuration=    35
   0.98907237  0.98912030  0.96633914
   0.05463172  0.94373048  0.95400600
   0.05409200  0.96120821  0.19417759
   0.02410499  0.03461429  0.20427765
   0.17923711  0.12120286  0.96692353
   0.11910083  0.17313738  0.99991977
   0.13753849  0.38669913  0.00194968
   0.14358876  0.38007846  0.08286140
   0.12950107  0.21508482  0.33339815
   0.21051197  0.22960681  0.33062986
Direct configuration=    36
   0.98894031  0.98856616  0.96482955
   0.05349755  0.94183389  0.95231487
   0.05547090  0.95928251  0.19606845
   0.02302480  0.03642502  0.20686223
   0.18110872  0.12084185  0.96574435
   0.11811307  0.17183495  0.99993167
   0.13743874  0.38870718  0.00029399
   0.14391864  0.38138287  0.08516520
   0.12748339  0.21500019  0.33313039
   0.21238319  0.23060815  0.33014206
Direct configuration=    37
   0.98901816  0.98785388  0.96327736
   0.05214711  0.94008821  0.95066432
   0.05667407  0.95777549  0.19802102
   0.02212088  0.03781500  0.20938659
   0.18257270  0.12081711  0.96478944
   0.11753816  0.17019909  0.99971992
   0.13737825  0.39067504  0.99913447
   0.14420949  0.38273115  0.08697484
   0.12598449  0.21501243  0.33284318
   0.21373601  0.23151536  0.32967161
Direct configuration=    38
   0.98927521  0.98699979  0.96168709
   0.05061087  0.93847735  0.94904994
   0.05765361  0.95678800  0.20005037
   0.02144054  0.03868334  0.21183516
   0.18360570  0.12112552  0.96406900
   0.11739943  0.16823386  0.99927410
   0.13736438  0.39259164  0.99855778
   0.14445370  0.38413349  0.08820478
   0.12507831  0.21513754  0.33253301
   0.21449755  0.23231224  0.32922153
Direct configuration=    39
   0.98965426  0.98604318  0.96006888
   0.04894628  0.93696289  0.94746133
   0.05838503  0.95636338  0.20216326
   0.02100808  0.03898690  0.21420146
   0.18420263  0.12174931  0.96358305
   0.11770149  0.16595718  0.99859422
   0.13740074  0.39445011  0.99860117
   0.14464740  0.38559597  0.08881805
   0.12479604  0.21538350  0.33219781
   0.21463737  0.23299034  0.32879353
Direct configuration=    40
   0.99007387  0.98504734  0.95843871
   0.04723536  0.93548296  0.94588222
   0.05885602  0.95651624  0.20436213
   0.02083562  0.03871104  0.21648266
   0.18438017  0.12265613  0.96332011
   0.11842744  0.16340095  0.99769198
   0.13748886  0.39624658  0.99927460
   0.14478879  0.38712199  0.08880473
   0.12514484  0.21575398  0.33183691
   0.21414833  0.23354554  0.32838871
Direct configuration=    41
   0.99043746  0.98409500  0.95681758
   0.04557601  0.93395601  0.94429157
   0.05906239  0.95724286  0.20664668
   0.02092714  0.03785949  0.21867829
   0.18418999  0.12379343  0.96325086
   0.11952535  0.16061679  0.99659737
   0.13762839  0.39797974  0.00056629
   0.14487793  0.38871277  0.08817611
   0.12611189  0.21624903  0.33145049
   0.21304275  0.23397765  0.32800752
Direct configuration=    42
   0.99065368  0.98327220  0.95522716
   0.04406062  0.93229692  0.94266789
   0.05900905  0.95852011  0.20901414
   0.02127760  0.03645484  0.22079027
   0.18374825  0.12507645  0.96331329
   0.12087926  0.15768878  0.99537314
   0.13781681  0.39965194  0.00243676
   0.14491715  0.39036619  0.08697082
   0.12765784  0.21686336  0.33103995
   0.21135904  0.23429196  0.32764933
Direct configuration=    43
   0.99066528  0.98264075  0.95368289
   0.04274729  0.93044447  0.94099602
   0.05871626  0.96029418  0.21145786
   0.02186719  0.03455089  0.22282532
   0.18328151  0.12637410  0.96339034
   0.12226254  0.15474814  0.99413655
   0.13804736  0.40127093  0.00479693
   0.14491308  0.39207418  0.08527691
   0.12969392  0.21758088  0.33060864
   0.20918488  0.23450423  0.32731129
Direct configuration=    44
   0.99047078  0.98221218  0.95218755
   0.04163794  0.92838697  0.93927367
   0.05823647  0.96244826  0.21396152
   0.02264386  0.03226507  0.22480018
   0.18315205  0.12751606  0.96329925
   0.12331291  0.15196568  0.99307002
   0.13830466  0.40285642  0.00745745
   0.14488146  0.39381628  0.08328289
   0.13202847  0.21836267  0.33016422
   0.20671070  0.23465316  0.32698600
Direct configuration=    45
   0.99012321  0.98194105  0.95073014
   0.04067936  0.92616940  0.93751267
   0.05769031  0.96473654  0.21648775
   0.02348789  0.02984497  0.22675250
   0.18375765  0.12835864  0.96284403
   0.12363249  0.14948509  0.99236886
   0.13855622  0.40445181  0.01004247
   0.14485466  0.39554834  0.08136386
   0.13427310  0.21912469  0.32972316
   0.20432445  0.23482222  0.32665731
Direct configuration=    46
   0.98970636  0.98174222  0.94929032
   0.03978689  0.92387623  0.93573414
   0.05731541  0.96670226  0.21896415
   0.02416172  0.02774922  0.22875451
   0.18526990  0.12888352  0.96194510
   0.12304944  0.14732411  0.99211231
   0.13874798  0.40613352  0.01194264
   0.14488650  0.39719381  0.08012898
   0.13579111  0.21972329  0.32931349
   0.20266400  0.23515457  0.32629711
Direct configuration=    47
   0.98930639  0.98151934  0.94784524
   0.03887296  0.92160383  0.93396155
   0.05744913  0.96773391  0.22129038
   0.02432766  0.02658937  0.23090594
   0.18747831  0.12920313  0.96070962
   0.12177468  0.14536995  0.99219270
   0.13882332  0.40798612  0.01254351
   0.14503327  0.39866841  0.08019314
   0.13594773  0.22000714  0.32896480
   0.20236584  0.23580154  0.32587588
Direct configuration=    48
   0.98899228  0.98118763  0.94637486
   0.03786796  0.91943779  0.93221471
   0.05832104  0.96745636  0.22340208
   0.02375671  0.02673984  0.23327107
   0.18996751  0.12945474  0.95933945
   0.12022306  0.14348570  0.99240779
   0.13876995  0.41003249  0.01173621
   0.14530727  0.39994945  0.08166556
   0.13466119  0.21994695  0.32868305
   0.20351235  0.23679181  0.32538798
Direct configuration=    49
   0.98880955  0.98068476  0.94486482
   0.03672659  0.91744105  0.93050778
   0.05981949  0.96610745  0.22533502
   0.02256101  0.02796298  0.23581440
   0.19237007  0.12972467  0.95800869
   0.11876111  0.14158513  0.99258296
   0.13863357  0.41220765  0.01003176
   0.14566364  0.40110143  0.08403521
   0.13249105  0.21966970  0.32844354
   0.20554324  0.23799795  0.32485859
Direct configuration=    50
   0.98877989  0.97997445  0.94330658
   0.03542754  0.91564977  0.92884833
   0.06160621  0.96428424  0.22718791
   0.02107936  0.02966198  0.23843683
   0.19445402  0.13004670  0.95682584
   0.11762105  0.13963478  0.99261002
   0.13847523  0.41441879  0.00808412
   0.14604182  0.40221715  0.08664880
   0.13010920  0.21933841  0.32821448
   0.20778500  0.23925648  0.32431986
Direct configuration=    51
   0.98890392  0.97904658  0.94169817
   0.03397063  0.91407348  0.92723742
   0.06337779  0.96248907  0.22904668
   0.01961368  0.03133449  0.24105288
   0.19609439  0.13042491  0.95584851
   0.11692843  0.13763100  0.99243159
   0.13833829  0.41659781  0.00634196
   0.14639895  0.40336541  0.08905749
   0.12795790  0.21906530  0.32797394
   0.20979534  0.24045471  0.32379413
Direct configuration=    52
   0.98916271  0.97791819  0.94004367
   0.03237505  0.91269457  0.92567023
   0.06495346  0.96100340  0.23096084
   0.01834298  0.03269782  0.24361381
   0.19722879  0.13084994  0.95510453
   0.11674597  0.13558365  0.99201988
   0.13824621  0.41870644  0.00504032
   0.14671171  0.40458502  0.09102617
   0.12626087  0.21891063  0.32771012
   0.21135155  0.24153310  0.32329319
Direct configuration=    53
   0.98951898  0.97663554  0.93835363
   0.03067848  0.91146635  0.92413621
   0.06624189  0.95995869  0.23295397
   0.01735762  0.03361938  0.24609693
   0.19783033  0.13130692  0.95460493
   0.11710038  0.13350808  0.99136387
   0.13821023  0.42072474  0.00428966
   0.14696854  0.40589608  0.09244363
   0.12512129  0.21890421  0.32741711
   0.21235156  0.24246277  0.32282282
Direct configuration=    54
   0.98991876  0.97527520  0.93664565
   0.02893526  0.91031175  0.92261871
   0.06719825  0.95941214  0.23503674
   0.01670164  0.03404148  0.24849139
   0.19789658  0.13177900  0.95434906
   0.11799421  0.13142131  0.99046415
   0.13823569  0.42264199  0.00413931
   0.14716378  0.40730896  0.09325964
   0.12458466  0.21906090  0.32709225
   0.21275048  0.24323004  0.32238585
Direct configuration=    55
   0.99029762  0.97393996  0.93494279
   0.02721020  0.90912744  0.92109575
   0.06780060  0.95938586  0.23721335
   0.01639667  0.03394199  0.25079194
   0.19744913  0.13224901  0.95432528
   0.11940592  0.12934046  0.98933253
   0.13832471  0.42445241  0.00460702
   0.14729502  0.40882875  0.09345615
   0.12466687  0.21938766  0.32673435
   0.21253256  0.24382922  0.32198361
Direct configuration=    56
   0.99059239  0.97274224  0.93326934
   0.02556665  0.90780080  0.91954392
   0.06804035  0.95988258  0.23948470
   0.01645129  0.03331855  0.25299645
   0.19654425  0.13270200  0.95450629
   0.12127944  0.12728041  0.98799654
   0.13847728  0.42615411  0.00568899
   0.14736216  0.41045687  0.09303688
   0.12536408  0.21988603  0.32634338
   0.21170142  0.24425916  0.32161627
Direct configuration=    57
   0.99075899  0.97177182  0.93164366
   0.02404838  0.90624225  0.91794511
   0.06792028  0.96088904  0.24184933
   0.01686295  0.03218482  0.25510593
   0.19529878  0.13313028  0.95483798
   0.12349841  0.12524887  0.98651033
   0.13869118  0.42774954  0.00735806
   0.14736770  0.41219051  0.09202935
   0.12665085  0.22055114  0.32592039
   0.21028177  0.24452449  0.32128263
Direct configuration=    58
   0.99078817  0.97106067  0.93007123
   0.02266420  0.90441995  0.91629321
   0.06745918  0.96237031  0.24430216
   0.01761369  0.03057625  0.25712570
   0.19393383  0.13354510  0.95522077
   0.12584126  0.12323472  0.98497334
   0.13896044  0.42924836  0.00954840
   0.14731849  0.41402002  0.09050012
   0.12846601  0.22136748  0.32546837
   0.20833404  0.24463990  0.32097947
Direct configuration=    59
   0.99070728  0.97056824  0.92854216
   0.02138714  0.90237488  0.91459680
   0.06670630  0.96425044  0.24683046
   0.01865500  0.02856939  0.25906932
   0.19281202  0.13399597  0.95549534
   0.12794424  0.12118796  0.98354473
   0.13927075  0.43067572  0.01211707
   0.14722947  0.41592088  0.08859328
   0.13067554  0.22229767  0.32499445
   0.20599156  0.24464161  0.32069915
Direct configuration=    60
   0.99056595  0.97019805  0.92703565
   0.02016761  0.90020345  0.91287529
   0.06577618  0.96636825  0.24940417
   0.01987272  0.02632605  0.26096738
   0.19237000  0.13458019  0.95547363
   0.12936989  0.11901109  0.98241276
   0.13959137  0.43208756  0.01476827
   0.14713152  0.41783745  0.08660552
   0.13299657  0.22325912  0.32451461
   0.20353752  0.24461154  0.32042549
Direct configuration=    61
   0.99041704  0.96983223  0.92552744
   0.01895197  0.89802315  0.91115226
   0.06490893  0.96840442  0.25196196
   0.02102658  0.02416508  0.26288137
   0.19287082  0.13539675  0.95504661
   0.12985513  0.11660515  0.98168739
   0.13986635  0.43358873  0.01697281
   0.14707961  0.41966532  0.08506482
   0.13490678  0.22409454  0.32405957
   0.20149608  0.24470737  0.32012853
Direct configuration=    62
   0.99030324  0.96936296  0.92399618
   0.01769693  0.89594180  0.90944943
   0.06450529  0.96985190  0.25440412
   0.02171629  0.02259195  0.26491085
   0.19418380  0.13645573  0.95427431
   0.12953048  0.11396067  0.98130927
   0.14002527  0.43531630  0.01807308
   0.14714331  0.42126755  0.08462731
   0.13572590  0.22459135  0.32367029
   0.20054881  0.24514256  0.31976792
Direct configuration=    63
   0.99025231  0.96870873  0.92242606
   0.01637441  0.89404071  0.90778277
   0.06496985  0.97022935  0.25663275
   0.02153779  0.02208743  0.26715319
   0.19590391  0.13765729  0.95333045
   0.12880099  0.11117784  0.98110531
   0.14003146  0.43734717  0.01773890
   0.14735860  0.42256672  0.08562293
   0.13507793  0.22462273  0.32337083
   0.20107207  0.24604480  0.31931957
Direct configuration=    64
   0.99027735  0.96781965  0.92080780
   0.01497148  0.89236977  0.90616204
   0.06635967  0.96950185  0.25863790
   0.02043361  0.02268639  0.26961844
   0.19763350  0.13886362  0.95238193
   0.12806495  0.10839476  0.98090890
   0.13991902  0.43961858  0.01630033
   0.14769125  0.42362477  0.08772156
   0.13327801  0.22427992  0.32314335
   0.20275046  0.24732345  0.31880052
Direct configuration=    65
   0.99037938  0.96667728  0.91913837
   0.01348783  0.89094805  0.90459071
   0.06831823  0.96811523  0.26050789
   0.01875940  0.02394315  0.27221782
   0.19911244  0.13996116  0.95153600
   0.12758338  0.10572589  0.98061287
   0.13975852  0.44199010  0.01441304
   0.14807150  0.42458109  0.09026848
   0.13100081  0.22377811  0.32294637
   0.20490782  0.24876268  0.31825121
Direct configuration=    66
   0.99054932  0.96529474  0.91742068
   0.01193354  0.88976356  0.90306600
   0.07040708  0.96658149  0.26234733
   0.01695308  0.02534663  0.27484645
   0.20020239  0.14087288  0.95084829
   0.12749572  0.10324811  0.98016127
   0.13960780  0.44434286  0.01260510
   0.14844225  0.42555358  0.09273721
   0.12879073  0.22329810  0.32274523
   0.20699740  0.25018082  0.31770521
Direct configuration=    67
   0.99076926  0.96371694  0.91566355
   0.01032673  0.88877196  0.90157900
   0.07233087  0.96522955  0.26422521
   0.01531068  0.02656883  0.27743609
   0.20083759  0.14154911  0.95034416
   0.12786760  0.10101005  0.97952877
   0.13949978  0.44660761  0.01117230
   0.14877095  0.42661204  0.09483157
   0.12694794  0.22294353  0.32252020
   0.20871790  0.25147314  0.31718191
Direct configuration=    68
   0.99101401  0.96202257  0.91388204
   0.00869159  0.88789471  0.90011475
   0.07393599  0.96422213  0.26617685
   0.01398745  0.02744786  0.27995188
   0.20099245  0.14195823  0.95003264
   0.12872372  0.09904257  0.97870701
   0.13945027  0.44874938  0.01025653
   0.14904194  0.42779202  0.09640826
   0.12561413  0.22276577  0.32226173
   0.20992777  0.25258751  0.31669109
Direct configuration=    69
   0.99125460  0.96032162  0.91209658
   0.00705604  0.88702177  0.89865249
   0.07514830  0.96363105  0.26821815
   0.01305835  0.02791198  0.28237747
   0.20066649  0.14208159  0.94991280
   0.13006403  0.09736352  0.97769728
   0.13946661  0.45075074  0.00992230
   0.14924767  0.42911202  0.09740244
   0.12485315  0.22278977  0.32196555
   0.21056406  0.25349870  0.31623771
Direct configuration=    70
   0.99146390  0.95874025  0.91033048
   0.00544605  0.88602651  0.89716865
   0.07593239  0.96348535  0.27035632
   0.01255926  0.02793215  0.28470492
   0.19988048  0.14191322  0.94997526
   0.13186782  0.09597885  0.97650908
   0.13955193  0.45260273  0.01019576
   0.14938497  0.43058142  0.09778838
   0.12469124  0.22302752  0.32162962
   0.21060127  0.25419478  0.31582429
Direct configuration=    71
   0.99162339  0.95739041  0.90860410
   0.00387986  0.88479661  0.89564251
   0.07627274  0.96379269  0.27259419
   0.01250535  0.02750071  0.28693130
   0.19868144  0.14146555  0.95020040
   0.13408876  0.09487611  0.97516150
   0.13970677  0.45430176  0.01108009
   0.14945323  0.43220415  0.09756372
   0.12513241  0.22348324  0.32125325
   0.21003534  0.25467152  0.31545170
Direct configuration=    72
   0.99172917  0.95632915  0.90692740
   0.00236169  0.88327417  0.89406387
   0.07616773  0.96454673  0.27493205
   0.01289810  0.02662435  0.28905693
   0.19715914  0.14078481  0.95055194
   0.13663804  0.09400937  0.97369024
   0.13992910  0.45584973  0.01255706
   0.14945425  0.43397829  0.09674705
   0.12616152  0.22415445  0.32083679
   0.20888058  0.25493171  0.31511942
Direct configuration=    73
   0.99179154  0.95553452  0.90529625
   0.00088198  0.88148098  0.89243700
   0.07563183  0.96572556  0.27736687
   0.01372320  0.02532491  0.29108626
   0.19547673  0.13998090  0.95096580
   0.13935229  0.09326899  0.97215861
   0.14021352  0.45725693  0.01457653
   0.14939352  0.43589322  0.09538830
   0.12773664  0.22502868  0.32038237
   0.20717805  0.25498807  0.31482477
Direct configuration=    74