LAMMPS (24 Mar 2022)
OMP_NUM_THREADS environment is not set. Defaulting to 1 thread. (src/comm.cpp:98)
  using 1 OpenMP thread(s) per MPI task
Reading data file ...
  triclinic box = (0 0 0) to (15.146222 13.117013 29) with tilt (7.5731109 0 0)
  1 by 1 by 1 MPI processor grid
  reading atoms ...
  252 atoms
  read_data CPU = 0.001 seconds
WARNING: Using 'neigh_modify every 1 delay 0 check yes' setting during minimization (src/min.cpp:187)
Neighbor list info ...
  update every 1 steps, delay 0 steps, check yes
  max neighbors/atom: 2000, page size: 100000
  master list distance cutoff = 8.28721
  ghost atom cutoff = 8.28721
  binsize = 4.143605, bins = 6 4 7
  1 neighbor lists, perpetual/occasional/extra = 1 0 0
  (1) pair eam/alloy, perpetual
      attributes: half, newton on
      pair build: half/bin/newton/tri
      stencil: half/bin/3d/tri
      bin: standard
Setting up cg style minimization ...
  Unit style    : metal
  Current step  : 0
Per MPI rank memory allocation (min/avg/max) = 4.513 | 4.513 | 4.513 Mbytes
   Step          Temp          E_pair         E_mol          TotEng         Press     
         0   0             -1076.3744      0             -1076.3744     -16380.234    
Loop time of 3.375e-06 on 1 procs for 0 steps with 252 atoms

118.5% CPU use with 1 MPI tasks x 1 OpenMP threads

Minimization stats:
  Stopping criterion = max iterations
  Energy initial, next-to-last, final = 
     -1076.37442863368                  0  -1076.37442863368
  Force two-norm initial, final = 3.0710059 3.0710059
  Force max component initial, final = 1.0421124 1.0421124
  Final line search alpha, max atom move = 0 0
  Iterations, force evaluations = 0 0

MPI task timing breakdown:
Section |  min time  |  avg time  |  max time  |%varavg| %total
---------------------------------------------------------------
Pair    | 0          | 0          | 0          |   0.0 |  0.00
Neigh   | 0          | 0          | 0          |   0.0 |  0.00
Comm    | 0          | 0          | 0          |   0.0 |  0.00
Output  | 0          | 0          | 0          |   0.0 |  0.00
Modify  | 0          | 0          | 0          |   0.0 |  0.00
Other   |            | 3.375e-06  |            |       |100.00

Nlocal:            252 ave         252 max         252 min
Histogram: 1 0 0 0 0 0 0 0 0 0
Nghost:           1627 ave        1627 max        1627 min
Histogram: 1 0 0 0 0 0 0 0 0 0
Neighs:          20244 ave       20244 max       20244 min
Histogram: 1 0 0 0 0 0 0 0 0 0

Total # of neighbors = 20244
Ave neighs/atom = 80.333333
Neighbor list builds = 0
Dangerous builds = 0
Setting up Verlet run ...
  Unit style    : metal
  Current step  : 0
  Time step     : 0.01
Per MPI rank memory allocation (min/avg/max) = 4.398 | 4.398 | 4.398 Mbytes
   Step          Temp          E_pair         E_mol          TotEng         Press     
         0   300           -1076.3744      0             -1066.6411     -14575.798    
       100   155.29549     -1071.4658      0             -1066.4273     -13231.752    
       200   161.74166     -1071.6874      0             -1066.4399     -19697.32     
       300   159.63621     -1071.6151      0             -1066.4358     -25607.001    
       400   148.62399     -1071.2465      0             -1066.4245     -25490.278    
       500   138.24177     -1070.8935      0             -1066.4083     -20237.941    
       600   153.2193      -1071.4033      0             -1066.4322     -15833.177    
       700   169.67962     -1071.9514      0             -1066.4463     -16311.096    
       800   158.17144     -1071.5608      0             -1066.429      -20217.394    
       900   152.21763     -1071.3701      0             -1066.4315     -23710.279    
      1000   155.68381     -1071.4854      0             -1066.4343     -22963.624    
      1100   163.12482     -1071.7454      0             -1066.4529     -19387.221    
      1200   150.90838     -1071.3372      0             -1066.4411     -16264.244    
      1300   154.26379     -1071.4427      0             -1066.4377     -17737.744    
      1400   136.16068     -1070.8208      0             -1066.4032     -21940.111    
      1500   151.72656     -1071.3523      0             -1066.4296     -24885.687    
      1600   152.9044      -1071.3926      0             -1066.4318     -23176.188    
      1700   163.87288     -1071.7641      0             -1066.4474     -18191.467    
      1800   169.27878     -1071.9491      0             -1066.4569     -15085.785    
      1900   160.40399     -1071.645       0             -1066.4408     -16999.537    
      2000   169.5849      -1071.9608      0             -1066.4587     -22099.845    
      2100   165.93731     -1071.8248      0             -1066.441      -24867.55     
      2200   158.57786     -1071.5854      0             -1066.4404     -22687.31     
      2300   151.76227     -1071.3534      0             -1066.4295     -18011.48     
      2400   160.90451     -1071.6643      0             -1066.4439     -16337.062    
      2500   148.63278     -1071.2446      0             -1066.4223     -18654.367    
      2600   160.56807     -1071.6574      0             -1066.4479     -22783.971    
      2700   158.38961     -1071.5801      0             -1066.4413     -23358.447    
      2800   167.04559     -1071.8719      0             -1066.4522     -20610.048    
      2900   169.93157     -1071.9635      0             -1066.4502     -16659.604    
      3000   153.90323     -1071.4274      0             -1066.4341     -15767.341    
      3100   153.45276     -1071.4012      0             -1066.4225     -19686.357    
      3200   155.86398     -1071.5008      0             -1066.4439     -24432.653    
      3300   152.34862     -1071.3775      0             -1066.4346     -25015.162    
      3400   154.94246     -1071.4643      0             -1066.4373     -21335.498    
      3500   152.30612     -1071.377       0             -1066.4356     -16354.517    
      3600   153.98496     -1071.4334      0             -1066.4375     -15316.397    
      3700   160.76414     -1071.657       0             -1066.4411     -18585.578    
      3800   160.82374     -1071.6739      0             -1066.4561     -22848.431    
      3900   158.96422     -1071.6         0             -1066.4425     -23872.895    
      4000   158.43496     -1071.5906      0             -1066.4502     -21430.762    
      4100   165.0668      -1071.813       0             -1066.4575     -17774.754    
      4200   148.90961     -1071.2561      0             -1066.4248     -16719.527    
      4300   160.64265     -1071.6486      0             -1066.4366     -19440.362    
      4400   156.92203     -1071.527       0             -1066.4358     -22909.687    
      4500   159.36512     -1071.6203      0             -1066.4498     -23846.939    
      4600   156.62792     -1071.5213      0             -1066.4396     -20680.513    
      4700   161.36071     -1071.6786      0             -1066.4434     -16434.74     
      4800   163.78148     -1071.7581      0             -1066.4444     -16597.111    
      4900   161.50786     -1071.6781      0             -1066.4381     -20400.397    
      5000   162.19031     -1071.6995      0             -1066.4373     -23611.892    
      5100   159.9647      -1071.6288      0             -1066.4388     -23584.312    
      5200   167.3018      -1071.8774      0             -1066.4494     -19842.217    
      5300   152.93209     -1071.3965      0             -1066.4348     -15675.168    
      5400   152.25062     -1071.372       0             -1066.4323     -15566.542    
      5500   168.84393     -1071.9273      0             -1066.4493     -20321.316    
      5600   160.24229     -1071.643       0             -1066.444      -23995.171    
      5700   170.76111     -1072.0057      0             -1066.4655     -23878.376    
      5800   149.09635     -1071.259       0             -1066.4217     -20055.144    
      5900   160.09823     -1071.6422      0             -1066.448      -17107.697    
      6000   156.30539     -1071.5012      0             -1066.43       -17413.286    
      6100   158.4473      -1071.5836      0             -1066.4429     -20246.483    
      6200   159.98796     -1071.6431      0             -1066.4524     -23170.97     
      6300   163.92444     -1071.7669      0             -1066.4485     -22397.679    
      6400   160.59869     -1071.6536      0             -1066.4431     -19254.19     
      6500   160.18497     -1071.6396      0             -1066.4425     -17220.373    
      6600   159.74363     -1071.6234      0             -1066.4406     -18939.424    
      6700   163.31773     -1071.7399      0             -1066.4411     -21933.951    
      6800   152.94159     -1071.399       0             -1066.4369     -23173.903    
      6900   146.29252     -1071.1704      0             -1066.424      -21627.901    
      7000   152.30452     -1071.377       0             -1066.4356     -18610.283    
      7100   157.22157     -1071.5398      0             -1066.4389     -17149.191    
      7200   162.17911     -1071.7024      0             -1066.4407     -18747.323    
      7300   160.7936      -1071.6562      0             -1066.4394     -21183.383    
      7400   164.05808     -1071.7636      0             -1066.4409     -21837.238    
      7500   163.06305     -1071.7403      0             -1066.4499     -20987.149    
      7600   160.43706     -1071.6538      0             -1066.4485     -19077.84     
      7700   160.00835     -1071.6327      0             -1066.4413     -18289.86     
      7800   159.56972     -1071.6159      0             -1066.4388     -19514.582    
      7900   148.52475     -1071.2434      0             -1066.4246     -21864.516    
      8000   154.99744     -1071.4605      0             -1066.4317     -22362.083    
      8100   158.60322     -1071.588       0             -1066.4422     -20370.926    
      8200   157.73368     -1071.5569      0             -1066.4393     -17841.057    
      8300   162.75723     -1071.7187      0             -1066.4382     -17420.737    
      8400   150.49238     -1071.3157      0             -1066.4331     -19354.558    
      8500   158.29301     -1071.5726      0             -1066.4369     -22021.571    
      8600   159.96217     -1071.6327      0             -1066.4429     -23216.065    
      8700   154.12175     -1071.4384      0             -1066.438      -21836.065    
      8800   161.42676     -1071.6897      0             -1066.4523     -19726.362    
      8900   162.89938     -1071.7239      0             -1066.4387     -18023.191    
      9000   156.05191     -1071.4952      0             -1066.4322     -18905.407    
      9100   156.98809     -1071.5322      0             -1066.4388     -20497.359    
      9200   154.93146     -1071.466       0             -1066.4394     -21542.72     
      9300   167.62944     -1071.8926      0             -1066.454      -20332.714    
      9400   161.45664     -1071.687       0             -1066.4487     -19560.799    
      9500   152.87803     -1071.3973      0             -1066.4372     -19158.513    
      9600   160.95183     -1071.6756      0             -1066.4537     -20201.315    
      9700   156.17786     -1071.4957      0             -1066.4286     -21394.797    
      9800   152.95054     -1071.3884      0             -1066.4261     -21524.066    
      9900   167.99659     -1071.9059      0             -1066.4554     -20090.319    
     10000   162.70065     -1071.7299      0             -1066.4512     -18568.16     
Loop time of 6.72544 on 1 procs for 10000 steps with 252 atoms

Performance: 1284.675 ns/day, 0.019 hours/ns, 1486.892 timesteps/s
99.9% CPU use with 1 MPI tasks x 1 OpenMP threads

MPI task timing breakdown:
Section |  min time  |  avg time  |  max time  |%varavg| %total
---------------------------------------------------------------
Pair    | 6.4487     | 6.4487     | 6.4487     |   0.0 | 95.89
Neigh   | 0          | 0          | 0          |   0.0 |  0.00
Comm    | 0.064036   | 0.064036   | 0.064036   |   0.0 |  0.95
Output  | 0.17233    | 0.17233    | 0.17233    |   0.0 |  2.56
Modify  | 0.02181    | 0.02181    | 0.02181    |   0.0 |  0.32
Other   |            | 0.01856    |            |       |  0.28

Nlocal:            252 ave         252 max         252 min
Histogram: 1 0 0 0 0 0 0 0 0 0
Nghost:           1627 ave        1627 max        1627 min
Histogram: 1 0 0 0 0 0 0 0 0 0
Neighs:          20244 ave       20244 max       20244 min
Histogram: 1 0 0 0 0 0 0 0 0 0

Total # of neighbors = 20244
Ave neighs/atom = 80.333333
Neighbor list builds = 0
Dangerous builds = 0
System init for write_restart ...
Total wall time: 0:00:06
