 254 254   0   0
  0.2268316E+02  0.1514622E-08  0.1514622E-08  0.2900000E-08  0.5000000E-15
  1.000000000000000E-004
  CAR 
 NiAl                                    
      6.00560994    -22.67008943  301     -0.59158493      1.00000000
    -22.670  0.0000E+00  0.0000E+00
    -22.575  0.0000E+00  0.0000E+00
    -22.479  0.0000E+00  0.0000E+00
    -22.383  0.0000E+00  0.0000E+00
    -22.288  0.0000E+00  0.0000E+00
    -22.192  0.0000E+00  0.0000E+00
    -22.097  0.0000E+00  0.0000E+00
    -22.001  0.0000E+00  0.0000E+00
    -21.905  0.0000E+00  0.0000E+00
    -21.810  0.0000E+00  0.0000E+00
    -21.714  0.0000E+00  0.0000E+00
    -21.619  0.1057E-10  0.1011E-11
    -21.523  0.1007E-03  0.9624E-05
    -21.427  0.8901E+00  0.8509E-01
    -21.332  0.1662E+02  0.1674E+01
    -21.236  0.3411E+01  0.2000E+01
    -21.141  0.2390E-02  0.2000E+01
    -21.045  0.1749E-08  0.2000E+01
    -20.950  0.0000E+00  0.2000E+01
    -20.854  0.0000E+00  0.2000E+01
    -20.758  0.0000E+00  0.2000E+01
    -20.663  0.0000E+00  0.2000E+01
    -20.567  0.0000E+00  0.2000E+01
    -20.472  0.0000E+00  0.2000E+01
    -20.376  0.0000E+00  0.2000E+01
    -20.280  0.0000E+00  0.2000E+01
    -20.185  0.0000E+00  0.2000E+01
    -20.089  0.0000E+00  0.2000E+01
    -19.994  0.0000E+00  0.2000E+01
    -19.898  0.0000E+00  0.2000E+01
    -19.803  0.0000E+00  0.2000E+01
    -19.707  0.0000E+00  0.2000E+01
    -19.611  0.0000E+00  0.2000E+01
    -19.516  0.0000E+00  0.2000E+01
    -19.420  0.0000E+00  0.2000E+01
    -19.325  0.0000E+00  0.2000E+01
    -19.229  0.0000E+00  0.2000E+01
    -19.133  0.0000E+00  0.2000E+01
    -19.038  0.0000E+00  0.2000E+01
    -18.942  0.0000E+00  0.2000E+01
    -18.847  0.0000E+00  0.2000E+01
    -18.751  0.0000E+00  0.2000E+01
    -18.655  0.0000E+00  0.2000E+01
    -18.560  0.0000E+00  0.2000E+01
    -18.464  0.0000E+00  0.2000E+01
    -18.369  0.0000E+00  0.2000E+01
    -18.273  0.0000E+00  0.2000E+01
    -18.178  0.0000E+00  0.2000E+01
    -18.082  0.0000E+00  0.2000E+01
    -17.986  0.0000E+00  0.2000E+01
    -17.891  0.0000E+00  0.2000E+01
    -17.795  0.0000E+00  0.2000E+01
    -17.700  0.0000E+00  0.2000E+01
    -17.604  0.0000E+00  0.2000E+01
    -17.508  0.0000E+00  0.2000E+01
    -17.413  0.0000E+00  0.2000E+01
    -17.317  0.0000E+00  0.2000E+01
    -17.222  0.0000E+00  0.2000E+01
    -17.126  0.0000E+00  0.2000E+01
    -17.031  0.0000E+00  0.2000E+01
    -16.935  0.0000E+00  0.2000E+01
    -16.839  0.0000E+00  0.2000E+01
    -16.744  0.0000E+00  0.2000E+01
    -16.648  0.0000E+00  0.2000E+01
    -16.553  0.0000E+00  0.2000E+01
    -16.457  0.0000E+00  0.2000E+01
    -16.361  0.0000E+00  0.2000E+01
    -16.266  0.0000E+00  0.2000E+01
    -16.170  0.0000E+00  0.2000E+01
    -16.075  0.0000E+00  0.2000E+01
    -15.979  0.0000E+00  0.2000E+01
    -15.884  0.0000E+00  0.2000E+01
    -15.788  0.0000E+00  0.2000E+01
    -15.692  0.0000E+00  0.2000E+01
    -15.597  0.0000E+00  0.2000E+01
    -15.501  0.0000E+00  0.2000E+01
    -15.406  0.0000E+00  0.2000E+01
    -15.310  0.0000E+00  0.2000E+01
    -15.214  0.0000E+00  0.2000E+01
    -15.119  0.0000E+00  0.2000E+01
    -15.023  0.0000E+00  0.2000E+01
    -14.928  0.0000E+00  0.2000E+01
    -14.832  0.0000E+00  0.2000E+01
    -14.736  0.0000E+00  0.2000E+01
    -14.641  0.0000E+00  0.2000E+01
    -14.545  0.0000E+00  0.2000E+01
    -14.450  0.0000E+00  0.2000E+01
    -14.354  0.7921E-08  0.2000E+01
    -14.259  0.5863E-02  0.2001E+01
    -14.163  0.4758E+01  0.2455E+01
    -14.067  0.1563E+02  0.3950E+01
    -13.972  0.5266E+00  0.4000E+01
    -13.876  0.3298E-04  0.4000E+01
    -13.781  0.1865E-11  0.4000E+01
    -13.685  0.0000E+00  0.4000E+01
    -13.589  0.0000E+00  0.4000E+01
    -13.494  0.0000E+00  0.4000E+01
    -13.398  0.0000E+00  0.4000E+01
    -13.303  0.0000E+00  0.4000E+01
    -13.207  0.0000E+00  0.4000E+01
    -13.112  0.0000E+00  0.4000E+01
    -13.016  0.0000E+00  0.4000E+01
    -12.920  0.0000E+00  0.4000E+01
    -12.825  0.0000E+00  0.4000E+01
    -12.729  0.0000E+00  0.4000E+01
    -12.634  0.0000E+00  0.4000E+01
    -12.538  0.0000E+00  0.4000E+01
    -12.442  0.0000E+00  0.4000E+01
    -12.347  0.0000E+00  0.4000E+01
    -12.251  0.0000E+00  0.4000E+01
    -12.156  0.0000E+00  0.4000E+01
    -12.060  0.0000E+00  0.4000E+01
    -11.964  0.0000E+00  0.4000E+01
    -11.869  0.0000E+00  0.4000E+01
    -11.773  0.0000E+00  0.4000E+01
    -11.678  0.0000E+00  0.4000E+01
    -11.582  0.0000E+00  0.4000E+01
    -11.487  0.0000E+00  0.4000E+01
    -11.391  0.0000E+00  0.4000E+01
    -11.295  0.0000E+00  0.4000E+01
    -11.200  0.0000E+00  0.4000E+01
    -11.104  0.0000E+00  0.4000E+01
    -11.009  0.0000E+00  0.4000E+01
    -10.913  0.0000E+00  0.4000E+01
    -10.817  0.0000E+00  0.4000E+01
    -10.722  0.0000E+00  0.4000E+01
    -10.626  0.0000E+00  0.4000E+01
    -10.531  0.0000E+00  0.4000E+01
    -10.435  0.0000E+00  0.4000E+01
    -10.340  0.0000E+00  0.4000E+01
    -10.244  0.0000E+00  0.4000E+01
    -10.148  0.0000E+00  0.4000E+01
    -10.053  0.0000E+00  0.4000E+01
     -9.957  0.0000E+00  0.4000E+01
     -9.862  0.0000E+00  0.4000E+01
     -9.766  0.0000E+00  0.4000E+01
     -9.670  0.0000E+00  0.4000E+01
     -9.575  0.0000E+00  0.4000E+01
     -9.479  0.0000E+00  0.4000E+01
     -9.384  0.5076E-12  0.4000E+01
     -9.288  0.8713E-05  0.4000E+01
     -9.193  0.1354E+00  0.4013E+01
     -9.097  0.5065E+01  0.4497E+01
     -9.001  0.1475E+02  0.5907E+01
     -8.906  0.6653E+01  0.6543E+01
     -8.810  0.1884E+02  0.8344E+01
     -8.715  0.1196E+02  0.9488E+01
     -8.619  0.1334E+00  0.9500E+01
     -8.523  0.1612E+01  0.9654E+01
     -8.428  0.8819E+01  0.1050E+02
     -8.332  0.3334E+02  0.1368E+02
     -8.237  0.2588E+02  0.1616E+02
     -8.141  0.3580E+02  0.1958E+02
     -8.045  0.1452E+02  0.2097E+02
     -7.950  0.5439E+00  0.2102E+02
     -7.854  0.1716E+02  0.2266E+02
     -7.759  0.1439E+02  0.2404E+02
     -7.663  0.1718E+02  0.2568E+02
     -7.568  0.3010E+02  0.2856E+02
     -7.472  0.7265E+02  0.3550E+02
     -7.376  0.2756E+02  0.3813E+02
     -7.281  0.3827E+01  0.3850E+02
     -7.185  0.1330E+01  0.3863E+02
     -7.090  0.3737E+02  0.4220E+02
     -6.994  0.7156E+02  0.4904E+02
     -6.898  0.2147E+02  0.5109E+02
     -6.803  0.2158E+02  0.5315E+02
     -6.707  0.7229E+01  0.5385E+02
     -6.612  0.3016E+02  0.5673E+02
     -6.516  0.2747E+02  0.5935E+02
     -6.421  0.3885E+02  0.6307E+02
     -6.325  0.6878E+02  0.6964E+02
     -6.229  0.5267E+02  0.7468E+02
     -6.134  0.1369E+02  0.7598E+02
     -6.038  0.4873E+02  0.8064E+02
     -5.943  0.8701E+02  0.8896E+02
     -5.847  0.6756E+02  0.9542E+02
     -5.751  0.6002E+01  0.9599E+02
     -5.656  0.3927E+01  0.9637E+02
     -5.560  0.3851E+02  0.1000E+03
     -5.465  0.6322E+02  0.1061E+03
     -5.369  0.1512E+03  0.1205E+03
     -5.273  0.6825E+02  0.1271E+03
     -5.178  0.6233E+02  0.1330E+03
     -5.082  0.1162E+03  0.1441E+03
     -4.987  0.1133E+03  0.1550E+03
     -4.891  0.5872E+02  0.1606E+03
     -4.796  0.8673E+02  0.1689E+03
     -4.700  0.2920E+03  0.1968E+03
     -4.604  0.1409E+03  0.2102E+03
     -4.509  0.2476E+03  0.2339E+03
     -4.413  0.2418E+03  0.2570E+03
     -4.318  0.3259E+03  0.2882E+03
     -4.222  0.2259E+03  0.3098E+03
     -4.126  0.2763E+03  0.3362E+03
     -4.031  0.3165E+03  0.3665E+03
     -3.935  0.4485E+03  0.4093E+03
     -3.840  0.5327E+03  0.4602E+03
     -3.744  0.4437E+03  0.5027E+03
     -3.649  0.4657E+03  0.5472E+03
     -3.553  0.4412E+03  0.5893E+03
     -3.457  0.3850E+03  0.6261E+03
     -3.362  0.3419E+03  0.6588E+03
     -3.266  0.3954E+03  0.6966E+03
     -3.171  0.5257E+03  0.7469E+03
     -3.075  0.4539E+03  0.7903E+03
     -2.979  0.3912E+03  0.8276E+03
     -2.884  0.6060E+03  0.8856E+03
     -2.788  0.5016E+03  0.9335E+03
     -2.693  0.5371E+03  0.9849E+03
     -2.597  0.5473E+03  0.1037E+04
     -2.502  0.6754E+03  0.1102E+04
     -2.406  0.7212E+03  0.1171E+04
     -2.310  0.8466E+03  0.1252E+04
     -2.215  0.8913E+03  0.1337E+04
     -2.119  0.7936E+03  0.1413E+04
     -2.024  0.8860E+03  0.1497E+04
     -1.928  0.7126E+03  0.1565E+04
     -1.832  0.5671E+03  0.1620E+04
     -1.737  0.5915E+03  0.1676E+04
     -1.641  0.5371E+03  0.1728E+04
     -1.546  0.5539E+03  0.1780E+04
     -1.450  0.7676E+03  0.1854E+04
     -1.354  0.7556E+03  0.1926E+04
     -1.259  0.5165E+03  0.1975E+04
     -1.163  0.6165E+03  0.2034E+04
     -1.068  0.7645E+03  0.2107E+04
     -0.972  0.8600E+03  0.2190E+04
     -0.877  0.6938E+03  0.2256E+04
     -0.781  0.6862E+03  0.2322E+04
     -0.685  0.9840E+03  0.2416E+04
     -0.590  0.1217E+04  0.2532E+04
     -0.494  0.8045E+03  0.2609E+04
     -0.399  0.4200E+03  0.2649E+04
     -0.303  0.1709E+03  0.2665E+04
     -0.207  0.1281E+03  0.2678E+04
     -0.112  0.1701E+03  0.2694E+04
     -0.016  0.1455E+03  0.2708E+04
      0.079  0.6369E+02  0.2714E+04
      0.175  0.5292E+02  0.2719E+04
      0.270  0.5354E+02  0.2724E+04
      0.366  0.5518E+02  0.2729E+04
      0.462  0.1212E+03  0.2741E+04
      0.557  0.8508E+02  0.2749E+04
      0.653  0.8721E+02  0.2757E+04
      0.748  0.8053E+02  0.2765E+04
      0.844  0.1055E+03  0.2775E+04
      0.940  0.1223E+03  0.2787E+04
      1.035  0.9501E+02  0.2796E+04
      1.131  0.4704E+02  0.2800E+04
      1.226  0.4705E+02  0.2805E+04
      1.322  0.1101E+03  0.2815E+04
      1.417  0.5817E+02  0.2821E+04
      1.513  0.5076E+02  0.2826E+04
      1.609  0.7843E+02  0.2833E+04
      1.704  0.9630E+02  0.2843E+04
      1.800  0.7027E+02  0.2849E+04
      1.895  0.8826E+02  0.2858E+04
      1.991  0.9912E+02  0.2867E+04
      2.087  0.3488E+02  0.2870E+04
      2.182  0.9444E+02  0.2879E+04
      2.278  0.9786E+02  0.2889E+04
      2.373  0.1028E+03  0.2899E+04
      2.469  0.3065E+02  0.2902E+04
      2.565  0.5068E+02  0.2906E+04
      2.660  0.7015E+02  0.2913E+04
      2.756  0.3027E+02  0.2916E+04
      2.851  0.2737E+02  0.2919E+04
      2.947  0.6015E+02  0.2924E+04
      3.042  0.1437E+03  0.2938E+04
      3.138  0.1649E+03  0.2954E+04
      3.234  0.6133E+02  0.2960E+04
      3.329  0.4006E+02  0.2964E+04
      3.425  0.5063E+02  0.2968E+04
      3.520  0.9599E+02  0.2978E+04
      3.616  0.3977E+02  0.2981E+04
      3.712  0.5516E+02  0.2987E+04
      3.807  0.4608E+02  0.2991E+04
      3.903  0.2112E+02  0.2993E+04
      3.998  0.3297E+02  0.2996E+04
      4.094  0.2573E+02  0.2999E+04
      4.189  0.8089E+02  0.3006E+04
      4.285  0.3799E+02  0.3010E+04
      4.381  0.6165E+02  0.3016E+04
      4.476  0.8374E+02  0.3024E+04
      4.572  0.5378E+02  0.3029E+04
      4.667  0.5732E+02  0.3035E+04
      4.763  0.1445E+02  0.3036E+04
      4.859  0.2455E+00  0.3036E+04
      4.954  0.2544E-04  0.3036E+04
      5.050  0.2671E-11  0.3036E+04
      5.145  0.0000E+00  0.3036E+04
      5.241  0.0000E+00  0.3036E+04
      5.337  0.0000E+00  0.3036E+04
      5.432  0.0000E+00  0.3036E+04
      5.528  0.0000E+00  0.3036E+04
      5.623  0.0000E+00  0.3036E+04
      5.719  0.0000E+00  0.3036E+04
      5.814  0.0000E+00  0.3036E+04
      5.910  0.0000E+00  0.3036E+04
      6.006  0.0000E+00  0.3036E+04
