  254  254    1    1
  0.2268316E+02  0.1514622E-08  0.1514622E-08  0.2900000E-08  0.5000000E-15
  1.000000000000000E-004
  CAR 
 NiAl                                    
   2530      4   1518
 
  0.0000000E+00  0.0000000E+00  0.0000000E+00  0.2500000E+00
    1      -21.366542   1.000000
    2      -14.136472   1.000000
    3       -9.123720   1.000000
    4       -8.962248   1.000000
    5       -8.505673   1.000000
    6       -8.259078   1.000000
    7       -8.170702   1.000000
    8       -8.170409   1.000000
    9       -8.169916   1.000000
   10       -8.169688   1.000000
   11       -8.148847   1.000000
   12       -8.100366   1.000000
   13       -7.706461   1.000000
   14       -7.676526   1.000000
   15       -7.664845   1.000000
   16       -7.664634   1.000000
   17       -7.664056   1.000000
   18       -7.625905   1.000000
   19       -7.622095   1.000000
   20       -7.423957   1.000000
   21       -6.878834   1.000000
   22       -6.878623   1.000000
   23       -6.877051   1.000000
   24       -6.876117   1.000000
   25       -6.850738   1.000000
   26       -6.799776   1.000000
   27       -6.643735   1.000000
   28       -6.535508   1.000000
   29       -6.535082   1.000000
   30       -6.534481   1.000000
   31       -6.533087   1.000000
   32       -6.528895   1.000000
   33       -6.526602   1.000000
   34       -6.117990   1.000000
   35       -6.116846   1.000000
   36       -6.115370   1.000000
   37       -6.112139   1.000000
   38       -6.107070   1.000000
   39       -6.101031   1.000000
   40       -5.915898   1.000000
   41       -5.915682   1.000000
   42       -5.915078   1.000000
   43       -5.914274   1.000000
   44       -5.914036   1.000000
   45       -5.913235   1.000000
   46       -5.913061   1.000000
   47       -5.913004   1.000000
   48       -5.910675   1.000000
   49       -5.908607   1.000000
   50       -5.891663   1.000000
   51       -5.823444   1.000000
   52       -5.652862   1.000000
   53       -5.616599   1.000000
   54       -5.589067   1.000000
   55       -5.583255   1.000000
   56       -5.579795   1.000000
   57       -5.577703   1.000000
   58       -5.572610   1.000000
   59       -5.540907   1.000000
   60       -5.491737   1.000000
   61       -5.488719   1.000000
   62       -5.488135   1.000000
   63       -5.485554   1.000000
   64       -5.466327   1.000000
   65       -5.466113   1.000000
   66       -5.143926   1.000000
   67       -5.141897   1.000000
   68       -5.139737   1.000000
   69       -5.132623   1.000000
   70       -5.127801   1.000000
   71       -5.120032   1.000000
   72       -5.044665   1.000000
   73       -4.979946   1.000000
   74       -4.977450   1.000000
   75       -4.976759   1.000000
   76       -4.975377   1.000000
   77       -4.973247   1.000000
   78       -4.906036   1.000000
   79       -4.887630   1.000000
   80       -4.865595   1.000000
   81       -4.806102   1.000000
   82       -4.804322   1.000000
   83       -4.799927   1.000000
   84       -4.771063   1.000000
   85       -4.770246   1.000000
   86       -4.767262   1.000000
   87       -4.765735   1.000000
   88       -4.752267   1.000000
   89       -4.739055   1.000000
   90       -4.691259   1.000000
   91       -4.682562   1.000000
   92       -4.682036   1.000000
   93       -4.674507   1.000000
   94       -4.668889   1.000000
   95       -4.667144   1.000000
   96       -4.663263   1.000000
   97       -4.662600   1.000000
   98       -4.658299   1.000000
   99       -4.575605   1.000000
  100       -4.574871   1.000000
  101       -4.572116   1.000000
  102       -4.571046   1.000000
  103       -4.570878   1.000000
  104       -4.570741   1.000000
  105       -4.570506   1.000000
  106       -4.570225   1.000000
  107       -4.569774   1.000000
  108       -4.569474   1.000000
  109       -4.568338   1.000000
  110       -4.566515   1.000000
  111       -4.535104   1.000000
  112       -4.529172   1.000000
  113       -4.528383   1.000000
  114       -4.463536   1.000000
  115       -4.460170   1.000000
  116       -4.454631   1.000000
  117       -4.434642   1.000000
  118       -4.427327   1.000000
  119       -4.424250   1.000000
  120       -4.423633   1.000000
  121       -4.422749   1.000000
  122       -4.394493   1.000000
  123       -4.388252   1.000000
  124       -4.380687   1.000000
  125       -4.372652   1.000000
  126       -4.367782   1.000000
  127       -4.367498   1.000000
  128       -4.367141   1.000000
  129       -4.367066   1.000000
  130       -4.366893   1.000000
  131       -4.366530   1.000000
  132       -4.366324   1.000000
  133       -4.365714   1.000000
  134       -4.364757   1.000000
  135       -4.362236   1.000000
  136       -4.360463   1.000000
  137       -4.359229   1.000000
  138       -4.357513   1.000000
  139       -4.357106   1.000000
  140       -4.356773   1.000000
  141       -4.356281   1.000000
  142       -4.356083   1.000000
  143       -4.355770   1.000000
  144       -4.355416   1.000000
  145       -4.354179   1.000000
  146       -4.353776   1.000000
  147       -4.315105   1.000000
  148       -4.312876   1.000000
  149       -4.310258   1.000000
  150       -4.310018   1.000000
  151       -4.309717   1.000000
  152       -4.302375   1.000000
  153       -4.281978   1.000000
  154       -4.281393   1.000000
  155       -4.274693   1.000000
  156       -4.273652   1.000000
  157       -4.266811   1.000000
  158       -4.259874   1.000000
  159       -4.253561   1.000000
  160       -4.253350   1.000000
  161       -4.244424   1.000000
  162       -4.235945   1.000000
  163       -4.233932   1.000000
  164       -4.226833   1.000000
  165       -4.221634   1.000000
  166       -4.216529   1.000000
  167       -4.216080   1.000000
  168       -4.215445   1.000000
  169       -4.213311   1.000000
  170       -4.213238   1.000000
  171       -4.210114   1.000000
  172       -4.205831   1.000000
  173       -4.205459   1.000000
  174       -4.155349   1.000000
  175       -4.153124   1.000000
  176       -4.151926   1.000000
  177       -4.133820   1.000000
  178       -4.127061   1.000000
  179       -4.125568   1.000000
  180       -4.124712   1.000000
  181       -4.119493   1.000000
  182       -4.110779   1.000000
  183       -4.103758   1.000000
  184       -4.039836   1.000000
  185       -4.037316   1.000000
  186       -4.034402   1.000000
  187       -4.033972   1.000000
  188       -4.028313   1.000000
  189       -4.027690   1.000000
  190       -4.019508   1.000000
  191       -4.017068   1.000000
  192       -4.016441   1.000000
  193       -4.014474   1.000000
  194       -4.010356   1.000000
  195       -4.009735   1.000000
  196       -4.000846   1.000000
  197       -3.999812   1.000000
  198       -3.985420   1.000000
  199       -3.984492   1.000000
  200       -3.983394   1.000000
  201       -3.974248   1.000000
  202       -3.923376   1.000000
  203       -3.921811   1.000000
  204       -3.921237   1.000000
  205       -3.918611   1.000000
  206       -3.916498   1.000000
  207       -3.916218   1.000000
  208       -3.899972   1.000000
  209       -3.892976   1.000000
  210       -3.883527   1.000000
  211       -3.876703   1.000000
  212       -3.875761   1.000000
  213       -3.874442   1.000000
  214       -3.873393   1.000000
  215       -3.873221   1.000000
  216       -3.872575   1.000000
  217       -3.872471   1.000000
  218       -3.872138   1.000000
  219       -3.871844   1.000000
  220       -3.871646   1.000000
  221       -3.868173   1.000000
  222       -3.866800   1.000000
  223       -3.863943   1.000000
  224       -3.863263   1.000000
  225       -3.860851   1.000000
  226       -3.847752   1.000000
  227       -3.835459   1.000000
  228       -3.814565   1.000000
  229       -3.798235   1.000000
  230       -3.791285   1.000000
  231       -3.784161   1.000000
  232       -3.780902   1.000000
  233       -3.778989   1.000000
  234       -3.778767   1.000000
  235       -3.778267   1.000000
  236       -3.777156   1.000000
  237       -3.776588   1.000000
  238       -3.771915   1.000000
  239       -3.771625   1.000000
  240       -3.761452   1.000000
  241       -3.750732   1.000000
  242       -3.748498   1.000000
  243       -3.747335   1.000000
  244       -3.747269   1.000000
  245       -3.737229   1.000000
  246       -3.733492   1.000000
  247       -3.731116   1.000000
  248       -3.730415   1.000000
  249       -3.729241   1.000000
  250       -3.729134   1.000000
  251       -3.728421   1.000000
  252       -3.727183   1.000000
  253       -3.725976   1.000000
  254       -3.725108   1.000000
  255       -3.724390   1.000000
  256       -3.721962   1.000000
  257       -3.719966   1.000000
  258       -3.719802   1.000000
  259       -3.694921   1.000000
  260       -3.691215   1.000000
  261       -3.685799   1.000000
  262       -3.685438   1.000000
  263       -3.682811   1.000000
  264       -3.681704   1.000000
  265       -3.681270   1.000000
  266       -3.680796   1.000000
  267       -3.680232   1.000000
  268       -3.680159   1.000000
  269       -3.674196   1.000000
  270       -3.672374   1.000000
  271       -3.668412   1.000000
  272       -3.647353   1.000000
  273       -3.642055   1.000000
  274       -3.632294   1.000000
  275       -3.630089   1.000000
  276       -3.628022   1.000000
  277       -3.620174   1.000000
  278       -3.619857   1.000000
  279       -3.616249   1.000000
  280       -3.614723   1.000000
  281       -3.607460   1.000000
  282       -3.594991   1.000000
  283       -3.594644   1.000000
  284       -3.585151   1.000000
  285       -3.581983   1.000000
  286       -3.581829   1.000000
  287       -3.581625   1.000000
  288       -3.579807   1.000000
  289       -3.578750   1.000000
  290       -3.571207   1.000000
  291       -3.570857   1.000000
  292       -3.568396   1.000000
  293       -3.567728   1.000000
  294       -3.565149   1.000000
  295       -3.562896   1.000000
  296       -3.562613   1.000000
  297       -3.555364   1.000000
  298       -3.527124   1.000000
  299       -3.512499   1.000000
  300       -3.502491   1.000000
  301       -3.498767   1.000000
  302       -3.497549   1.000000
  303       -3.497323   1.000000
  304       -3.495271   1.000000
  305       -3.493925   1.000000
  306       -3.492213   1.000000
  307       -3.491381   1.000000
  308       -3.490784   1.000000
  309       -3.489954   1.000000
  310       -3.488439   1.000000
  311       -3.486029   1.000000
  312       -3.483576   1.000000
  313       -3.474077   1.000000
  314       -3.455375   1.000000
  315       -3.448180   1.000000
  316       -3.445255   1.000000
  317       -3.444635   1.000000
  318       -3.443855   1.000000
  319       -3.442671   1.000000
  320       -3.435365   1.000000
  321       -3.431191   1.000000
  322       -3.431028   1.000000
  323       -3.413362   1.000000
  324       -3.411962   1.000000
  325       -3.409806   1.000000
  326       -3.409744   1.000000
  327       -3.408185   1.000000
  328       -3.407396   1.000000
  329       -3.407356   1.000000
  330       -3.406873   1.000000
  331       -3.406685   1.000000
  332       -3.404830   1.000000
  333       -3.404403   1.000000
  334       -3.401736   1.000000
  335       -3.401030   1.000000
  336       -3.395978   1.000000
  337       -3.394545   1.000000
  338       -3.394397   1.000000
  339       -3.393562   1.000000
  340       -3.393049   1.000000
  341       -3.366523   1.000000
  342       -3.322404   1.000000
  343       -3.307360   1.000000
  344       -3.305971   1.000000
  345       -3.289679   1.000000
  346       -3.285913   1.000000
  347       -3.282374   1.000000
  348       -3.279166   1.000000
  349       -3.277540   1.000000
  350       -3.270253   1.000000
  351       -3.259636   1.000000
  352       -3.254686   1.000000
  353       -3.244346   1.000000
  354       -3.240877   1.000000
  355       -3.238589   1.000000
  356       -3.233357   1.000000
  357       -3.232966   1.000000
  358       -3.227594   1.000000
  359       -3.216486   1.000000
  360       -3.216248   1.000000
  361       -3.215035   1.000000
  362       -3.214729   1.000000
  363       -3.207416   1.000000
  364       -3.205688   1.000000
  365       -3.198634   1.000000
  366       -3.196654   1.000000
  367       -3.176672   1.000000
  368       -3.172974   1.000000
  369       -3.169846   1.000000
  370       -3.167339   1.000000
  371       -3.165793   1.000000
  372       -3.157013   1.000000
  373       -3.151301   1.000000
  374       -3.150976   1.000000
  375       -3.146494   1.000000
  376       -3.145875   1.000000
  377       -3.145017   1.000000
  378       -3.144729   1.000000
  379       -3.144040   1.000000
  380       -3.143888   1.000000
  381       -3.143477   1.000000
  382       -3.141893   1.000000
  383       -3.141035   1.000000
  384       -3.132482   1.000000
  385       -3.092594   1.000000
  386       -3.089316   1.000000
  387       -3.086278   1.000000
  388       -3.085939   1.000000
  389       -3.084663   1.000000
  390       -3.081124   1.000000
  391       -3.079953   1.000000
  392       -3.076854   1.000000
  393       -3.076768   1.000000
  394       -3.074605   1.000000
  395       -3.074256   1.000000
  396       -3.070690   1.000000
  397       -3.051973   1.000000
  398       -3.044621   1.000000
  399       -3.040848   1.000000
  400       -3.040106   1.000000
  401       -3.038040   1.000000
  402       -3.037511   1.000000
  403       -3.009761   1.000000
  404       -3.000899   1.000000
  405       -2.988728   1.000000
  406       -2.978756   1.000000
  407       -2.975371   1.000000
  408       -2.974184   1.000000
  409       -2.966200   1.000000
  410       -2.965049   1.000000
  411       -2.963179   1.000000
  412       -2.963026   1.000000
  413       -2.957748   1.000000
  414       -2.956562   1.000000
  415       -2.946399   1.000000
  416       -2.944460   1.000000
  417       -2.942816   1.000000
  418       -2.941896   1.000000
  419       -2.940112   1.000000
  420       -2.937670   1.000000
  421       -2.935008   1.000000
  422       -2.931986   1.000000
  423       -2.930124   1.000000
  424       -2.929244   1.000000
  425       -2.927330   1.000000
  426       -2.921017   1.000000
  427       -2.920181   1.000000
  428       -2.910303   1.000000
  429       -2.907465   1.000000
  430       -2.903748   1.000000
  431       -2.900675   1.000000
  432       -2.897995   1.000000
  433       -2.897193   1.000000
  434       -2.894743   1.000000
  435       -2.894602   1.000000
  436       -2.893835   1.000000
  437       -2.893520   1.000000
  438       -2.893101   1.000000
  439       -2.892893   1.000000
  440       -2.892606   1.000000
  441       -2.892255   1.000000
  442       -2.889664   1.000000
  443       -2.888298   1.000000
  444       -2.887937   1.000000
  445       -2.861110   1.000000
  446       -2.851997   1.000000
  447       -2.849205   1.000000
  448       -2.846081   1.000000
  449       -2.841759   1.000000
  450       -2.837678   1.000000
  451       -2.832846   1.000000
  452       -2.832399   1.000000
  453       -2.830774   1.000000
  454       -2.825915   1.000000
  455       -2.824922   1.000000
  456       -2.823854   1.000000
  457       -2.822823   1.000000
  458       -2.822004   1.000000
  459       -2.820887   1.000000
  460       -2.820400   1.000000
  461       -2.820143   1.000000
  462       -2.820070   1.000000
  463       -2.819795   1.000000
  464       -2.819532   1.000000
  465       -2.819007   1.000000
  466       -2.801858   1.000000
  467       -2.792940   1.000000
  468       -2.787899   1.000000
  469       -2.779009   1.000000
  470       -2.775257   1.000000
  471       -2.771846   1.000000
  472       -2.768429   1.000000
  473       -2.764659   1.000000
  474       -2.757743   1.000000
  475       -2.745601   1.000000
  476       -2.740753   1.000000
  477       -2.738770   1.000000
  478       -2.737400   1.000000
  479       -2.737043   1.000000
  480       -2.736537   1.000000
  481       -2.735207   1.000000
  482       -2.733615   1.000000
  483       -2.732888   1.000000
  484       -2.732587   1.000000
  485       -2.731077   1.000000
  486       -2.730108   1.000000
  487       -2.728507   1.000000
  488       -2.723387   1.000000
  489       -2.723076   1.000000
  490       -2.722254   1.000000
  491       -2.718680   1.000000
  492       -2.715792   1.000000
  493       -2.714384   1.000000
  494       -2.713622   1.000000
  495       -2.712603   1.000000
  496       -2.712102   1.000000
  497       -2.711851   1.000000
  498       -2.710362   1.000000
  499       -2.707848   1.000000
  500       -2.706157   1.000000
  501       -2.706088   1.000000
  502       -2.703007   1.000000
  503       -2.698030   1.000000
  504       -2.684960   1.000000
  505       -2.684645   1.000000
  506       -2.680096   1.000000
  507       -2.674943   1.000000
  508       -2.664017   1.000000
  509       -2.662814   1.000000
  510       -2.653052   1.000000
  511       -2.648896   1.000000
  512       -2.648294   1.000000
  513       -2.645050   1.000000
  514       -2.644326   1.000000
  515       -2.644012   1.000000
  516       -2.641528   1.000000
  517       -2.639553   1.000000
  518       -2.639403   1.000000
  519       -2.631717   1.000000
  520       -2.627648   1.000000
  521       -2.610180   1.000000
  522       -2.608451   1.000000
  523       -2.607332   1.000000
  524       -2.604043   1.000000
  525       -2.597727   1.000000
  526       -2.579259   1.000000
  527       -2.577330   1.000000
  528       -2.570355   1.000000
  529       -2.565851   1.000000
  530       -2.563488   1.000000
  531       -2.560051   1.000000
  532       -2.559884   1.000000
  533       -2.554478   1.000000
  534       -2.553118   1.000000
  535       -2.552767   1.000000
  536       -2.551000   1.000000
  537       -2.550299   1.000000
  538       -2.550247   1.000000
  539       -2.548849   1.000000
  540       -2.548714   1.000000
  541       -2.546964   1.000000
  542       -2.544495   1.000000
  543       -2.541689   1.000000
  544       -2.541089   1.000000
  545       -2.537346   1.000000
  546       -2.525631   1.000000
  547       -2.520193   1.000000
  548       -2.516157   1.000000
  549       -2.513885   1.000000
  550       -2.513013   1.000000
  551       -2.511717   1.000000
  552       -2.507838   1.000000
  553       -2.504866   1.000000
  554       -2.502994   1.000000
  555       -2.501975   1.000000
  556       -2.501465   1.000000
  557       -2.500735   1.000000
  558       -2.493021   1.000000
  559       -2.492214   1.000000
  560       -2.491297   1.000000
  561       -2.488080   1.000000
  562       -2.486822   1.000000
  563       -2.486673   1.000000
  564       -2.477197   1.000000
  565       -2.476048   1.000000
  566       -2.475874   1.000000
  567       -2.475038   1.000000
  568       -2.474372   1.000000
  569       -2.474279   1.000000
  570       -2.473668   1.000000
  571       -2.472898   1.000000
  572       -2.471807   1.000000
  573       -2.469216   1.000000
  574       -2.468550   1.000000
  575       -2.465404   1.000000
  576       -2.456450   1.000000
  577       -2.451772   1.000000
  578       -2.450378   1.000000
  579       -2.448233   1.000000
  580       -2.441992   1.000000
  581       -2.440065   1.000000
  582       -2.436794   1.000000
  583       -2.433906   1.000000
  584       -2.431712   1.000000
  585       -2.428882   1.000000
  586       -2.426764   1.000000
  587       -2.426049   1.000000
  588       -2.423936   1.000000
  589       -2.412552   1.000000
  590       -2.411878   1.000000
  591       -2.408588   1.000000
  592       -2.404165   1.000000
  593       -2.403434   1.000000
  594       -2.400983   1.000000
  595       -2.398257   1.000000
  596       -2.395913   1.000000
  597       -2.389502   1.000000
  598       -2.387561   1.000000
  599       -2.386802   1.000000
  600       -2.385012   1.000000
  601       -2.384891   1.000000
  602       -2.384000   1.000000
  603       -2.383913   1.000000
  604       -2.383115   1.000000
  605       -2.381546   1.000000
  606       -2.380896   1.000000
  607       -2.379770   1.000000
  608       -2.378998   1.000000
  609       -2.378615   1.000000
  610       -2.377971   1.000000
  611       -2.377660   1.000000
  612       -2.373790   1.000000
  613       -2.373243   1.000000
  614       -2.367626   1.000000
  615       -2.357109   1.000000
  616       -2.356748   1.000000
  617       -2.345163   1.000000
  618       -2.331574   1.000000
  619       -2.328979   1.000000
  620       -2.320443   1.000000
  621       -2.315351   1.000000
  622       -2.312211   1.000000
  623       -2.310949   1.000000
  624       -2.308251   1.000000
  625       -2.307214   1.000000
  626       -2.297284   1.000000
  627       -2.295014   1.000000
  628       -2.294164   1.000000
  629       -2.288841   1.000000
  630       -2.284873   1.000000
  631       -2.281937   1.000000
  632       -2.281124   1.000000
  633       -2.281022   1.000000
  634       -2.280478   1.000000
  635       -2.279725   1.000000
  636       -2.279644   1.000000
  637       -2.279097   1.000000
  638       -2.277206   1.000000
  639       -2.276670   1.000000
  640       -2.274504   1.000000
  641       -2.272534   1.000000
  642       -2.263572   1.000000
  643       -2.262699   1.000000
  644       -2.258675   1.000000
  645       -2.258056   1.000000
  646       -2.251562   1.000000
  647       -2.246650   1.000000
  648       -2.245946   1.000000
  649       -2.245541   1.000000
  650       -2.244545   1.000000
  651       -2.240592   1.000000
  652       -2.239291   1.000000
  653       -2.230844   1.000000
  654       -2.229239   1.000000
  655       -2.227461   1.000000
  656       -2.224553   1.000000
  657       -2.223714   1.000000
  658       -2.223433   1.000000
  659       -2.221236   1.000000
  660       -2.221007   1.000000
  661       -2.219141   1.000000
  662       -2.217522   1.000000
  663       -2.217206   1.000000
  664       -2.215748   1.000000
  665       -2.214521   1.000000
  666       -2.213208   1.000000
  667       -2.211238   1.000000
  668       -2.211007   1.000000
  669       -2.210574   1.000000
  670       -2.207208   1.000000
  671       -2.206322   1.000000
  672       -2.204071   1.000000
  673       -2.203920   1.000000
  674       -2.191191   1.000000
  675       -2.185529   1.000000
  676       -2.181114   1.000000
  677       -2.176735   1.000000
  678       -2.175827   1.000000
  679       -2.174881   1.000000
  680       -2.170566   1.000000
  681       -2.169062   1.000000
  682       -2.167304   1.000000
  683       -2.163361   1.000000
  684       -2.162335   1.000000
  685       -2.161352   1.000000
  686       -2.157710   1.000000
  687       -2.156691   1.000000
  688       -2.147281   1.000000
  689       -2.141464   1.000000
  690       -2.136728   1.000000
  691       -2.128853   1.000000
  692       -2.126008   1.000000
  693       -2.124748   1.000000
  694       -2.124507   1.000000
  695       -2.121457   1.000000
  696       -2.119645   1.000000
  697       -2.119126   1.000000
  698       -2.117609   1.000000
  699       -2.113822   1.000000
  700       -2.112851   1.000000
  701       -2.112794   1.000000
  702       -2.112393   1.000000
  703       -2.112126   1.000000
  704       -2.110597   1.000000
  705       -2.110238   1.000000
  706       -2.109621   1.000000
  707       -2.108095   1.000000
  708       -2.107588   1.000000
  709       -2.107234   1.000000
  710       -2.107076   1.000000
  711       -2.107006   1.000000
  712       -2.106407   1.000000
  713       -2.105265   1.000000
  714       -2.103939   1.000000
  715       -2.103689   1.000000
  716       -2.101463   1.000000
  717       -2.095742   1.000000
  718       -2.089021   1.000000
  719       -2.088569   1.000000
  720       -2.088553   1.000000
  721       -2.087931   1.000000
  722       -2.087831   1.000000
  723       -2.087315   1.000000
  724       -2.073991   1.000000
  725       -2.063377   1.000000
  726       -2.058834   1.000000
  727       -2.050947   1.000000
  728       -2.046820   1.000000
  729       -2.043376   1.000000
  730       -2.040139   1.000000
  731       -2.037548   1.000000
  732       -2.035917   1.000000
  733       -2.029633   1.000000
  734       -2.029365   1.000000
  735       -2.028678   1.000000
  736       -2.028057   1.000000
  737       -2.027593   1.000000
  738       -2.027181   1.000000
  739       -2.026688   1.000000
  740       -2.025379   1.000000
  741       -2.019754   1.000000
  742       -2.008442   1.000000
  743       -2.006019   1.000000
  744       -2.003261   1.000000
  745       -2.000785   1.000000
  746       -1.994091   1.000000
  747       -1.993919   1.000000
  748       -1.992735   1.000000
  749       -1.992042   1.000000
  750       -1.990108   1.000000
  751       -1.989155   1.000000
  752       -1.987125   1.000000
  753       -1.984830   1.000000
  754       -1.980051   1.000000
  755       -1.975696   1.000000
  756       -1.973775   1.000000
  757       -1.963893   1.000000
  758       -1.961735   1.000000
  759       -1.955121   1.000000
  760       -1.953936   1.000000
  761       -1.947293   1.000000
  762       -1.940454   1.000000
  763       -1.940027   1.000000
  764       -1.934435   1.000000
  765       -1.933612   1.000000
  766       -1.932119   1.000000
  767       -1.931233   1.000000
  768       -1.931201   1.000000
  769       -1.930639   1.000000
  770       -1.930490   1.000000
  771       -1.928317   1.000000
  772       -1.928169   1.000000
  773       -1.927104   1.000000
  774       -1.926884   1.000000
  775       -1.926278   1.000000
  776       -1.925005   1.000000
  777       -1.921948   1.000000
  778       -1.917311   1.000000
  779       -1.913801   1.000000
  780       -1.908291   1.000000
  781       -1.907008   1.000000
  782       -1.898876   1.000000
  783       -1.897077   1.000000
  784       -1.895519   1.000000
  785       -1.893994   1.000000
  786       -1.890618   1.000000
  787       -1.889664   1.000000
  788       -1.888380   1.000000
  789       -1.888007   1.000000
  790       -1.886077   1.000000
  791       -1.883452   1.000000
  792       -1.879806   1.000000
  793       -1.874655   1.000000
  794       -1.874541   1.000000
  795       -1.865628   1.000000
  796       -1.862952   1.000000
  797       -1.857823   1.000000
  798       -1.855891   1.000000
  799       -1.855131   1.000000
  800       -1.854055   1.000000
  801       -1.848370   1.000000
  802       -1.847502   1.000000
  803       -1.845427   1.000000
  804       -1.844074   1.000000
  805       -1.842168   1.000000
  806       -1.835589   1.000000
  807       -1.830779   1.000000
  808       -1.828830   1.000000
  809       -1.825480   1.000000
  810       -1.816997   1.000000
  811       -1.816365   1.000000
  812       -1.811721   1.000000
  813       -1.809173   1.000000
  814       -1.807479   1.000000
  815       -1.806065   1.000000
  816       -1.802540   1.000000
  817       -1.795821   1.000000
  818       -1.795524   1.000000
  819       -1.794309   1.000000
  820       -1.788928   1.000000
  821       -1.786285   1.000000
  822       -1.784877   1.000000
  823       -1.782256   1.000000
  824       -1.780014   1.000000
  825       -1.779105   1.000000
  826       -1.778362   1.000000
  827       -1.771976   1.000000
  828       -1.771456   1.000000
  829       -1.767818   1.000000
  830       -1.767041   1.000000
  831       -1.766613   1.000000
  832       -1.763958   1.000000
  833       -1.763240   1.000000
  834       -1.762174   1.000000
  835       -1.760823   1.000000
  836       -1.760617   1.000000
  837       -1.759533   1.000000
  838       -1.758905   1.000000
  839       -1.758172   1.000000
  840       -1.756880   1.000000
  841       -1.754800   1.000000
  842       -1.753686   1.000000
  843       -1.752723   1.000000
  844       -1.752401   1.000000
  845       -1.749880   1.000000
  846       -1.748888   1.000000
  847       -1.747164   1.000000
  848       -1.739701   1.000000
  849       -1.739118   1.000000
  850       -1.737225   1.000000
  851       -1.733353   1.000000
  852       -1.732322   1.000000
  853       -1.730957   1.000000
  854       -1.725216   1.000000
  855       -1.721432   1.000000
  856       -1.718366   1.000000
  857       -1.716530   1.000000
  858       -1.713594   1.000000
  859       -1.708938   1.000000
  860       -1.705102   1.000000
  861       -1.699949   1.000000
  862       -1.696764   1.000000
  863       -1.688800   1.000000
  864       -1.686586   1.000000
  865       -1.682471   1.000000
  866       -1.680540   1.000000
  867       -1.678870   1.000000
  868       -1.677444   1.000000
  869       -1.674677   1.000000
  870       -1.671415   1.000000
  871       -1.660837   1.000000
  872       -1.643415   1.000000
  873       -1.642044   1.000000
  874       -1.641825   1.000000
  875       -1.640633   1.000000
  876       -1.640217   1.000000
  877       -1.637460   1.000000
  878       -1.636662   1.000000
  879       -1.633722   1.000000
  880       -1.631482   1.000000
  881       -1.630498   1.000000
  882       -1.627931   1.000000
  883       -1.627431   1.000000
  884       -1.615535   1.000000
  885       -1.615343   1.000000
  886       -1.613092   1.000000
  887       -1.601705   1.000000
  888       -1.600631   1.000000
  889       -1.593109   1.000000
  890       -1.590488   1.000000
  891       -1.585242   1.000000
  892       -1.582943   1.000000
  893       -1.581636   1.000000
  894       -1.569672   1.000000
  895       -1.557111   1.000000
  896       -1.540858   1.000000
  897       -1.538371   1.000000
  898       -1.519286   1.000000
  899       -1.514630   1.000000
  900       -1.513989   1.000000
  901       -1.511553   1.000000