 254 254   0   0
  0.3019211E+02  0.1718057E-08  0.1718057E-08  0.3000000E-08  0.5000000E-15
  1.000000000000000E-004
  CAR 
 NiAl                                    
      5.52343619    -24.11459647  301      1.81431550      1.00000000
    -24.115  0.0000E+00  0.0000E+00
    -24.016  0.0000E+00  0.0000E+00
    -23.917  0.0000E+00  0.0000E+00
    -23.818  0.0000E+00  0.0000E+00
    -23.719  0.0000E+00  0.0000E+00
    -23.621  0.0000E+00  0.0000E+00
    -23.522  0.0000E+00  0.0000E+00
    -23.423  0.0000E+00  0.0000E+00
    -23.324  0.0000E+00  0.0000E+00
    -23.225  0.0000E+00  0.0000E+00
    -23.127  0.0000E+00  0.0000E+00
    -23.028  0.1736E-11  0.1715E-12
    -22.929  0.4820E-04  0.4762E-05
    -22.830  0.7587E+00  0.7496E-01
    -22.731  0.1634E+02  0.1689E+01
    -22.633  0.3144E+01  0.2000E+01
    -22.534  0.1419E-02  0.2000E+01
    -22.435  0.4101E-09  0.2000E+01
    -22.336  0.0000E+00  0.2000E+01
    -22.238  0.0000E+00  0.2000E+01
    -22.139  0.0000E+00  0.2000E+01
    -22.040  0.0000E+00  0.2000E+01
    -21.941  0.0000E+00  0.2000E+01
    -21.842  0.0000E+00  0.2000E+01
    -21.744  0.0000E+00  0.2000E+01
    -21.645  0.0000E+00  0.2000E+01
    -21.546  0.0000E+00  0.2000E+01
    -21.447  0.0000E+00  0.2000E+01
    -21.348  0.0000E+00  0.2000E+01
    -21.250  0.0000E+00  0.2000E+01
    -21.151  0.0000E+00  0.2000E+01
    -21.052  0.0000E+00  0.2000E+01
    -20.953  0.0000E+00  0.2000E+01
    -20.854  0.0000E+00  0.2000E+01
    -20.756  0.0000E+00  0.2000E+01
    -20.657  0.0000E+00  0.2000E+01
    -20.558  0.0000E+00  0.2000E+01
    -20.459  0.0000E+00  0.2000E+01
    -20.360  0.0000E+00  0.2000E+01
    -20.262  0.0000E+00  0.2000E+01
    -20.163  0.0000E+00  0.2000E+01
    -20.064  0.0000E+00  0.2000E+01
    -19.965  0.0000E+00  0.2000E+01
    -19.866  0.0000E+00  0.2000E+01
    -19.768  0.0000E+00  0.2000E+01
    -19.669  0.0000E+00  0.2000E+01
    -19.570  0.0000E+00  0.2000E+01
    -19.471  0.0000E+00  0.2000E+01
    -19.373  0.0000E+00  0.2000E+01
    -19.274  0.0000E+00  0.2000E+01
    -19.175  0.0000E+00  0.2000E+01
    -19.076  0.0000E+00  0.2000E+01
    -18.977  0.0000E+00  0.2000E+01
    -18.879  0.0000E+00  0.2000E+01
    -18.780  0.0000E+00  0.2000E+01
    -18.681  0.0000E+00  0.2000E+01
    -18.582  0.0000E+00  0.2000E+01
    -18.483  0.0000E+00  0.2000E+01
    -18.385  0.0000E+00  0.2000E+01
    -18.286  0.0000E+00  0.2000E+01
    -18.187  0.0000E+00  0.2000E+01
    -18.088  0.0000E+00  0.2000E+01
    -17.989  0.0000E+00  0.2000E+01
    -17.891  0.0000E+00  0.2000E+01
    -17.792  0.0000E+00  0.2000E+01
    -17.693  0.0000E+00  0.2000E+01
    -17.594  0.0000E+00  0.2000E+01
    -17.495  0.0000E+00  0.2000E+01
    -17.397  0.0000E+00  0.2000E+01
    -17.298  0.0000E+00  0.2000E+01
    -17.199  0.0000E+00  0.2000E+01
    -17.100  0.0000E+00  0.2000E+01
    -17.001  0.0000E+00  0.2000E+01
    -16.903  0.0000E+00  0.2000E+01
    -16.804  0.0000E+00  0.2000E+01
    -16.705  0.0000E+00  0.2000E+01
    -16.606  0.0000E+00  0.2000E+01
    -16.508  0.0000E+00  0.2000E+01
    -16.409  0.0000E+00  0.2000E+01
    -16.310  0.0000E+00  0.2000E+01
    -16.211  0.0000E+00  0.2000E+01
    -16.112  0.0000E+00  0.2000E+01
    -16.014  0.0000E+00  0.2000E+01
    -15.915  0.0000E+00  0.2000E+01
    -15.816  0.0000E+00  0.2000E+01
    -15.717  0.0000E+00  0.2000E+01
    -15.618  0.0000E+00  0.2000E+01
    -15.520  0.0000E+00  0.2000E+01
    -15.421  0.0000E+00  0.2000E+01
    -15.322  0.0000E+00  0.2000E+01
    -15.223  0.0000E+00  0.2000E+01
    -15.124  0.0000E+00  0.2000E+01
    -15.026  0.0000E+00  0.2000E+01
    -14.927  0.0000E+00  0.2000E+01
    -14.828  0.0000E+00  0.2000E+01
    -14.729  0.0000E+00  0.2000E+01
    -14.630  0.0000E+00  0.2000E+01
    -14.532  0.0000E+00  0.2000E+01
    -14.433  0.0000E+00  0.2000E+01
    -14.334  0.0000E+00  0.2000E+01
    -14.235  0.0000E+00  0.2000E+01
    -14.136  0.0000E+00  0.2000E+01
    -14.038  0.0000E+00  0.2000E+01
    -13.939  0.0000E+00  0.2000E+01
    -13.840  0.0000E+00  0.2000E+01
    -13.741  0.0000E+00  0.2000E+01
    -13.642  0.0000E+00  0.2000E+01
    -13.544  0.0000E+00  0.2000E+01
    -13.445  0.0000E+00  0.2000E+01
    -13.346  0.0000E+00  0.2000E+01
    -13.247  0.0000E+00  0.2000E+01
    -13.149  0.0000E+00  0.2000E+01
    -13.050  0.0000E+00  0.2000E+01
    -12.951  0.0000E+00  0.2000E+01
    -12.852  0.0000E+00  0.2000E+01
    -12.753  0.0000E+00  0.2000E+01
    -12.655  0.0000E+00  0.2000E+01
    -12.556  0.0000E+00  0.2000E+01
    -12.457  0.0000E+00  0.2000E+01
    -12.358  0.0000E+00  0.2000E+01
    -12.259  0.0000E+00  0.2000E+01
    -12.161  0.0000E+00  0.2000E+01
    -12.062  0.0000E+00  0.2000E+01
    -11.963  0.0000E+00  0.2000E+01
    -11.864  0.0000E+00  0.2000E+01
    -11.765  0.0000E+00  0.2000E+01
    -11.667  0.0000E+00  0.2000E+01
    -11.568  0.0000E+00  0.2000E+01
    -11.469  0.0000E+00  0.2000E+01
    -11.370  0.0000E+00  0.2000E+01
    -11.271  0.0000E+00  0.2000E+01
    -11.173  0.0000E+00  0.2000E+01
    -11.074  0.0000E+00  0.2000E+01
    -10.975  0.0000E+00  0.2000E+01
    -10.876  0.0000E+00  0.2000E+01
    -10.777  0.0000E+00  0.2000E+01
    -10.679  0.0000E+00  0.2000E+01
    -10.580  0.0000E+00  0.2000E+01
    -10.481  0.0000E+00  0.2000E+01
    -10.382  0.0000E+00  0.2000E+01
    -10.284  0.0000E+00  0.2000E+01
    -10.185  0.0000E+00  0.2000E+01
    -10.086  0.0000E+00  0.2000E+01
     -9.987  0.0000E+00  0.2000E+01
     -9.888  0.0000E+00  0.2000E+01
     -9.790  0.0000E+00  0.2000E+01
     -9.691  0.0000E+00  0.2000E+01
     -9.592  0.0000E+00  0.2000E+01
     -9.493  0.0000E+00  0.2000E+01
     -9.394  0.2809E-15  0.2000E+01
     -9.296  0.8933E-07  0.2000E+01
     -9.197  0.1659E-01  0.2002E+01
     -9.098  0.2667E+01  0.2265E+01
     -8.999  0.3342E+01  0.2595E+01
     -8.900  0.2416E+02  0.4982E+01
     -8.802  0.5543E+01  0.5529E+01
     -8.703  0.4279E+01  0.5952E+01
     -8.604  0.2198E+02  0.8124E+01
     -8.505  0.3928E+02  0.1200E+02
     -8.406  0.2376E+02  0.1435E+02
     -8.308  0.7897E+01  0.1513E+02
     -8.209  0.2485E+02  0.1759E+02
     -8.110  0.1202E+02  0.1878E+02
     -8.011  0.2807E+02  0.2155E+02
     -7.912  0.6444E+02  0.2791E+02
     -7.814  0.2625E+02  0.3051E+02
     -7.715  0.1204E+02  0.3170E+02
     -7.616  0.3904E+02  0.3555E+02
     -7.517  0.8836E+02  0.4428E+02
     -7.419  0.2065E+02  0.4632E+02
     -7.320  0.1323E+02  0.4763E+02
     -7.221  0.2850E+02  0.5044E+02
     -7.122  0.2546E+02  0.5296E+02
     -7.023  0.4147E+02  0.5706E+02
     -6.925  0.7976E+02  0.6494E+02
     -6.826  0.4400E+02  0.6928E+02
     -6.727  0.4967E+02  0.7419E+02
     -6.628  0.3549E+02  0.7770E+02
     -6.529  0.9194E+02  0.8678E+02
     -6.431  0.2459E+02  0.8921E+02
     -6.332  0.7998E+01  0.9000E+02
     -6.233  0.2494E+01  0.9025E+02
     -6.134  0.3587E+02  0.9379E+02
     -6.035  0.1128E+03  0.1049E+03
     -5.937  0.9104E+02  0.1139E+03
     -5.838  0.6280E+02  0.1201E+03
     -5.739  0.5559E+02  0.1256E+03
     -5.640  0.6123E+02  0.1317E+03
     -5.541  0.1031E+03  0.1419E+03
     -5.443  0.2697E+02  0.1445E+03
     -5.344  0.1654E+02  0.1462E+03
     -5.245  0.7606E+02  0.1537E+03
     -5.146  0.3378E+02  0.1570E+03
     -5.047  0.8914E+02  0.1658E+03
     -4.949  0.7860E+02  0.1736E+03
     -4.850  0.2485E+02  0.1760E+03
     -4.751  0.3825E+02  0.1798E+03
     -4.652  0.9166E+02  0.1889E+03
     -4.553  0.8540E+02  0.1973E+03
     -4.455  0.6171E+02  0.2034E+03
     -4.356  0.3183E+02  0.2065E+03
     -4.257  0.7930E+02  0.2144E+03
     -4.158  0.9462E+02  0.2237E+03
     -4.060  0.1175E+03  0.2353E+03
     -3.961  0.8009E+02  0.2432E+03
     -3.862  0.2610E+02  0.2458E+03
     -3.763  0.8939E+02  0.2547E+03
     -3.664  0.7573E+02  0.2621E+03
     -3.566  0.6398E+02  0.2685E+03
     -3.467  0.6792E+02  0.2752E+03
     -3.368  0.2309E+02  0.2775E+03
     -3.269  0.1322E+02  0.2788E+03
     -3.170  0.8615E+02  0.2873E+03
     -3.072  0.8188E+02  0.2954E+03
     -2.973  0.1138E+03  0.3066E+03
     -2.874  0.8433E+02  0.3149E+03
     -2.775  0.1567E+03  0.3304E+03
     -2.676  0.1760E+03  0.3478E+03
     -2.578  0.1725E+02  0.3495E+03
     -2.479  0.2334E+01  0.3497E+03
     -2.380  0.4417E+02  0.3541E+03
     -2.281  0.1042E+03  0.3644E+03
     -2.182  0.1132E+03  0.3756E+03
     -2.084  0.7850E+02  0.3833E+03
     -1.985  0.6100E+02  0.3894E+03
     -1.886  0.6633E+02  0.3959E+03
     -1.787  0.1110E+03  0.4069E+03
     -1.688  0.1449E+03  0.4212E+03
     -1.590  0.2891E+02  0.4240E+03
     -1.491  0.7724E+02  0.4317E+03
     -1.392  0.5897E+02  0.4375E+03
     -1.293  0.1749E+03  0.4548E+03
     -1.195  0.9599E+02  0.4643E+03
     -1.096  0.1141E+03  0.4755E+03
     -0.997  0.6668E+02  0.4821E+03
     -0.898  0.7279E+02  0.4893E+03
     -0.799  0.1471E+03  0.5039E+03
     -0.701  0.7376E+02  0.5111E+03
     -0.602  0.5236E+02  0.5163E+03
     -0.503  0.4828E+02  0.5211E+03
     -0.404  0.1717E+03  0.5380E+03
     -0.305  0.1393E+03  0.5518E+03
     -0.207  0.1269E+03  0.5643E+03
     -0.108  0.7637E+02  0.5719E+03
     -0.009  0.3662E+02  0.5755E+03
      0.090  0.8522E+02  0.5839E+03
      0.189  0.8199E+02  0.5920E+03
      0.287  0.1008E+03  0.6020E+03
      0.386  0.7773E+02  0.6097E+03
      0.485  0.9694E+02  0.6192E+03
      0.584  0.1307E+03  0.6322E+03
      0.683  0.6240E+02  0.6383E+03
      0.781  0.3747E+02  0.6420E+03
      0.880  0.5914E+02  0.6479E+03
      0.979  0.1501E+03  0.6627E+03
      1.078  0.2321E+03  0.6856E+03
      1.177  0.1096E+03  0.6965E+03
      1.275  0.7878E+02  0.7042E+03
      1.374  0.6131E+02  0.7103E+03
      1.473  0.8579E+02  0.7188E+03
      1.572  0.1235E+03  0.7310E+03
      1.670  0.1734E+03  0.7481E+03
      1.769  0.1491E+03  0.7628E+03
      1.868  0.4420E+02  0.7672E+03
      1.967  0.7711E+02  0.7748E+03
      2.066  0.1780E+03  0.7924E+03
      2.164  0.7118E+02  0.7994E+03
      2.263  0.8202E+02  0.8075E+03
      2.362  0.4947E+02  0.8124E+03
      2.461  0.1136E+03  0.8236E+03
      2.560  0.8300E+02  0.8318E+03
      2.658  0.1422E+03  0.8459E+03
      2.757  0.7748E+02  0.8535E+03
      2.856  0.7683E+02  0.8611E+03
      2.955  0.2313E+03  0.8840E+03
      3.054  0.2482E+03  0.9085E+03
      3.152  0.6790E+02  0.9152E+03
      3.251  0.7287E+02  0.9224E+03
      3.350  0.1120E+03  0.9335E+03
      3.449  0.1491E+03  0.9482E+03
      3.548  0.1200E+03  0.9601E+03
      3.646  0.6807E+02  0.9668E+03
      3.745  0.1147E+03  0.9781E+03
      3.844  0.8142E+02  0.9862E+03
      3.943  0.1214E+03  0.9982E+03
      4.042  0.1770E+03  0.1016E+04
      4.140  0.1283E+03  0.1028E+04
      4.239  0.3666E+02  0.1032E+04
      4.338  0.4668E+00  0.1032E+04
      4.437  0.1909E-04  0.1032E+04
      4.536  0.5647E-12  0.1032E+04
      4.634  0.0000E+00  0.1032E+04
      4.733  0.0000E+00  0.1032E+04
      4.832  0.0000E+00  0.1032E+04
      4.931  0.0000E+00  0.1032E+04
      5.029  0.0000E+00  0.1032E+04
      5.128  0.0000E+00  0.1032E+04
      5.227  0.0000E+00  0.1032E+04
      5.326  0.0000E+00  0.1032E+04
      5.425  0.0000E+00  0.1032E+04
      5.523  0.0000E+00  0.1032E+04
