 vasp.5.4.4.18Apr17-6-g9f103f2a35 (build May 02 2017 15:33:50) complex          
  
 executed on Intel-16.0.3.210-OMP date 2018.08.08  21:53:52
 running on    6 total cores
 distrk:  each k-point on    6 cores,    1 groups
 distr:  one band on NCORES_PER_BAND=   1 cores,    6 groups


--------------------------------------------------------------------------------------------------------


 INCAR:
 POTCAR:    PAW Al_GW 19Mar2012                   
 POTCAR:    PAW_PBE N 08Apr2002                   

 ----------------------------------------------------------------------------- 
|                                                                             |
|           W    W    AA    RRRRR   N    N  II  N    N   GGGG   !!!           |
|           W    W   A  A   R    R  NN   N  II  NN   N  G    G  !!!           |
|           W    W  A    A  R    R  N N  N  II  N N  N  G       !!!           |
|           W WW W  AAAAAA  RRRRR   N  N N  II  N  N N  G  GGG   !            |
|           WW  WW  A    A  R   R   N   NN  II  N   NN  G    G                |
|           W    W  A    A  R    R  N    N  II  N    N   GGGG   !!!           |
|                                                                             |
|      For optimal performance we recommend to set                            |
|        NCORE= 4 - approx SQRT( number of cores)                             |
|      NCORE specifies how many cores store one orbital (NPAR=cpu/NCORE).     |
|      This setting can  greatly improve the performance of VASP for DFT.     |
|      The default,   NCORE=1            might be grossly inefficient         |
|      on modern multi-core architectures or massively parallel machines.     |
|      Do your own testing !!!!                                               |
|      Unfortunately you need to use the default for GW and RPA calculations. |
|      (for HF NCORE is supported but not extensively tested yet)             |
|                                                                             |
 ----------------------------------------------------------------------------- 

 POTCAR:    PAW Al_GW 19Mar2012                   
   VRHFIN =Al: s2p1                                                             
   LEXCH  = PE                                                                  
   EATOM  =    53.5387 eV,    3.9350 Ry                                         
                                                                                
   TITEL  = PAW Al_GW 19Mar2012                                                 
   LULTRA =        F    use ultrasoft PP ?                                      
   IUNSCR =        1    unscreen: 0-lin 1-nonlin 2-no                           
   RPACOR =    1.500    partial core radius                                     
   POMASS =   26.982; ZVAL   =    3.000    mass and valenz                      
   RCORE  =    2.000    outmost cutoff radius                                   
   RWIGS  =    2.000; RWIGS  =    1.058    wigner-seitz radius (au A)           
   ENMAX  =  240.300; ENMIN  =  180.225 eV                                      
   ICORE  =        3    local potential                                         
   LCOR   =        T    correct aug charges                                     
   LPAW   =        T    paw PP                                                  
   EAUG   =  482.059                                                            
   DEXC   =    0.000                                                            
   RMAX   =    2.051    core radius for proj-oper                               
   RAUG   =    1.300    factor for augmentation sphere                          
   RDEP   =    2.096    radius for radial grids                                 
   RDEPT  =    1.856    core radius for aug-charge                              
                                                                                
   Atomic configuration                                                         
    7 entries                                                                   
     n  l   j            E        occ.                                          
     1  0  0.50     -1511.1048   2.0000                                         
     2  0  0.50      -108.1629   2.0000                                         
     2  1  1.50       -69.6402   6.0000                                         
     3  0  0.50        -7.7528   2.0000                                         
     3  1  1.50        -2.7121   1.0000                                         
     3  2  2.50        -2.7212   0.0000                                         
     4  3  2.50        -2.7212   0.0000                                         
   Description                                                                  
     l       E           TYP  RCUT    TYP  RCUT                                 
     0     -7.7528455     23  1.900                                             
     0     68.0291300     23  1.900                                             
     1     -2.7120682     23  1.900                                             
     1     68.0291300     23  1.900                                             
     2     -1.3605826     23  1.900                                             
     2     81.6349560     23  1.900                                             
     3     74.8320430     23  2.000                                             
  local pseudopotential read in
  partial core-charges read in
  partial kinetic energy density read in
  kinetic energy density of atom read in
  atomic valenz-charges read in
  non local Contribution for L=           0  read in
    real space projection operators read in
  non local Contribution for L=           0  read in
    real space projection operators read in
  non local Contribution for L=           1  read in
    real space projection operators read in
  non local Contribution for L=           1  read in
    real space projection operators read in
  non local Contribution for L=           2  read in
    real space projection operators read in
  non local Contribution for L=           2  read in
    real space projection operators read in
    PAW grid and wavefunctions read in
 
   number of l-projection  operators is LMAX  =           6
   number of lm-projection operators is LMMAX =          18
 
 POTCAR:    PAW_PBE N 08Apr2002                   
   VRHFIN =N: s2p3                                                              
   LEXCH  = PE                                                                  
   EATOM  =   264.5486 eV,   19.4438 Ry                                         
                                                                                
   TITEL  = PAW_PBE N 08Apr2002                                                 
   LULTRA =        F    use ultrasoft PP ?                                      
   IUNSCR =        1    unscreen: 0-lin 1-nonlin 2-no                           
   RPACOR =    1.200    partial core radius                                     
   POMASS =   14.001; ZVAL   =    5.000    mass and valenz                      
   RCORE  =    1.500    outmost cutoff radius                                   
   RWIGS  =    1.400; RWIGS  =    0.741    wigner-seitz radius (au A)           
   ENMAX  =  400.000; ENMIN  =  300.000 eV                                      
   ICORE  =        2    local potential                                         
   LCOR   =        T    correct aug charges                                     
   LPAW   =        T    paw PP                                                  
   EAUG   =  627.112                                                            
   DEXC   =    0.000                                                            
   RMAX   =    1.529    core radius for proj-oper                               
   RAUG   =    1.300    factor for augmentation sphere                          
   RDEP   =    1.514    radius for radial grids                                 
   RDEPT  =    1.338    core radius for aug-charge                              
                                                                                
   Atomic configuration                                                         
    4 entries                                                                   
     n  l   j            E        occ.                                          
     1  0  0.50      -384.7179   2.0000                                         
     2  0  0.50       -18.5828   2.0000                                         
     2  1  0.50        -7.0898   3.0000                                         
     3  2  1.50        -6.8029   0.0000                                         
   Description                                                                  
     l       E           TYP  RCUT    TYP  RCUT                                 
     0    -18.5828119     23  1.200                                             
     0    -13.5018863     23  1.200                                             
     1     -7.0897853     23  1.500                                             
     1      9.5240782     23  1.500                                             
     2     -6.8029130      7  1.500                                             
  local pseudopotential read in
  partial core-charges read in
  partial kinetic energy density read in
  atomic valenz-charges read in
  non local Contribution for L=           0  read in
    real space projection operators read in
  non local Contribution for L=           0  read in
    real space projection operators read in
  non local Contribution for L=           1  read in
    real space projection operators read in
  non local Contribution for L=           1  read in
    real space projection operators read in
    PAW grid and wavefunctions read in
 
   number of l-projection  operators is LMAX  =           4
   number of lm-projection operators is LMMAX =           8
 
 Optimization of the real space projectors (new method)

 maximal supplied QI-value         = 18.90
 optimisation between [QCUT,QGAM] = [  8.69, 17.57] = [ 21.16, 86.49] Ry 
 Optimized for a Real-space Cutoff    1.59 Angstroem

   l    n(q)    QCUT    max X(q) W(low)/X(q) W(high)/X(q)  e(spline) 
   0      8     8.693    11.519    0.12E-03    0.31E-04    0.21E-06
   0      8     8.693     5.834    0.89E-04    0.32E-04    0.16E-06
   1      8     8.693    10.132    0.25E-03    0.39E-03    0.25E-06
   1      8     8.693     3.004    0.16E-03    0.27E-03    0.22E-06
   2      7     8.693     3.169    0.39E-03    0.93E-03    0.44E-06
   2      7     8.693     1.605    0.70E-04    0.91E-04    0.19E-06
 Optimization of the real space projectors (new method)

 maximal supplied QI-value         = 25.13
 optimisation between [QCUT,QGAM] = [  8.80, 17.59] = [ 21.67, 86.68] Ry 
 Optimized for a Real-space Cutoff    2.14 Angstroem

   l    n(q)    QCUT    max X(q) W(low)/X(q) W(high)/X(q)  e(spline) 
   0     11     8.797    79.467    0.70E-04    0.19E-04    0.19E-05
   0     11     8.797    66.151    0.68E-04    0.18E-04    0.19E-05
   1     11     8.797     6.738    0.26E-03    0.11E-02    0.73E-05
   1     11     8.797     5.013    0.25E-03    0.11E-02    0.72E-05
  PAW Al_GW 19Mar2012                   :
 energy of atom  1       EATOM=  -53.5387
 kinetic energy error for atom=    0.0011 (will be added to EATOM!!)
  PAW_PBE N 08Apr2002                   :
 energy of atom  2       EATOM= -264.5486
 kinetic energy error for atom=    0.6882 (will be added to EATOM!!)
 
 
 POSCAR: New structure                           
  positions in cartesian coordinates
  No initial velocities read in
 exchange correlation table for  LEXCH =        8
   RHO(1)=    0.500       N(1)  =     2000
   RHO(2)=  100.500       N(2)  =     4000
 


--------------------------------------------------------------------------------------------------------


 ion  position               nearest neighbor table
   1  0.444  0.444  0.079-
   2  0.444  0.778  0.079-
   3  0.444  0.111  0.079-
   4  0.778  0.444  0.079-
   5  0.778  0.778  0.079-
   6  0.778  0.111  0.079-
   7  0.111  0.444  0.079-
   8  0.111  0.778  0.079-
   9  0.111  0.111  0.079-
  10  0.556  0.556  0.157-
  11  0.556  0.889  0.157-
  12  0.556  0.222  0.157-
  13  0.889  0.556  0.157-
  14  0.889  0.889  0.157-
  15  0.889  0.222  0.157-
  16  0.222  0.556  0.157-
  17  0.222  0.889  0.157-
  18  0.222  0.222  0.157-
  19  0.667  0.667  0.234-
  20  0.667  0.000  0.234-
  21  0.667  0.333  0.234-
  22  0.000  0.667  0.234-
  23  0.000  0.000  0.234-
  24  0.000  0.333  0.234-
  25  0.333  0.667  0.234-
  26  0.333  0.000  0.234-
  27  0.333  0.333  0.234-
  28  0.778  0.778  0.312-
  29  0.778  0.111  0.312-
  30  0.778  0.444  0.312-
  31  0.111  0.778  0.312-
  32  0.111  0.111  0.312-
  33  0.111  0.444  0.312-
  34  0.444  0.778  0.312-
  35  0.444  0.111  0.312-
  36  0.444  0.444  0.312-
  37  0.889  0.889  0.390-
  38  0.889  0.222  0.390-
  39  0.889  0.556  0.390-
  40  0.222  0.889  0.390-
  41  0.222  0.222  0.390-
  42  0.222  0.556  0.390-
  43  0.556  0.889  0.390-
  44  0.556  0.222  0.390-
  45  0.556  0.556  0.390-
  46  0.000  0.000  0.466-
  47  0.000  0.333  0.466-
  48  0.000  0.667  0.466-
  49  0.333  0.000  0.466-
  50  0.333  0.333  0.466-
  51  0.333  0.667  0.466-
  52  0.667  0.000  0.466-
  53  0.667  0.333  0.466-
  54  0.667  0.667  0.466-
  55  0.111  0.111  0.545-
  56  0.111  0.444  0.545-
  57  0.111  0.778  0.545-
  58  0.444  0.111  0.545-
  59  0.444  0.444  0.545-
  60  0.444  0.778  0.545-
  61  0.778  0.111  0.545-
  62  0.778  0.444  0.545-
  63  0.778  0.778  0.545-
  64  0.278  0.278  0.079-
  65  0.278  0.611  0.079-
  66  0.278  0.944  0.079-
  67  0.611  0.278  0.079-
  68  0.611  0.611  0.079-
  69  0.611  0.944  0.079-
  70  0.944  0.278  0.079-
  71  0.944  0.611  0.079-
  72  0.944  0.944  0.079-
  73  0.389  0.389  0.157-
  74  0.389  0.722  0.157-
  75  0.389  0.056  0.157-
  76  0.722  0.389  0.157-
  77  0.722  0.722  0.157-
  78  0.722  0.056  0.157-
  79  0.056  0.389  0.157-
  80  0.056  0.722  0.157-
  81  0.056  0.056  0.157-
  82  0.500  0.500  0.234-
  83  0.500  0.833  0.234-
  84  0.500  0.167  0.234-
  85  0.833  0.500  0.234-
  86  0.833  0.833  0.234-
  87  0.833  0.167  0.234-
  88  0.167  0.500  0.234-
  89  0.167  0.833  0.234-
  90  0.167  0.167  0.234-
  91  0.611  0.611  0.312-
  92  0.611  0.944  0.312-
  93  0.611  0.278  0.312-
  94  0.944  0.611  0.312-
  95  0.944  0.944  0.312-
  96  0.944  0.278  0.312-
  97  0.278  0.611  0.312-
  98  0.278  0.944  0.312-
  99  0.278  0.278  0.312-
 100  0.722  0.722  0.390-
 101  0.722  0.056  0.390-
 102  0.722  0.389  0.390-
 103  0.056  0.722  0.390-
 104  0.056  0.056  0.390-
 105  0.056  0.389  0.390-
 106  0.389  0.722  0.390-
 107  0.389  0.056  0.390-
 108  0.389  0.389  0.390-
 109  0.833  0.833  0.466-
 110  0.833  0.167  0.466-
 111  0.833  0.500  0.466-
 112  0.167  0.833  0.466-
 113  0.167  0.167  0.466-
 114  0.167  0.500  0.466-
 115  0.500  0.833  0.466-
 116  0.500  0.167  0.466-
 117  0.500  0.500  0.466-
 118  0.944  0.944  0.545-
 119  0.944  0.278  0.545-
 120  0.944  0.611  0.545-
 121  0.278  0.944  0.545-
 122  0.278  0.278  0.545-
 123  0.278  0.611  0.545-
 124  0.611  0.944  0.545-
 125  0.611  0.278  0.545-
 126  0.611  0.611  0.545-
 127  0.278  0.444  0.079-
 128  0.278  0.778  0.079-
 129  0.278  0.111  0.079-
 130  0.611  0.444  0.079-
 131  0.611  0.778  0.079-
 132  0.611  0.111  0.079-
 133  0.944  0.444  0.079-
 134  0.944  0.778  0.079-
 135  0.944  0.111  0.079-
 136  0.389  0.556  0.157-
 137  0.389  0.889  0.157-
 138  0.389  0.222  0.157-
 139  0.722  0.556  0.157-
 140  0.722  0.889  0.157-
 141  0.722  0.222  0.157-
 142  0.056  0.556  0.157-
 143  0.056  0.889  0.157-
 144  0.056  0.222  0.157-
 145  0.500  0.667  0.234-
 146  0.500  0.000  0.234-
 147  0.500  0.333  0.234-
 148  0.833  0.667  0.234-
 149  0.833  0.000  0.234-
 150  0.833  0.333  0.234-
 151  0.167  0.667  0.234-
 152  0.167  0.000  0.234-
 153  0.167  0.333  0.234-
 154  0.611  0.778  0.312-
 155  0.611  0.111  0.312-
 156  0.611  0.444  0.312-
 157  0.944  0.778  0.312-
 158  0.944  0.111  0.312-
 159  0.944  0.444  0.312-
 160  0.278  0.778  0.312-
 161  0.278  0.111  0.312-
 162  0.278  0.444  0.312-
 163  0.722  0.889  0.390-
 164  0.722  0.222  0.390-
 165  0.722  0.556  0.390-
 166  0.056  0.889  0.390-
 167  0.056  0.222  0.390-
 168  0.056  0.556  0.390-
 169  0.389  0.889  0.390-
 170  0.389  0.222  0.390-
 171  0.389  0.556  0.390-
 172  0.833  0.000  0.466-
 173  0.833  0.333  0.466-
 174  0.833  0.667  0.466-
 175  0.167  0.000  0.466-
 176  0.167  0.333  0.466-
 177  0.167  0.667  0.466-
 178  0.500  0.000  0.466-
 179  0.500  0.333  0.466-
 180  0.500  0.667  0.466-
 181  0.944  0.111  0.545-
 182  0.944  0.444  0.545-
 183  0.944  0.778  0.545-
 184  0.278  0.111  0.545-
 185  0.278  0.444  0.545-
 186  0.278  0.778  0.545-
 187  0.611  0.111  0.545-
 188  0.611  0.444  0.545-
 189  0.611  0.778  0.545-
 190  0.444  0.278  0.079-
 191  0.444  0.611  0.079-
 192  0.444  0.944  0.079-
 193  0.778  0.278  0.079-
 194  0.778  0.611  0.079-
 195  0.778  0.944  0.079-
 196  0.111  0.278  0.079-
 197  0.111  0.611  0.079-
 198  0.111  0.944  0.079-
 199  0.556  0.389  0.157-
 200  0.556  0.722  0.157-
 201  0.556  0.056  0.157-
 202  0.889  0.389  0.157-
 203  0.889  0.722  0.157-
 204  0.889  0.056  0.157-
 205  0.222  0.389  0.157-
 206  0.222  0.722  0.157-
 207  0.222  0.056  0.157-
 208  0.667  0.500  0.234-
 209  0.667  0.833  0.234-
 210  0.667  0.167  0.234-
 211  1.000  0.500  0.234-
 212  1.000  0.833  0.234-
 213  1.000  0.167  0.234-
 214  0.333  0.500  0.234-
 215  0.333  0.833  0.234-
 216  0.333  0.167  0.234-
 217  0.778  0.611  0.312-
 218  0.778  0.944  0.312-
 219  0.778  0.278  0.312-
 220  0.111  0.611  0.312-
 221  0.111  0.944  0.312-
 222  0.111  0.278  0.312-
 223  0.444  0.611  0.312-
 224  0.444  0.944  0.312-
 225  0.444  0.278  0.312-
 226  0.889  0.722  0.390-
 227  0.889  0.056  0.390-
 228  0.889  0.389  0.390-
 229  0.222  0.722  0.390-
 230  0.222  0.056  0.390-
 231  0.222  0.389  0.390-
 232  0.556  0.722  0.390-
 233  0.556  0.056  0.390-
 234  0.556  0.389  0.390-
 235  1.000  0.833  0.466-
 236  1.000  0.167  0.466-
 237  1.000  0.500  0.466-
 238  0.333  0.833  0.466-
 239  0.333  0.167  0.466-
 240  0.333  0.500  0.466-
 241  0.667  0.833  0.466-
 242  0.667  0.167  0.466-
 243  0.667  0.500  0.466-
 244  0.111  0.944  0.545-
 245  0.111  0.278  0.545-
 246  0.111  0.611  0.545-
 247  0.444  0.944  0.545-
 248  0.444  0.278  0.545-
 249  0.444  0.611  0.545-
 250  0.778  0.944  0.545-
 251  0.778  0.278  0.545-
 252  0.778  0.611  0.545-
 253  0.343  0.481  0.668- 254 1.10
 254  0.380  0.407  0.668- 253 1.10
 
  LATTYP: Found a hexagonal cell.
 ALAT       =    17.1805734625
 C/A-ratio  =     1.7461582447
  
  Lattice vectors:
  
 A1 = (   0.0000000000,  -8.5902867312,  14.8788130701)
 A2 = (   0.0000000000,  17.1805734625,   0.0000000000)
 A3 = ( -30.0000000000,   0.0000000000,   0.0000000000)


Analysis of symmetry for initial positions (statically):
=====================================================================
 Subroutine PRICEL returns:
 Original cell was already a primitive cell.
 

 Routine SETGRP: Setting up the symmetry group for a 
 hexagonal supercell.


 Subroutine GETGRP returns: Found  2 space group operations
 (whereof  1 operations were pure point group operations)
 out of a pool of 24 trial point group operations.


The static configuration has the point symmetry C_1 .
 The point group associated with its full space group is C_1h.


Analysis of symmetry for dynamics (positions and initial velocities):
=====================================================================
 Subroutine PRICEL returns:
 Original cell was already a primitive cell.
 

 Routine SETGRP: Setting up the symmetry group for a 
 hexagonal supercell.


 Subroutine GETGRP returns: Found  2 space group operations
 (whereof  1 operations were pure point group operations)
 out of a pool of 24 trial point group operations.


The dynamic configuration has the point symmetry C_1 .
 The point group associated with its full space group is C_1h.


 Subroutine INISYM returns: Found  2 space group operations
 (whereof  1 operations are pure point group operations),
 and found     1 'primitive' translations

 
 
 KPOINTS: Automatic generation                    

Automatic generation of k-mesh.
Space group operators:
 irot       det(A)        alpha          n_x          n_y          n_z        tau_x        tau_y        tau_z
    1     1.000000     0.000000     1.000000     0.000000     0.000000     0.000000     0.000000     0.000000
    2    -1.000000   180.000000     0.000000     1.000000     0.000000    -0.833333     0.000000     0.000000
 
 Subroutine IBZKPT returns following result:
 ===========================================
 
 Found      3 irreducible k-points:
 
 Following reciprocal coordinates:
            Coordinates               Weight
  0.000000  0.000000  0.000000      1.000000
  0.500000  0.000000  0.000000      2.000000
  0.000000  0.500000  0.000000      1.000000
 
 Following cartesian coordinates:
            Coordinates               Weight
  0.000000  0.000000  0.000000      1.000000
  0.000000 -0.029103  0.016802      2.000000
  0.000000  0.000000 -0.033605      1.000000
 


--------------------------------------------------------------------------------------------------------




 Dimension of arrays:
   k-points           NKPTS =      3   k-points in BZ     NKDIM =      3   number of bands    NBANDS=    516
   number of dos      NEDOS =    301   number of ions     NIONS =    254
   non local maximal  LDIM  =      6   non local SUM 2l+1 LMDIM =     18
   total plane-waves  NPLWV = 819200
   max r-space proj   IRMAX =   4449   max aug-charges    IRDMAX=   4357
   dimension x,y,z NGX =    80 NGY =   80 NGZ =  128
   dimension x,y,z NGXF=   160 NGYF=  160 NGZF=  256
   support grid    NGXF=   160 NGYF=  160 NGZF=  256
   ions per type =             252   2
   NGX,Y,Z   is equivalent  to a cutoff of   7.74,  7.74,  7.09 a.u.
   NGXF,Y,Z  is equivalent  to a cutoff of  15.48, 15.48, 14.19 a.u.

 SYSTEM =  NiAl                                    
 POSCAR =  New structure                           

 Startparameter for this run:
   NWRITE =      2    write-flag & timer
   PREC   = normal    normal or accurate (medium, high low for compatibility)
   ISTART =      0    job   : 0-new  1-cont  2-samecut
   ICHARG =      2    charge: 1-file 2-atom 10-const
   ISPIN  =      1    spin polarized calculation?
   LNONCOLLINEAR =      F non collinear calculations
   LSORBIT =      F    spin-orbit coupling
   INIWAV =      1    electr: 0-lowe 1-rand  2-diag
   LASPH  =      F    aspherical Exc in radial PAW
   METAGGA=      F    non-selfconsistent MetaGGA calc.

 Electronic Relaxation 1
   ENCUT  =  300.0 eV  22.05 Ry    4.70 a.u.  24.26 24.26 42.37*2*pi/ulx,y,z
   ENINI  =  300.0     initial cutoff
   ENAUG  =  627.1 eV  augmentation charge cutoff
   NELM   =     60;   NELMIN=  6; NELMDL= -5     # of ELM steps 
   EDIFF  = 0.5E-05   stopping-criterion for ELM
   LREAL  =      T    real-space projection
   NLSPLINE    = F    spline interpolate recip. space projectors
   LCOMPAT=      F    compatible to vasp.4.4
   GGA_COMPAT  = T    GGA compatible to vasp.4.4-vasp.4.6
   LMAXPAW     = -100 max onsite density
   LMAXMIX     =    2 max onsite mixed and CHGCAR
   VOSKOWN=      0    Vosko Wilk Nusair interpolation
   ROPT   =   -0.00050  -0.00050
 Ionic relaxation
   EDIFFG = 0.5E-04   stopping-criterion for IOM
   NSW    =      0    number of steps for IOM
   NBLOCK =      1;   KBLOCK =      1    inner block; outer block 
   IBRION =     -1    ionic relax: 0-MD 1-quasi-New 2-CG
   NFREE  =      0    steps in history (QN), initial steepest desc. (CG)
   ISIF   =      0    stress and relaxation
   IWAVPR =     10    prediction:  0-non 1-charg 2-wave 3-comb
   ISYM   =      2    0-nonsym 1-usesym 2-fastsym
   LCORR  =      T    Harris-Foulkes like correction to forces

   POTIM  = 0.5000    time-step for ionic-motion
   TEIN   =    0.0    initial temperature
   TEBEG  =    0.0;   TEEND  =   0.0 temperature during run
   SMASS  =  -3.00    Nose mass-parameter (am)
   estimated Nose-frequenzy (Omega)   =  0.10E-29 period in steps =****** mass=  -0.675E-26a.u.
   SCALEE = 1.0000    scale energy and forces
   NPACO  =    256;   APACO  = 16.0  distance and # of slots for P.C.
   PSTRESS=    0.0 pullay stress

  Mass of Ions in am
   POMASS =  26.98 14.00
  Ionic Valenz
   ZVAL   =   3.00  5.00
  Atomic Wigner-Seitz radii
   RWIGS  =  -1.00 -1.00
  virtual crystal weights 
   VCA    =   1.00  1.00
   NELECT =     766.0000    total number of electrons
   NUPDOWN=      -1.0000    fix difference up-down

 DOS related values:
   EMIN   =  10.00;   EMAX   =-10.00  energy-range for DOS
   EFERMI =   0.00
   ISMEAR =     0;   SIGMA  =   0.05  broadening in eV -4-tet -1-fermi 0-gaus

 Electronic relaxation 2 (details)
   IALGO  =     38    algorithm
   LDIAG  =      T    sub-space diagonalisation (order eigenvalues)
   LSUBROT=      F    optimize rotation matrix (better conditioning)
   TURBO    =      0    0=normal 1=particle mesh
   IRESTART =      0    0=no restart 2=restart with 2 vectors
   NREBOOT  =      0    no. of reboots
   NMIN     =      0    reboot dimension
   EREF     =   0.00    reference energy to select bands
   IMIX   =      4    mixing-type and parameters
     AMIX     =   0.40;   BMIX     =  1.00
     AMIX_MAG =   1.60;   BMIX_MAG =  1.00
     AMIN     =   0.10
     WC   =   100.;   INIMIX=   1;  MIXPRE=   1;  MAXMIX= -45

 Intra band minimization:
   WEIMIN = 0.0000     energy-eigenvalue tresh-hold
   EBREAK =  0.24E-08  absolut break condition
   DEPER  =   0.30     relativ break condition  

   TIME   =   0.40     timestep for ELM

  volume/ion in A,a.u.               =      30.19       203.75
  Fermi-wavevector in a.u.,A,eV,Ry     =   0.759583  1.435404  7.850108  0.576967
  Thomas-Fermi vector in A             =   1.858410
 
 Write flags
   LWAVE        =      F    write WAVECAR
   LDOWNSAMPLE  =      F    k-point downsampling of WAVECAR
   LCHARG       =      F    write CHGCAR
   LVTOT        =      F    write LOCPOT, total local potential
   LVHAR        =      F    write LOCPOT, Hartree potential only
   LELF         =      F    write electronic localiz. function (ELF)
   LORBIT       =      0    0 simple, 1 ext, 2 COOP (PROOUT), +10 PAW based schemes


 Dipole corrections
   LMONO  =      F    monopole corrections only (constant potential shift)
   LDIPOL =      F    correct potential (dipole corrections)
   IDIPOL =      0    1-x, 2-y, 3-z, 4-all directions 
   EPSILON=  1.0000000 bulk dielectric constant

 Exchange correlation treatment:
   GGA     =    --    GGA type
   LEXCH   =     8    internal setting for exchange type
   VOSKOWN=      0    Vosko Wilk Nusair interpolation
   LHFCALC =     F    Hartree Fock is set to
   LHFONE  =     F    Hartree Fock one center treatment
   AEXX    =    0.0000 exact exchange contribution

 Linear response parameters
   LEPSILON=     F    determine dielectric tensor
   LRPA    =     F    only Hartree local field effects (RPA)
   LNABLA  =     F    use nabla operator in PAW spheres
   LVEL    =     F    velocity operator in full k-point grid
   LINTERFAST=   F  fast interpolation
   KINTER  =     0    interpolate to denser k-point grid
   CSHIFT  =0.1000    complex shift for real part using Kramers Kronig
   OMEGAMAX=  -1.0    maximum frequency
   DEG_THRESHOLD= 0.2000000E-02 threshold for treating states as degnerate
   RTIME   =   -0.100 relaxation time in fs
  (WPLASMAI=    0.000 imaginary part of plasma frequency in eV, 0.658/RTIME)
   DFIELD  = 0.0000000 0.0000000 0.0000000 field for delta impulse in time
 
 Orbital magnetization related:
   ORBITALMAG=     F  switch on orbital magnetization
   LCHIMAG   =     F  perturbation theory with respect to B field
   DQ        =  0.001000  dq finite difference perturbation B field
   LLRAUG    =     F  two centre corrections for induced B field



--------------------------------------------------------------------------------------------------------


 Static calculation
 charge density and potential will be updated during run
 non-spin polarized calculation
 Variant of blocked Davidson
 Davidson routine will perform the subspace rotation
 perform sub-space diagonalisation
    after iterative eigenvector-optimisation
 modified Broyden-mixing scheme, WC =      100.0
 initial mixing is a Kerker type mixing with AMIX =  0.4000 and BMIX =      1.0000
 Hartree-type preconditioning will be used
 using additional bands          133
 real space projection scheme for non local part
 use partial core corrections
 calculate Harris-corrections to forces 
   (improved forces if not selfconsistent)
 use gradient corrections 
 use of overlap-Matrix (Vanderbilt PP)
 Gauss-broadening in eV      SIGMA  =   0.05


--------------------------------------------------------------------------------------------------------


  energy-cutoff  :      300.00
  volume of cell :     7668.80
      direct lattice vectors                 reciprocal lattice vectors
     0.000000000-17.180573462  0.000000000     0.000000000 -0.058205275  0.033604831
     0.000000000 -8.590286731-14.878813070     0.000000000  0.000000000 -0.067209662
    30.000000000  0.000000000  0.000000000     0.033333333  0.000000000  0.000000000

  length of vectors
    17.180573462 17.180573462 30.000000000     0.067209662  0.067209662  0.033333333


 
 k-points in units of 2pi/SCALE and weight: Automatic generation                    
   0.00000000  0.00000000  0.00000000       0.250
   0.00000000 -0.02910264  0.01680242       0.500
   0.00000000  0.00000000 -0.03360483       0.250
 
 k-points in reciprocal lattice and weights: Automatic generation                    
   0.00000000  0.00000000  0.00000000       0.250
   0.50000000  0.00000000  0.00000000       0.500
   0.00000000  0.50000000  0.00000000       0.250
 
 position of ions in fractional coordinates (direct lattice) 
   0.44444456  0.44444473  0.07873467
   0.44444419  0.77777777  0.07873467
   0.44444468  0.11111101  0.07873467
   0.77777744  0.44444473  0.07873467
   0.77777765  0.77777777  0.07873467
   0.77777756  0.11111101  0.07873467
   0.11111110  0.44444473  0.07873467
   0.11111131  0.77777777  0.07873467
   0.11111122  0.11111101  0.07873467
   0.55555520  0.55555574  0.15702600
   0.55555541  0.88888878  0.15702600
   0.55555591  0.22222203  0.15702600
   0.88888866  0.55555574  0.15702600
   0.88888887  0.88888878  0.15702600
   0.88888878  0.22222203  0.15702600
   0.22222232  0.55555574  0.15702600
   0.22222253  0.88888878  0.15702600
   0.22222245  0.22222203  0.15702600
   0.66666642  0.66666675  0.23375733
   0.66666692  0.00000000  0.23375733
   0.66666655  0.33333304  0.23375733
   0.00000008  0.66666675  0.23375733
   0.00000000  0.00000000  0.23375733
   0.00000021  0.33333304  0.23375733
   0.33333354  0.66666675  0.23375733
   0.33333346  0.00000000  0.23375733
   0.33333367  0.33333304  0.23375733
   0.77777765  0.77777777  0.31173067
   0.77777756  0.11111101  0.31173067
   0.77777744  0.44444473  0.31173067
   0.11111131  0.77777777  0.31173067
   0.11111122  0.11111101  0.31173067
   0.11111110  0.44444473  0.31173067
   0.44444419  0.77777777  0.31173067
   0.44444468  0.11111101  0.31173067
   0.44444456  0.44444473  0.31173067
   0.88888887  0.88888878  0.38970400
   0.88888878  0.22222203  0.38970400
   0.88888866  0.55555574  0.38970400
   0.22222253  0.88888878  0.38970400
   0.22222245  0.22222203  0.38970400
   0.22222232  0.55555574  0.38970400
   0.55555541  0.88888878  0.38970400
   0.55555591  0.22222203  0.38970400
   0.55555520  0.55555574  0.38970400
   0.00000000  0.00000000  0.46643533
   0.00000021  0.33333304  0.46643533
   0.00000008  0.66666675  0.46643533
   0.33333346  0.00000000  0.46643533
   0.33333367  0.33333304  0.46643533
   0.33333354  0.66666675  0.46643533
   0.66666692  0.00000000  0.46643533
   0.66666655  0.33333304  0.46643533
   0.66666642  0.66666675  0.46643533
   0.11111122  0.11111101  0.54472667
   0.11111110  0.44444473  0.54472667
   0.11111131  0.77777777  0.54472667
   0.44444468  0.11111101  0.54472667
   0.44444456  0.44444473  0.54472667
   0.44444419  0.77777777  0.54472667
   0.77777756  0.11111101  0.54472667
   0.77777744  0.44444473  0.54472667
   0.77777765  0.77777777  0.54472667
   0.27777777  0.27777753  0.07873467
   0.27777764  0.61111125  0.07873467
   0.27777785  0.94444429  0.07873467
   0.61111123  0.27777753  0.07873467
   0.61111110  0.61111125  0.07873467
   0.61111131  0.94444429  0.07873467
   0.94444469  0.27777753  0.07873467
   0.94444456  0.61111125  0.07873467
   0.94444477  0.94444429  0.07873467
   0.38888865  0.38888922  0.15702600
   0.38888886  0.72222226  0.15702600
   0.38888878  0.05555551  0.15702600
   0.72222211  0.38888922  0.15702600
   0.72222232  0.72222226  0.15702600
   0.72222224  0.05555551  0.15702600
   0.05555519  0.38888922  0.15702600
   0.05555540  0.72222226  0.15702600
   0.05555532  0.05555551  0.15702600
   0.49999988  0.50000023  0.23375733
   0.50000009  0.83333327  0.23375733
   0.50000000  0.16666652  0.23375733
   0.83333334  0.50000023  0.23375733
   0.83333355  0.83333327  0.23375733
   0.83333346  0.16666652  0.23375733
   0.16666642  0.50000023  0.23375733
   0.16666663  0.83333327  0.23375733
   0.16666654  0.16666652  0.23375733
   0.61111110  0.61111125  0.31173067
   0.61111131  0.94444429  0.31173067
   0.61111123  0.27777753  0.31173067
   0.94444456  0.61111125  0.31173067
   0.94444477  0.94444429  0.31173067
   0.94444469  0.27777753  0.31173067
   0.27777764  0.61111125  0.31173067
   0.27777785  0.94444429  0.31173067
   0.27777777  0.27777753  0.31173067
   0.72222232  0.72222226  0.38970400
   0.72222224  0.05555551  0.38970400
   0.72222211  0.38888922  0.38970400
   0.05555540  0.72222226  0.38970400
   0.05555532  0.05555551  0.38970400
   0.05555519  0.38888922  0.38970400
   0.38888886  0.72222226  0.38970400
   0.38888878  0.05555551  0.38970400
   0.38888865  0.38888922  0.38970400
   0.83333355  0.83333327  0.46643533
   0.83333346  0.16666652  0.46643533
   0.83333334  0.50000023  0.46643533
   0.16666663  0.83333327  0.46643533
   0.16666654  0.16666652  0.46643533
   0.16666642  0.50000023  0.46643533
   0.50000009  0.83333327  0.46643533
   0.50000000  0.16666652  0.46643533
   0.49999988  0.50000023  0.46643533
   0.94444477  0.94444429  0.54472667
   0.94444469  0.27777753  0.54472667
   0.94444456  0.61111125  0.54472667
   0.27777785  0.94444429  0.54472667
   0.27777777  0.27777753  0.54472667
   0.27777764  0.61111125  0.54472667
   0.61111131  0.94444429  0.54472667
   0.61111123  0.27777753  0.54472667
   0.61111110  0.61111125  0.54472667
   0.27777783  0.44444473  0.07873467
   0.27777804  0.77777777  0.07873467
   0.27777795  0.11111101  0.07873467
   0.61111071  0.44444473  0.07873467
   0.61111092  0.77777777  0.07873467
   0.61111141  0.11111101  0.07873467
   0.94444417  0.44444473  0.07873467
   0.94444438  0.77777777  0.07873467
   0.94444429  0.11111101  0.07873467
   0.38888905  0.55555574  0.15702600
   0.38888868  0.88888878  0.15702600
   0.38888918  0.22222203  0.15702600
   0.72222193  0.55555574  0.15702600
   0.72222214  0.88888878  0.15702600
   0.72222205  0.22222203  0.15702600
   0.05555559  0.55555574  0.15702600
   0.05555580  0.88888878  0.15702600
   0.05555572  0.22222203  0.15702600
   0.49999969  0.66666675  0.23375733
   0.50000019  0.00000000  0.23375733
   0.50000040  0.33333304  0.23375733
   0.83333315  0.66666675  0.23375733
   0.83333307  0.00000000  0.23375733
   0.83333328  0.33333304  0.23375733
   0.16666681  0.66666675  0.23375733
   0.16666673  0.00000000  0.23375733
   0.16666694  0.33333304  0.23375733
   0.61111092  0.77777777  0.31173067
   0.61111141  0.11111101  0.31173067
   0.61111071  0.44444473  0.31173067
   0.94444438  0.77777777  0.31173067
   0.94444429  0.11111101  0.31173067
   0.94444417  0.44444473  0.31173067
   0.27777804  0.77777777  0.31173067
   0.27777795  0.11111101  0.31173067
   0.27777783  0.44444473  0.31173067
   0.72222214  0.88888878  0.38970400
   0.72222205  0.22222203  0.38970400
   0.72222193  0.55555574  0.38970400
   0.05555580  0.88888878  0.38970400
   0.05555572  0.22222203  0.38970400
   0.05555559  0.55555574  0.38970400
   0.38888868  0.88888878  0.38970400
   0.38888918  0.22222203  0.38970400
   0.38888905  0.55555574  0.38970400
   0.83333307  0.00000000  0.46643533
   0.83333328  0.33333304  0.46643533
   0.83333315  0.66666675  0.46643533
   0.16666673  0.00000000  0.46643533
   0.16666694  0.33333304  0.46643533
   0.16666681  0.66666675  0.46643533
   0.50000019  0.00000000  0.46643533
   0.50000040  0.33333304  0.46643533
   0.49999969  0.66666675  0.46643533
   0.94444429  0.11111101  0.54472667
   0.94444417  0.44444473  0.54472667
   0.94444438  0.77777777  0.54472667
   0.27777795  0.11111101  0.54472667
   0.27777783  0.44444473  0.54472667
   0.27777804  0.77777777  0.54472667
   0.61111141  0.11111101  0.54472667
   0.61111071  0.44444473  0.54472667
   0.61111092  0.77777777  0.54472667
   0.44444450  0.27777753  0.07873467
   0.44444437  0.61111125  0.07873467
   0.44444458  0.94444429  0.07873467
   0.77777796  0.27777753  0.07873467
   0.77777783  0.61111125  0.07873467
   0.77777804  0.94444429  0.07873467
   0.11111104  0.27777753  0.07873467
   0.11111091  0.61111125  0.07873467
   0.11111112  0.94444429  0.07873467
   0.55555538  0.38888922  0.15702600
   0.55555559  0.72222226  0.15702600
   0.55555551  0.05555551  0.15702600
   0.88888884  0.38888922  0.15702600
   0.88888905  0.72222226  0.15702600
   0.88888897  0.05555551  0.15702600
   0.22222192  0.38888922  0.15702600
   0.22222213  0.72222226  0.15702600
   0.22222205  0.05555551  0.15702600
   0.66666661  0.50000023  0.23375733
   0.66666682  0.83333327  0.23375733
   0.66666673  0.16666652  0.23375733
   0.99999969  0.50000023  0.23375733
   0.99999990  0.83333327  0.23375733
   0.99999981  0.16666652  0.23375733
   0.33333315  0.50000023  0.23375733
   0.33333336  0.83333327  0.23375733
   0.33333327  0.16666652  0.23375733
   0.77777783  0.61111125  0.31173067
   0.77777804  0.94444429  0.31173067
   0.77777796  0.27777753  0.31173067
   0.11111091  0.61111125  0.31173067
   0.11111112  0.94444429  0.31173067
   0.11111104  0.27777753  0.31173067
   0.44444437  0.61111125  0.31173067
   0.44444458  0.94444429  0.31173067
   0.44444450  0.27777753  0.31173067
   0.88888905  0.72222226  0.38970400
   0.88888897  0.05555551  0.38970400
   0.88888884  0.38888922  0.38970400
   0.22222213  0.72222226  0.38970400
   0.22222205  0.05555551  0.38970400
   0.22222192  0.38888922  0.38970400
   0.55555559  0.72222226  0.38970400
   0.55555551  0.05555551  0.38970400
   0.55555538  0.38888922  0.38970400
   0.99999990  0.83333327  0.46643533
   0.99999981  0.16666652  0.46643533
   0.99999969  0.50000023  0.46643533
   0.33333336  0.83333327  0.46643533
   0.33333327  0.16666652  0.46643533
   0.33333315  0.50000023  0.46643533
   0.66666682  0.83333327  0.46643533
   0.66666673  0.16666652  0.46643533
   0.66666661  0.50000023  0.46643533
   0.11111112  0.94444429  0.54472667
   0.11111104  0.27777753  0.54472667
   0.11111091  0.61111125  0.54472667
   0.44444458  0.94444429  0.54472667
   0.44444450  0.27777753  0.54472667
   0.44444437  0.61111125  0.54472667
   0.77777804  0.94444429  0.54472667
   0.77777796  0.27777753  0.54472667
   0.77777783  0.61111125  0.54472667
   0.34272267  0.48122118  0.66800000
   0.37958737  0.40749218  0.66800000
 
 position of ions in cartesian coordinates  (Angst):
   2.36204000-11.45372000 -6.61281000
   2.36204000-14.31714000-11.57241000
   2.36204000 -8.59029000 -1.65320000
   2.36204000-17.18057000 -6.61281000
   2.36204000-20.04400000-11.57241000
   2.36204000-14.31714000 -1.65320000
   2.36204000 -5.72686000 -6.61281000
   2.36204000 -8.59029000-11.57241000
   2.36204000 -2.86343000 -1.65320000
   4.71078000-14.31714000 -8.26601000
   4.71078000-17.18057000-13.22561000
   4.71078000-11.45372000 -3.30640000
   4.71078000-20.04400000 -8.26601000
   4.71078000-22.90743000-13.22561000
   4.71078000-17.18057000 -3.30640000
   4.71078000 -8.59029000 -8.26601000
   4.71078000-11.45372000-13.22561000
   4.71078000 -5.72686000 -3.30640000
   7.01272000-17.18057000 -9.91921000
   7.01272000-11.45372000  0.00000000
   7.01272000-14.31714000 -4.95960000
   7.01272000 -5.72686000 -9.91921000
   7.01272000  0.00000000  0.00000000
   7.01272000 -2.86343000 -4.95960000
   7.01272000-11.45372000 -9.91921000
   7.01272000 -5.72686000  0.00000000
   7.01272000 -8.59029000 -4.95960000
   9.35192000-20.04400000-11.57241000
   9.35192000-14.31714000 -1.65320000
   9.35192000-17.18057000 -6.61281000
   9.35192000 -8.59029000-11.57241000
   9.35192000 -2.86343000 -1.65320000
   9.35192000 -5.72686000 -6.61281000
   9.35192000-14.31714000-11.57241000
   9.35192000 -8.59029000 -1.65320000
   9.35192000-11.45372000 -6.61281000
  11.69112000-22.90743000-13.22561000
  11.69112000-17.18057000 -3.30640000
  11.69112000-20.04400000 -8.26601000
  11.69112000-11.45372000-13.22561000
  11.69112000 -5.72686000 -3.30640000
  11.69112000 -8.59029000 -8.26601000
  11.69112000-17.18057000-13.22561000
  11.69112000-11.45372000 -3.30640000
  11.69112000-14.31714000 -8.26601000
  13.99306000  0.00000000  0.00000000
  13.99306000 -2.86343000 -4.95960000
  13.99306000 -5.72686000 -9.91921000
  13.99306000 -5.72686000  0.00000000
  13.99306000 -8.59029000 -4.95960000
  13.99306000-11.45372000 -9.91921000
  13.99306000-11.45372000  0.00000000
  13.99306000-14.31714000 -4.95960000
  13.99306000-17.18057000 -9.91921000
  16.34180000 -2.86343000 -1.65320000
  16.34180000 -5.72686000 -6.61281000
  16.34180000 -8.59029000-11.57241000
  16.34180000 -8.59029000 -1.65320000
  16.34180000-11.45372000 -6.61281000
  16.34180000-14.31714000-11.57241000
  16.34180000-14.31714000 -1.65320000
  16.34180000-17.18057000 -6.61281000
  16.34180000-20.04400000-11.57241000
   2.36204000 -7.15857000 -4.13300000
   2.36204000-10.02200000 -9.09261000
   2.36204000-12.88543000-14.05221000
   2.36204000-12.88543000 -4.13300000
   2.36204000-15.74886000 -9.09261000
   2.36204000-18.61229000-14.05221000
   2.36204000-18.61229000 -4.13300000
   2.36204000-21.47572000 -9.09261000
   2.36204000-24.33915000-14.05221000
   4.71078000-10.02200000 -5.78621000
   4.71078000-12.88543000-10.74581000
   4.71078000 -7.15857000 -0.82660000
   4.71078000-15.74886000 -5.78621000
   4.71078000-18.61229000-10.74581000
   4.71078000-12.88543000 -0.82660000
   4.71078000 -4.29514000 -5.78621000
   4.71078000 -7.15857000-10.74581000
   4.71078000 -1.43171000 -0.82660000
   7.01272000-12.88543000 -7.43941000
   7.01272000-15.74886000-12.39901000
   7.01272000-10.02200000 -2.47980000
   7.01272000-18.61229000 -7.43941000
   7.01272000-21.47572000-12.39901000
   7.01272000-15.74886000 -2.47980000
   7.01272000 -7.15857000 -7.43941000
   7.01272000-10.02200000-12.39901000
   7.01272000 -4.29514000 -2.47980000
   9.35192000-15.74886000 -9.09261000
   9.35192000-18.61229000-14.05221000
   9.35192000-12.88543000 -4.13300000
   9.35192000-21.47572000 -9.09261000
   9.35192000-24.33915000-14.05221000
   9.35192000-18.61229000 -4.13300000
   9.35192000-10.02200000 -9.09261000
   9.35192000-12.88543000-14.05221000
   9.35192000 -7.15857000 -4.13300000
  11.69112000-18.61229000-10.74581000
  11.69112000-12.88543000 -0.82660000
  11.69112000-15.74886000 -5.78621000
  11.69112000 -7.15857000-10.74581000
  11.69112000 -1.43171000 -0.82660000
  11.69112000 -4.29514000 -5.78621000
  11.69112000-12.88543000-10.74581000
  11.69112000 -7.15857000 -0.82660000
  11.69112000-10.02200000 -5.78621000
  13.99306000-21.47572000-12.39901000
  13.99306000-15.74886000 -2.47980000
  13.99306000-18.61229000 -7.43941000
  13.99306000-10.02200000-12.39901000
  13.99306000 -4.29514000 -2.47980000
  13.99306000 -7.15857000 -7.43941000
  13.99306000-15.74886000-12.39901000
  13.99306000-10.02200000 -2.47980000
  13.99306000-12.88543000 -7.43941000
  16.34180000-24.33915000-14.05221000
  16.34180000-18.61229000 -4.13300000
  16.34180000-21.47572000 -9.09261000
  16.34180000-12.88543000-14.05221000
  16.34180000 -7.15857000 -4.13300000
  16.34180000-10.02200000 -9.09261000
  16.34180000-18.61229000-14.05221000
  16.34180000-12.88543000 -4.13300000
  16.34180000-15.74886000 -9.09261000
   2.36204000 -8.59029000 -6.61281000
   2.36204000-11.45372000-11.57241000
   2.36204000 -5.72686000 -1.65320000
   2.36204000-14.31714000 -6.61281000
   2.36204000-17.18057000-11.57241000
   2.36204000-11.45372000 -1.65320000
   2.36204000-20.04400000 -6.61281000
   2.36204000-22.90743000-11.57241000
   2.36204000-17.18057000 -1.65320000
   4.71078000-11.45372000 -8.26601000
   4.71078000-14.31714000-13.22561000
   4.71078000 -8.59029000 -3.30640000
   4.71078000-17.18057000 -8.26601000
   4.71078000-20.04400000-13.22561000
   4.71078000-14.31714000 -3.30640000
   4.71078000 -5.72686000 -8.26601000
   4.71078000 -8.59029000-13.22561000
   4.71078000 -2.86343000 -3.30640000
   7.01272000-14.31714000 -9.91921000
   7.01272000 -8.59029000  0.00000000
   7.01272000-11.45372000 -4.95960000
   7.01272000-20.04400000 -9.91921000
   7.01272000-14.31714000  0.00000000
   7.01272000-17.18057000 -4.95960000
   7.01272000 -8.59029000 -9.91921000
   7.01272000 -2.86343000  0.00000000
   7.01272000 -5.72686000 -4.95960000
   9.35192000-17.18057000-11.57241000
   9.35192000-11.45372000 -1.65320000
   9.35192000-14.31714000 -6.61281000
   9.35192000-22.90743000-11.57241000
   9.35192000-17.18057000 -1.65320000
   9.35192000-20.04400000 -6.61281000
   9.35192000-11.45372000-11.57241000
   9.35192000 -5.72686000 -1.65320000
   9.35192000 -8.59029000 -6.61281000
  11.69112000-20.04400000-13.22561000
  11.69112000-14.31714000 -3.30640000
  11.69112000-17.18057000 -8.26601000
  11.69112000 -8.59029000-13.22561000
  11.69112000 -2.86343000 -3.30640000
  11.69112000 -5.72686000 -8.26601000
  11.69112000-14.31714000-13.22561000
  11.69112000 -8.59029000 -3.30640000
  11.69112000-11.45372000 -8.26601000
  13.99306000-14.31714000  0.00000000
  13.99306000-17.18057000 -4.95960000
  13.99306000-20.04400000 -9.91921000
  13.99306000 -2.86343000  0.00000000
  13.99306000 -5.72686000 -4.95960000
  13.99306000 -8.59029000 -9.91921000
  13.99306000 -8.59029000  0.00000000
  13.99306000-11.45372000 -4.95960000
  13.99306000-14.31714000 -9.91921000
  16.34180000-17.18057000 -1.65320000
  16.34180000-20.04400000 -6.61281000
  16.34180000-22.90743000-11.57241000
  16.34180000 -5.72686000 -1.65320000
  16.34180000 -8.59029000 -6.61281000
  16.34180000-11.45372000-11.57241000
  16.34180000-11.45372000 -1.65320000
  16.34180000-14.31714000 -6.61281000
  16.34180000-17.18057000-11.57241000
   2.36204000-10.02200000 -4.13300000
   2.36204000-12.88543000 -9.09261000
   2.36204000-15.74886000-14.05221000
   2.36204000-15.74886000 -4.13300000
   2.36204000-18.61229000 -9.09261000
   2.36204000-21.47572000-14.05221000
   2.36204000 -4.29514000 -4.13300000
   2.36204000 -7.15857000 -9.09261000
   2.36204000-10.02200000-14.05221000
   4.71078000-12.88543000 -5.78621000
   4.71078000-15.74886000-10.74581000
   4.71078000-10.02200000 -0.82660000
   4.71078000-18.61229000 -5.78621000
   4.71078000-21.47572000-10.74581000
   4.71078000-15.74886000 -0.82660000
   4.71078000 -7.15857000 -5.78621000
   4.71078000-10.02200000-10.74581000
   4.71078000 -4.29514000 -0.82660000
   7.01272000-15.74886000 -7.43941000
   7.01272000-18.61229000-12.39901000
   7.01272000-12.88543000 -2.47980000
   7.01272000-21.47571346 -7.43941000
   7.01272000-24.33914346-12.39901000
   7.01272000-18.61228346 -2.47980000
   7.01272000-10.02200000 -7.43941000
   7.01272000-12.88543000-12.39901000
   7.01272000 -7.15857000 -2.47980000
   9.35192000-18.61229000 -9.09261000
   9.35192000-21.47572000-14.05221000
   9.35192000-15.74886000 -4.13300000
   9.35192000 -7.15857000 -9.09261000
   9.35192000-10.02200000-14.05221000
   9.35192000 -4.29514000 -4.13300000
   9.35192000-12.88543000 -9.09261000
   9.35192000-15.74886000-14.05221000
   9.35192000-10.02200000 -4.13300000
  11.69112000-21.47572000-10.74581000
  11.69112000-15.74886000 -0.82660000
  11.69112000-18.61229000 -5.78621000
  11.69112000-10.02200000-10.74581000
  11.69112000 -4.29514000 -0.82660000
  11.69112000 -7.15857000 -5.78621000
  11.69112000-15.74886000-10.74581000
  11.69112000-10.02200000 -0.82660000
  11.69112000-12.88543000 -5.78621000
  13.99306000-24.33914346-12.39901000
  13.99306000-18.61228346 -2.47980000
  13.99306000-21.47571346 -7.43941000
  13.99306000-12.88543000-12.39901000
  13.99306000 -7.15857000 -2.47980000
  13.99306000-10.02200000 -7.43941000
  13.99306000-18.61229000-12.39901000
  13.99306000-12.88543000 -2.47980000
  13.99306000-15.74886000 -7.43941000
  16.34180000-10.02200000-14.05221000
  16.34180000 -4.29514000 -4.13300000
  16.34180000 -7.15857000 -9.09261000
  16.34180000-15.74886000-14.05221000
  16.34180000-10.02200000 -4.13300000
  16.34180000-12.88543000 -9.09261000
  16.34180000-21.47572000-14.05221000
  16.34180000-15.74886000 -4.13300000
  16.34180000-18.61229000 -9.09261000
  20.04000000-10.02200000 -7.16000000
  20.04000000-10.02200333 -6.06300000
 


--------------------------------------------------------------------------------------------------------


 k-point  1 :   0.0000 0.0000 0.0000  plane waves:   90499
 k-point  2 :   0.5000 0.0000 0.0000  plane waves:   90530
 k-point  3 :   0.0000 0.5000 0.0000  plane waves:   90530

 maximum and minimum number of plane-waves per node :     90530    90499

 maximum number of plane-waves:     90530
 maximum index in each direction: 
   IXMAX=   24   IYMAX=   24   IZMAX=   42
   IXMIN=  -24   IYMIN=  -24   IZMIN=  -42


 serial   3D FFT for wavefunctions
 parallel 3D FFT for charge:
    minimum data exchange during FFTs selected (reduces bandwidth)


 total amount of memory used by VASP MPI-rank0   652136. kBytes
=======================================================================

   base      :      30000. kBytes
   nonlr-proj:      89915. kBytes
   fftplans  :      40601. kBytes
   grid      :      95147. kBytes
   one-center:       3950. kBytes
   wavefun   :     392523. kBytes
 
     INWAV:  cpu time    0.0000: real time    0.0001
 Broyden mixing: mesh for mixing (old mesh)
   NGX = 49   NGY = 49   NGZ = 85
  (NGX  =160   NGY  =160   NGZ  =256)
  gives a total of 204085 points

 initial charge density was supplied:
 charge density of overlapping atoms calculated
 number of electron     766.0000000 magnetization 
 keeping initial charge density in first step


--------------------------------------------------------------------------------------------------------


 Maximum index for non-local projection operator         4274
 Maximum index for augmentation-charges          758 (set IRDMAX)


--------------------------------------------------------------------------------------------------------


 First call to EWALD:  gamma=   0.090
 Maximum number of real-space cells 3x 3x 2
 Maximum number of reciprocal cells 2x 2x 4

    FEWALD:  cpu time    0.0363: real time    0.0582


----------------------------------------- Iteration    1(   1)  ---------------------------------------


    POTLOK:  cpu time    0.9044: real time    1.0175
    SETDIJ:  cpu time    0.1071: real time    0.1101
     EDDAV:  cpu time   18.9809: real time   21.8185
       DOS:  cpu time    0.0017: real time    0.0147
    --------------------------------------------
      LOOP:  cpu time   19.9963: real time   23.0015

 eigenvalue-minimisations  :  3120
 total energy-change (2. order) : 0.2141384E+04  (-0.1840262E+05)
 number of electron     766.0000000 magnetization 
 augmentation part      766.0000000 magnetization 

 Free energy of the ion-electron system (eV)
  ---------------------------------------------------
  alpha Z        PSCENC =       505.22967617
  Ewald energy   TEWEN  =     86737.53563124
  -Hartree energ DENC   =   -100797.84771769
  -exchange      EXHF   =         0.00000000
  -V(xc)+E(xc)   XCENC  =     -6605.76419440
  PAW double counting   =     17092.30507181    -9042.14386232
  entropy T*S    EENTRO =        -0.05680709
  eigenvalues    EBANDS =       232.92460926
  atomic energy  EATOM  =     14019.20197576
  Solvation  Ediel_sol  =         0.00000000
  ---------------------------------------------------
  free energy    TOTEN  =      2141.38438273 eV

  energy without entropy =     2141.44118982  energy(sigma->0) =     2141.41278627


--------------------------------------------------------------------------------------------------------




----------------------------------------- Iteration    1(   2)  ---------------------------------------


     EDDAV:  cpu time   23.8547: real time   27.2623
       DOS:  cpu time    0.0023: real time    0.0023
    --------------------------------------------
      LOOP:  cpu time   23.8585: real time   27.2739

 eigenvalue-minimisations  :  4224
 total energy-change (2. order) :-0.2884714E+04  (-0.2719688E+04)
 number of electron     766.0000000 magnetization 
 augmentation part      766.0000000 magnetization 

 Free energy of the ion-electron system (eV)
  ---------------------------------------------------
  alpha Z        PSCENC =       505.22967617
  Ewald energy   TEWEN  =     86737.53563124
  -Hartree energ DENC   =   -100797.84771769
  -exchange      EXHF   =         0.00000000
  -V(xc)+E(xc)   XCENC  =     -6605.76419440
  PAW double counting   =     17092.30507181    -9042.14386232
  entropy T*S    EENTRO =        -0.10604404
  eigenvalues    EBANDS =     -2651.74025277
  atomic energy  EATOM  =     14019.20197576
  Solvation  Ediel_sol  =         0.00000000
  ---------------------------------------------------
  free energy    TOTEN  =      -743.32971626 eV

  energy without entropy =     -743.22367222  energy(sigma->0) =     -743.27669424


--------------------------------------------------------------------------------------------------------




----------------------------------------- Iteration    1(   3)  ---------------------------------------


     EDDAV:  cpu time   24.9607: real time   28.4264
       DOS:  cpu time    0.0021: real time    0.0021
    --------------------------------------------
      LOOP:  cpu time   24.9642: real time   28.4314

 eigenvalue-minimisations  :  4464
 total energy-change (2. order) :-0.2121864E+03  (-0.2040043E+03)
 number of electron     766.0000000 magnetization 
 augmentation part      766.0000000 magnetization 

 Free energy of the ion-electron system (eV)
  ---------------------------------------------------
  alpha Z        PSCENC =       505.22967617
  Ewald energy   TEWEN  =     86737.53563124
  -Hartree energ DENC   =   -100797.84771769
  -exchange      EXHF   =         0.00000000
  -V(xc)+E(xc)   XCENC  =     -6605.76419440
  PAW double counting   =     17092.30507181    -9042.14386232
  entropy T*S    EENTRO =        -0.23259077
  eigenvalues    EBANDS =     -2863.80006664
  atomic energy  EATOM  =     14019.20197576
  Solvation  Ediel_sol  =         0.00000000
  ---------------------------------------------------
  free energy    TOTEN  =      -955.51607685 eV

  energy without entropy =     -955.28348608  energy(sigma->0) =     -955.39978147


--------------------------------------------------------------------------------------------------------




----------------------------------------- Iteration    1(   4)  ---------------------------------------


     EDDAV:  cpu time   24.4255: real time   27.9028
       DOS:  cpu time    0.0027: real time    0.0027
    --------------------------------------------
      LOOP:  cpu time   24.4295: real time   27.9082

 eigenvalue-minimisations  :  4344
 total energy-change (2. order) :-0.8006206E+01  (-0.7848239E+01)
 number of electron     766.0000000 magnetization 
 augmentation part      766.0000000 magnetization 

 Free energy of the ion-electron system (eV)
  ---------------------------------------------------
  alpha Z        PSCENC =       505.22967617
  Ewald energy   TEWEN  =     86737.53563124
  -Hartree energ DENC   =   -100797.84771769
  -exchange      EXHF   =         0.00000000
  -V(xc)+E(xc)   XCENC  =     -6605.76419440
  PAW double counting   =     17092.30507181    -9042.14386232
  entropy T*S    EENTRO =        -0.25782211
  eigenvalues    EBANDS =     -2871.78104134
  atomic energy  EATOM  =     14019.20197576
  Solvation  Ediel_sol  =         0.00000000
  ---------------------------------------------------
  free energy    TOTEN  =      -963.52228289 eV

  energy without entropy =     -963.26446078  energy(sigma->0) =     -963.39337183


--------------------------------------------------------------------------------------------------------




----------------------------------------- Iteration    1(   5)  ---------------------------------------


     EDDAV:  cpu time   27.4574: real time   31.2698
       DOS:  cpu time    0.0197: real time    0.0197
    CHARGE:  cpu time    1.9544: real time    2.0137
    MIXING:  cpu time    0.0299: real time    0.0299
    --------------------------------------------
      LOOP:  cpu time   29.4629: real time   33.3364

 eigenvalue-minimisations  :  4956
 total energy-change (2. order) :-0.4189209E+00  (-0.4174099E+00)
 number of electron     765.9999968 magnetization 
 augmentation part       -9.8966733 magnetization 

 Broyden mixing:
  rms(total) = 0.19610E+01    rms(broyden)= 0.19592E+01
  rms(prec ) = 0.26889E+01
  weight for this iteration     100.00

 Free energy of the ion-electron system (eV)
  ---------------------------------------------------
  alpha Z        PSCENC =       505.22967617
  Ewald energy   TEWEN  =     86737.53563124
  -Hartree energ DENC   =   -100797.84771769
  -exchange      EXHF   =         0.00000000
  -V(xc)+E(xc)   XCENC  =     -6605.76419440
  PAW double counting   =     17092.30507181    -9042.14386232
  entropy T*S    EENTRO =        -0.25949606
  eigenvalues    EBANDS =     -2872.19828832
  atomic energy  EATOM  =     14019.20197576
  Solvation  Ediel_sol  =         0.00000000
  ---------------------------------------------------
  free energy    TOTEN  =      -963.94120382 eV

  energy without entropy =     -963.68170776  energy(sigma->0) =     -963.81145579


--------------------------------------------------------------------------------------------------------




----------------------------------------- Iteration    1(   6)  ---------------------------------------


    POTLOK:  cpu time    0.8891: real time    0.8895
    SETDIJ:  cpu time    0.1137: real time    0.1138
     EDDAV:  cpu time   24.3231: real time   27.7063
       DOS:  cpu time    0.0067: real time    0.0070
    CHARGE:  cpu time    1.9382: real time    1.9779
    MIXING:  cpu time    0.0317: real time    0.0319
    --------------------------------------------
      LOOP:  cpu time   27.3043: real time   30.7292

 eigenvalue-minimisations  :  4260
 total energy-change (2. order) :-0.1476055E+02  (-0.1902317E+02)
 number of electron     765.9999971 magnetization 
 augmentation part       -9.8673888 magnetization 

 Broyden mixing:
  rms(total) = 0.19006E+01    rms(broyden)= 0.19005E+01
  rms(prec ) = 0.42075E+01
  weight for this iteration     100.00

 eigenvalues of (default mixing * dielectric matrix)
  average eigenvalue GAMMA=   0.7974
  0.7974

 Free energy of the ion-electron system (eV)
  ---------------------------------------------------
  alpha Z        PSCENC =       505.22967617
  Ewald energy   TEWEN  =     86737.53563124
  -Hartree energ DENC   =   -101724.70203661
  -exchange      EXHF   =         0.00000000
  -V(xc)+E(xc)   XCENC  =     -6595.41631115
  PAW double counting   =     19104.83993468   -11056.12339263
  entropy T*S    EENTRO =        -0.16927061
  eigenvalues    EBANDS =     -1969.09796095
  atomic energy  EATOM  =     14019.20197576
  Solvation  Ediel_sol  =         0.00000000
  ---------------------------------------------------
  free energy    TOTEN  =      -978.70175410 eV

  energy without entropy =     -978.53248349  energy(sigma->0) =     -978.61711879


--------------------------------------------------------------------------------------------------------




----------------------------------------- Iteration    1(   7)  ---------------------------------------


    POTLOK:  cpu time    0.8901: real time    0.8905
    SETDIJ:  cpu time    0.1114: real time    0.1114
     EDDAV:  cpu time   23.2007: real time   26.4984
       DOS:  cpu time    0.0227: real time    0.0227
    CHARGE:  cpu time    1.9398: real time    1.9797
    MIXING:  cpu time    0.0320: real time    0.0320
    --------------------------------------------
      LOOP:  cpu time   26.1985: real time   29.5387

 eigenvalue-minimisations  :  4008
 total energy-change (2. order) : 0.4031295E+02  (-0.1332689E+02)
 number of electron     765.9999970 magnetization 
 augmentation part       -9.9088682 magnetization 

 Broyden mixing:
  rms(total) = 0.10151E+01    rms(broyden)= 0.10151E+01
  rms(prec ) = 0.12877E+01
  weight for this iteration     100.00

 eigenvalues of (default mixing * dielectric matrix)
  average eigenvalue GAMMA=   1.1927
  2.0722  0.3131

 Free energy of the ion-electron system (eV)
  ---------------------------------------------------
  alpha Z        PSCENC =       505.22967617
  Ewald energy   TEWEN  =     86737.53563124
  -Hartree energ DENC   =   -101197.03430139
  -exchange      EXHF   =         0.00000000
  -V(xc)+E(xc)   XCENC  =     -6593.23355150
  PAW double counting   =     19505.91467268   -11457.34214256
  entropy T*S    EENTRO =        -0.04840336
  eigenvalues    EBANDS =     -2458.61236308
  atomic energy  EATOM  =     14019.20197576
  Solvation  Ediel_sol  =         0.00000000
  ---------------------------------------------------
  free energy    TOTEN  =      -938.38880605 eV

  energy without entropy =     -938.34040269  energy(sigma->0) =     -938.36460437


--------------------------------------------------------------------------------------------------------




----------------------------------------- Iteration    1(   8)  ---------------------------------------


    POTLOK:  cpu time    0.9014: real time    0.9018
    SETDIJ:  cpu time    0.1132: real time    0.1133
     EDDAV:  cpu time   22.5913: real time   25.7465
       DOS:  cpu time    0.0023: real time    0.0023
    CHARGE:  cpu time    1.9447: real time    1.9851
    MIXING:  cpu time    0.0317: real time    0.0317
    --------------------------------------------
      LOOP:  cpu time   25.5866: real time   28.7836

 eigenvalue-minimisations  :  3852
 total energy-change (2. order) : 0.3925820E+00  (-0.4784033E+01)
 number of electron     765.9999970 magnetization 
 augmentation part      -10.0785189 magnetization 

 Broyden mixing:
  rms(total) = 0.47484E+00    rms(broyden)= 0.47484E+00
  rms(prec ) = 0.61122E+00
  weight for this iteration     100.00

 eigenvalues of (default mixing * dielectric matrix)
  average eigenvalue GAMMA=   1.1571
  2.4767  0.6996  0.2951

 Free energy of the ion-electron system (eV)
  ---------------------------------------------------
  alpha Z        PSCENC =       505.22967617
  Ewald energy   TEWEN  =     86737.53563124
  -Hartree energ DENC   =   -101372.47354115
  -exchange      EXHF   =         0.00000000
  -V(xc)+E(xc)   XCENC  =     -6583.46207792
  PAW double counting   =     21145.79010768   -13098.16897076
  entropy T*S    EENTRO =        -0.05748120
  eigenvalues    EBANDS =     -2291.59154383
  atomic energy  EATOM  =     14019.20197576
  Solvation  Ediel_sol  =         0.00000000
  ---------------------------------------------------
  free energy    TOTEN  =      -937.99622403 eV

  energy without entropy =     -937.93874282  energy(sigma->0) =     -937.96748343


--------------------------------------------------------------------------------------------------------




----------------------------------------- Iteration    1(   9)  ---------------------------------------


    POTLOK:  cpu time    0.9012: real time    0.9017
    SETDIJ:  cpu time    0.1129: real time    0.1129
     EDDAV:  cpu time   21.6469: real time   24.7190
       DOS:  cpu time    0.0026: real time    0.0026
    CHARGE:  cpu time    1.9424: real time    1.9823
    MIXING:  cpu time    0.0336: real time    0.0336
    --------------------------------------------
      LOOP:  cpu time   24.6416: real time   27.7558

 eigenvalue-minimisations  :  3636
 total energy-change (2. order) : 0.2044064E+01  (-0.5232903E+00)
 number of electron     765.9999970 magnetization 
 augmentation part      -10.1414874 magnetization 

 Broyden mixing:
  rms(total) = 0.12883E+00    rms(broyden)= 0.12882E+00
  rms(prec ) = 0.22575E+00
  weight for this iteration     100.00

 eigenvalues of (default mixing * dielectric matrix)
  average eigenvalue GAMMA=   1.2205
  2.4078  1.5034  0.2971  0.6735

 Free energy of the ion-electron system (eV)
  ---------------------------------------------------
  alpha Z        PSCENC =       505.22967617
  Ewald energy   TEWEN  =     86737.53563124
  -Hartree energ DENC   =   -101544.00618711
  -exchange      EXHF   =         0.00000000
  -V(xc)+E(xc)   XCENC  =     -6575.78670785
  PAW double counting   =     22399.04402301   -14352.43457115
  entropy T*S    EENTRO =        -0.05496767
  eigenvalues    EBANDS =     -2124.68103220
  atomic energy  EATOM  =     14019.20197576
  Solvation  Ediel_sol  =         0.00000000
  ---------------------------------------------------
  free energy    TOTEN  =      -935.95215981 eV

  energy without entropy =     -935.89719213  energy(sigma->0) =     -935.92467597


--------------------------------------------------------------------------------------------------------




----------------------------------------- Iteration    1(  10)  ---------------------------------------


    POTLOK:  cpu time    0.9005: real time    0.9010
    SETDIJ:  cpu time    0.1117: real time    0.1117
     EDDAV:  cpu time   25.6540: real time   29.1767
       DOS:  cpu time    0.0160: real time    0.0160
    CHARGE:  cpu time    1.9652: real time    2.0049
    MIXING:  cpu time    0.0363: real time    0.0363
    --------------------------------------------
      LOOP:  cpu time   28.6856: real time   32.2497

 eigenvalue-minimisations  :  4548
 total energy-change (2. order) :-0.5351830E+00  (-0.7875243E-01)
 number of electron     765.9999972 magnetization 
 augmentation part      -10.1490086 magnetization 

 Broyden mixing:
  rms(total) = 0.19911E+00    rms(broyden)= 0.19911E+00
  rms(prec ) = 0.69927E+00
  weight for this iteration     100.00

 eigenvalues of (default mixing * dielectric matrix)
  average eigenvalue GAMMA=   1.0295
  2.3904  1.6172  0.6671  0.2975  0.1751

 Free energy of the ion-electron system (eV)
  ---------------------------------------------------
  alpha Z        PSCENC =       505.22967617
  Ewald energy   TEWEN  =     86737.53563124
  -Hartree energ DENC   =   -101578.03068481
  -exchange      EXHF   =         0.00000000
  -V(xc)+E(xc)   XCENC  =     -6575.31523738
  PAW double counting   =     22424.46788718   -14378.06299633
  entropy T*S    EENTRO =        -0.05561487
  eigenvalues    EBANDS =     -2091.45797975
  atomic energy  EATOM  =     14019.20197576
  Solvation  Ediel_sol  =         0.00000000
  ---------------------------------------------------
  free energy    TOTEN  =      -936.48734278 eV

  energy without entropy =     -936.43172792  energy(sigma->0) =     -936.45953535


--------------------------------------------------------------------------------------------------------




----------------------------------------- Iteration    1(  11)  ---------------------------------------


    POTLOK:  cpu time    0.9024: real time    0.9029
    SETDIJ:  cpu time    0.1125: real time    0.1126
     EDDAV:  cpu time   24.6295: real time   28.1125
       DOS:  cpu time    0.0028: real time    0.0028
    CHARGE:  cpu time    1.9458: real time    1.9874
    MIXING:  cpu time    0.0369: real time    0.0372
    --------------------------------------------
      LOOP:  cpu time   27.6318: real time   31.1584

 eigenvalue-minimisations  :  4332
 total energy-change (2. order) : 0.6977232E+00  (-0.5194221E-01)
 number of electron     765.9999971 magnetization 
 augmentation part      -10.1493085 magnetization 

 Broyden mixing:
  rms(total) = 0.62017E-01    rms(broyden)= 0.62012E-01
  rms(prec ) = 0.86482E-01
  weight for this iteration     100.00

 eigenvalues of (default mixing * dielectric matrix)
  average eigenvalue GAMMA=   1.0545
  2.3606  1.9430  0.7936  0.7936  0.2966  0.1395

 Free energy of the ion-electron system (eV)
  ---------------------------------------------------
  alpha Z        PSCENC =       505.22967617
  Ewald energy   TEWEN  =     86737.53563124
  -Hartree energ DENC   =   -101613.80572438
  -exchange      EXHF   =         0.00000000
  -V(xc)+E(xc)   XCENC  =     -6574.80546513
  PAW double counting   =     22443.53629210   -14397.35991014
  entropy T*S    EENTRO =        -0.05519834
  eigenvalues    EBANDS =     -2055.26689690
  atomic energy  EATOM  =     14019.20197576
  Solvation  Ediel_sol  =         0.00000000
  ---------------------------------------------------
  free energy    TOTEN  =      -935.78961962 eV

  energy without entropy =     -935.73442128  energy(sigma->0) =     -935.76202045


--------------------------------------------------------------------------------------------------------




----------------------------------------- Iteration    1(  12)  ---------------------------------------


    POTLOK:  cpu time    0.9019: real time    0.9025
    SETDIJ:  cpu time    0.1124: real time    0.1124
     EDDAV:  cpu time   21.9198: real time   25.0162
       DOS:  cpu time    0.0019: real time    0.0019
    CHARGE:  cpu time    1.9628: real time    2.0021
    MIXING:  cpu time    0.0382: real time    0.0383
    --------------------------------------------
      LOOP:  cpu time   24.9388: real time   28.0762

 eigenvalue-minimisations  :  3696
 total energy-change (2. order) : 0.3073043E-01  (-0.2183869E-01)
 number of electron     765.9999971 magnetization 
 augmentation part      -10.1584209 magnetization 

 Broyden mixing:
  rms(total) = 0.43428E-01    rms(broyden)= 0.43427E-01
  rms(prec ) = 0.62352E-01
  weight for this iteration     100.00

 eigenvalues of (default mixing * dielectric matrix)
  average eigenvalue GAMMA=   1.1587
  2.3457  2.3457  1.1497  1.1497  0.6841  0.2968  0.1392

 Free energy of the ion-electron system (eV)
  ---------------------------------------------------
  alpha Z        PSCENC =       505.22967617
  Ewald energy   TEWEN  =     86737.53563124
  -Hartree energ DENC   =   -101650.04085484
  -exchange      EXHF   =         0.00000000
  -V(xc)+E(xc)   XCENC  =     -6574.18557741
  PAW double counting   =     22464.80581705   -14418.81753511
  entropy T*S    EENTRO =        -0.05526842
  eigenvalues    EBANDS =     -2019.43275362
  atomic energy  EATOM  =     14019.20197576
  Solvation  Ediel_sol  =         0.00000000
  ---------------------------------------------------
  free energy    TOTEN  =      -935.75888919 eV

  energy without entropy =     -935.70362077  energy(sigma->0) =     -935.73125498


--------------------------------------------------------------------------------------------------------




----------------------------------------- Iteration    1(  13)  ---------------------------------------


    POTLOK:  cpu time    0.9064: real time    0.9078
    SETDIJ:  cpu time    0.1142: real time    0.1143
     EDDAV:  cpu time   23.8783: real time   27.2028
       DOS:  cpu time    0.0026: real time    0.0026
    CHARGE:  cpu time    1.9722: real time    2.0128
    MIXING:  cpu time    0.0387: real time    0.0387
    --------------------------------------------
      LOOP:  cpu time   26.9143: real time   30.2821

 eigenvalue-minimisations  :  4140
 total energy-change (2. order) : 0.2780562E-01  (-0.6413193E-02)
 number of electron     765.9999971 magnetization 
 augmentation part      -10.1569362 magnetization 

 Broyden mixing:
  rms(total) = 0.21369E-01    rms(broyden)= 0.21368E-01
  rms(prec ) = 0.36888E-01
  weight for this iteration     100.00

 eigenvalues of (default mixing * dielectric matrix)
  average eigenvalue GAMMA=   1.2440
  2.8745  2.6871  1.1783  1.1783  0.9043  0.6938  0.2968  0.1392

 Free energy of the ion-electron system (eV)
  ---------------------------------------------------
  alpha Z        PSCENC =       505.22967617
  Ewald energy   TEWEN  =     86737.53563124
  -Hartree energ DENC   =   -101687.18641269
  -exchange      EXHF   =         0.00000000
  -V(xc)+E(xc)   XCENC  =     -6573.73628212
  PAW double counting   =     22461.62975262   -14415.76232719
  entropy T*S    EENTRO =        -0.05535104
  eigenvalues    EBANDS =     -1982.58774630
  atomic energy  EATOM  =     14019.20197576
  Solvation  Ediel_sol  =         0.00000000
  ---------------------------------------------------
  free energy    TOTEN  =      -935.73108357 eV

  energy without entropy =     -935.67573252  energy(sigma->0) =     -935.70340804


--------------------------------------------------------------------------------------------------------




----------------------------------------- Iteration    1(  14)  ---------------------------------------


    POTLOK:  cpu time    0.9122: real time    0.9127
    SETDIJ:  cpu time    0.1137: real time    0.1137
     EDDAV:  cpu time   23.3845: real time   26.7246
       DOS:  cpu time    0.0021: real time    0.0022
    CHARGE:  cpu time    1.9748: real time    2.0160
    MIXING:  cpu time    0.0454: real time    0.0455
    --------------------------------------------
      LOOP:  cpu time   26.4349: real time   29.8181

 eigenvalue-minimisations  :  4044
 total energy-change (2. order) : 0.5781931E-02  (-0.2892657E-02)
 number of electron     765.9999971 magnetization 
 augmentation part      -10.1548710 magnetization 

 Broyden mixing:
  rms(total) = 0.15487E-01    rms(broyden)= 0.15486E-01
  rms(prec ) = 0.25733E-01
  weight for this iteration     100.00

 eigenvalues of (default mixing * dielectric matrix)
  average eigenvalue GAMMA=   1.2776
  3.3996  2.5319  1.4255  1.1607  1.1607  0.2968  0.7174  0.6669  0.1392

 Free energy of the ion-electron system (eV)
  ---------------------------------------------------
  alpha Z        PSCENC =       505.22967617
  Ewald energy   TEWEN  =     86737.53563124
  -Hartree energ DENC   =   -101719.99711714
  -exchange      EXHF   =         0.00000000
  -V(xc)+E(xc)   XCENC  =     -6573.39065559
  PAW double counting   =     22457.70668110   -14411.88986390
  entropy T*S    EENTRO =        -0.05544192
  eigenvalues    EBANDS =     -1950.06618735
  atomic energy  EATOM  =     14019.20197576
  Solvation  Ediel_sol  =         0.00000000
  ---------------------------------------------------
  free energy    TOTEN  =      -935.72530164 eV

  energy without entropy =     -935.66985972  energy(sigma->0) =     -935.69758068


--------------------------------------------------------------------------------------------------------




----------------------------------------- Iteration    1(  15)  ---------------------------------------


    POTLOK:  cpu time    0.9153: real time    0.9158
    SETDIJ:  cpu time    0.1142: real time    0.1142
     EDDAV:  cpu time   24.3582: real time   27.7280
       DOS:  cpu time    0.0012: real time    0.0012
    CHARGE:  cpu time    1.9808: real time    2.0212
    MIXING:  cpu time    0.0453: real time    0.0453
    --------------------------------------------
      LOOP:  cpu time   27.4169: real time   30.8290

 eigenvalue-minimisations  :  4236
 total energy-change (2. order) :-0.3426677E-02  (-0.9093904E-03)
 number of electron     765.9999971 magnetization 
 augmentation part      -10.1540762 magnetization 

 Broyden mixing:
  rms(total) = 0.12279E-01    rms(broyden)= 0.12279E-01
  rms(prec ) = 0.18471E-01
  weight for this iteration     100.00

 eigenvalues of (default mixing * dielectric matrix)
  average eigenvalue GAMMA=   1.3600
  3.8548  2.3524  2.3524  1.2869  1.2869  0.2968  0.8300  0.6867  0.1392  0.5139

 Free energy of the ion-electron system (eV)
  ---------------------------------------------------
  alpha Z        PSCENC =       505.22967617
  Ewald energy   TEWEN  =     86737.53563124
  -Hartree energ DENC   =   -101733.99833271
  -exchange      EXHF   =         0.00000000
  -V(xc)+E(xc)   XCENC  =     -6573.27198177
  PAW double counting   =     22457.08245513   -14411.24860910
  entropy T*S    EENTRO =        -0.05551216
  eigenvalues    EBANDS =     -1936.20403087
  atomic energy  EATOM  =     14019.20197576
  Solvation  Ediel_sol  =         0.00000000
  ---------------------------------------------------
  free energy    TOTEN  =      -935.72872831 eV

  energy without entropy =     -935.67321615  energy(sigma->0) =     -935.70097223


--------------------------------------------------------------------------------------------------------




----------------------------------------- Iteration    1(  16)  ---------------------------------------


    POTLOK:  cpu time    0.9223: real time    0.9227
    SETDIJ:  cpu time    0.1126: real time    0.1127
     EDDAV:  cpu time   22.4603: real time   25.6878
       DOS:  cpu time    0.0020: real time    0.0020
    CHARGE:  cpu time    1.9785: real time    2.0189
    MIXING:  cpu time    0.0481: real time    0.0481
    --------------------------------------------
      LOOP:  cpu time   25.5257: real time   28.7952

 eigenvalue-minimisations  :  3828
 total energy-change (2. order) :-0.8453481E-02  (-0.5460398E-03)
 number of electron     765.9999971 magnetization 
 augmentation part      -10.1536925 magnetization 

 Broyden mixing:
  rms(total) = 0.71672E-02    rms(broyden)= 0.71667E-02
  rms(prec ) = 0.10658E-01
  weight for this iteration     100.00

 eigenvalues of (default mixing * dielectric matrix)
  average eigenvalue GAMMA=   1.4505
  4.5886  3.0735  2.4731  1.3518  1.0396  1.0396  0.2968  0.7016  0.7760  0.1392
  0.4762

 Free energy of the ion-electron system (eV)
  ---------------------------------------------------
  alpha Z        PSCENC =       505.22967617
  Ewald energy   TEWEN  =     86737.53563124
  -Hartree energ DENC   =   -101747.47801295
  -exchange      EXHF   =         0.00000000
  -V(xc)+E(xc)   XCENC  =     -6573.21258931
  PAW double counting   =     22453.72320113   -14407.83135506
  entropy T*S    EENTRO =        -0.05556397
  eigenvalues    EBANDS =     -1922.85014479
  atomic energy  EATOM  =     14019.20197576
  Solvation  Ediel_sol  =         0.00000000
  ---------------------------------------------------
  free energy    TOTEN  =      -935.73718179 eV

  energy without entropy =     -935.68161783  energy(sigma->0) =     -935.70939981


--------------------------------------------------------------------------------------------------------




----------------------------------------- Iteration    1(  17)  ---------------------------------------


    POTLOK:  cpu time    0.9294: real time    0.9305
    SETDIJ:  cpu time    0.1136: real time    0.1136
     EDDAV:  cpu time   24.1561: real time   27.5578
       DOS:  cpu time    0.0011: real time    0.0011
    CHARGE:  cpu time    1.9962: real time    2.0367
    MIXING:  cpu time    0.0512: real time    0.0513
    --------------------------------------------
[...]
     11.69112     -8.59029     -8.26601         0.002241     -0.000576      0.000651
     11.69112    -17.18057    -13.22561         0.001345     -0.000189     -0.000196
     11.69112    -11.45372     -3.30640         0.001639      0.000582     -0.000466
     11.69112    -14.31714     -8.26601         0.000745     -0.000628     -0.000083
     13.99306      0.00000      0.00000        -0.000861     -0.000132      0.000134
     13.99306     -2.86343     -4.95960        -0.001416     -0.000707      0.000195
     13.99306     -5.72686     -9.91921        -0.000794      0.000229     -0.000519
     13.99306     -5.72686      0.00000        -0.001257     -0.000178     -0.000390
     13.99306     -8.59029     -4.95960        -0.002733      0.000492     -0.000328
     13.99306    -11.45372     -9.91921        -0.000782      0.000225      0.000799
     13.99306    -11.45372      0.00000        -0.000784     -0.000083     -0.000189
     13.99306    -14.31714     -4.95960        -0.000522     -0.000714      0.000062
     13.99306    -17.18057     -9.91921        -0.001046     -0.000013     -0.000144
     16.34180     -2.86343     -1.65320        -0.000851      0.000012      0.000135
     16.34180     -5.72686     -6.61281         0.000278      0.000859     -0.000403
     16.34180     -8.59029    -11.57241        -0.000192     -0.000163      0.000137
     16.34180     -8.59029     -1.65320        -0.000191      0.000155      0.000256
     16.34180    -11.45372     -6.61281        -0.041342     -0.012054      0.000921
     16.34180    -14.31714    -11.57241        -0.000743      0.000218      0.000336
     16.34180    -14.31714     -1.65320        -0.000601      0.000208     -0.000197
     16.34180    -17.18057     -6.61281        -0.001070      0.000908      0.000019
     16.34180    -20.04400    -11.57241        -0.000799     -0.000081     -0.000023
      2.36204     -7.15857     -4.13300         0.000050     -0.000920     -0.000504
      2.36204    -10.02200     -9.09261        -0.001955      0.000000      0.001546
      2.36204    -12.88543    -14.05221        -0.000543     -0.000375     -0.000163
      2.36204    -12.88543     -4.13300         0.000050      0.000920     -0.000504
      2.36204    -15.74886     -9.09261         0.000415     -0.001149     -0.000475
      2.36204    -18.61229    -14.05221        -0.000191      0.000000      0.000296
      2.36204    -18.61229     -4.13300        -0.000577      0.000000     -0.000064
      2.36204    -21.47572     -9.09261         0.000415      0.001149     -0.000475
      2.36204    -24.33915    -14.05221        -0.000543      0.000375     -0.000163
      4.71078    -10.02200     -5.78621        -0.003387      0.000000     -0.000574
      4.71078    -12.88543    -10.74581        -0.000755      0.000298     -0.000262
      4.71078     -7.15857     -0.82660        -0.001389      0.000075      0.000605
      4.71078    -15.74886     -5.78621        -0.000843     -0.000738      0.000152
      4.71078    -18.61229    -10.74581        -0.001145      0.000000      0.000242
      4.71078    -12.88543     -0.82660        -0.001389     -0.000075      0.000605
      4.71078     -4.29514     -5.78621        -0.000843      0.000738      0.000152
      4.71078     -7.15857    -10.74581        -0.000755     -0.000298     -0.000262
      4.71078     -1.43171     -0.82660        -0.001220      0.000000      0.000323
      7.01272    -12.88543     -7.43941         0.000304      0.001560      0.000455
      7.01272    -15.74886    -12.39901         0.000756     -0.000057      0.000156
      7.01272    -10.02200     -2.47980         0.000394      0.000000     -0.000746
      7.01272    -18.61229     -7.43941         0.000953      0.000000      0.000327
      7.01272    -21.47572    -12.39901         0.000756      0.000057      0.000156
      7.01272    -15.74886     -2.47980         0.000624     -0.000185      0.000244
      7.01272     -7.15857     -7.43941         0.000304     -0.001560      0.000455
      7.01272    -10.02200    -12.39901         0.000917      0.000000     -0.000330
      7.01272     -4.29514     -2.47980         0.000624      0.000185      0.000244
      9.35192    -15.74886     -9.09261         0.001169     -0.000421      0.000137
      9.35192    -18.61229    -14.05221         0.000645      0.000000     -0.000191
      9.35192    -12.88543     -4.13300         0.000464      0.001149     -0.000541
      9.35192    -21.47572     -9.09261         0.001169      0.000421      0.000137
      9.35192    -24.33915    -14.05221         0.001092      0.000042      0.000142
      9.35192    -18.61229     -4.13300         0.001137      0.000000      0.000054
      9.35192    -10.02200     -9.09261         0.002390      0.000000      0.001484
      9.35192    -12.88543    -14.05221         0.001092     -0.000042      0.000142
      9.35192     -7.15857     -4.13300         0.000464     -0.001149     -0.000541
     11.69112    -18.61229    -10.74581         0.001241      0.000000     -0.000287
     11.69112    -12.88543     -0.82660         0.001481      0.000074     -0.000232
     11.69112    -15.74886     -5.78621         0.001386     -0.000618     -0.000062
     11.69112     -7.15857    -10.74581         0.001226      0.000157     -0.000452
     11.69112     -1.43171     -0.82660         0.001070      0.000000      0.000332
     11.69112     -4.29514     -5.78621         0.001386      0.000618     -0.000062
     11.69112    -12.88543    -10.74581         0.001226     -0.000157     -0.000452
     11.69112     -7.15857     -0.82660         0.001481     -0.000074     -0.000232
     11.69112    -10.02200     -5.78621         0.000336      0.000000     -0.000054
     13.99306    -21.47572    -12.39901        -0.001146      0.000002      0.000246
     13.99306    -15.74886     -2.47980        -0.000989      0.000103     -0.000168
     13.99306    -18.61229     -7.43941        -0.001222      0.000000      0.000070
     13.99306    -10.02200    -12.39901        -0.000878      0.000000     -0.000079
     13.99306     -4.29514     -2.47980        -0.000989     -0.000103     -0.000168
     13.99306     -7.15857     -7.43941         0.001597     -0.001514      0.001029
     13.99306    -15.74886    -12.39901        -0.001146     -0.000002      0.000246
     13.99306    -10.02200     -2.47980        -0.001376      0.000000      0.000573
     13.99306    -12.88543     -7.43941         0.001597      0.001514      0.001029
     16.34180    -24.33915    -14.05221        -0.001079     -0.000367      0.000223
     16.34180    -18.61229     -4.13300        -0.001318      0.000000      0.000213
     16.34180    -21.47572     -9.09261        -0.000372     -0.000215      0.000164
     16.34180    -12.88543    -14.05221        -0.001079      0.000367      0.000223
     16.34180     -7.15857     -4.13300         0.001077     -0.000436      0.000543
     16.34180    -10.02200     -9.09261         0.002460      0.000000     -0.001622
     16.34180    -18.61229    -14.05221        -0.000560      0.000000     -0.000310
     16.34180    -12.88543     -4.13300         0.001077      0.000436      0.000543
     16.34180    -15.74886     -9.09261        -0.000372      0.000215      0.000164
      2.36204     -8.59029     -6.61281        -0.002429     -0.001626     -0.000034
      2.36204    -11.45372    -11.57241         0.000054      0.000170      0.000003
      2.36204     -5.72686     -1.65320        -0.000337      0.000074      0.000818
      2.36204    -14.31714     -6.61281         0.000786      0.000481      0.000441
      2.36204    -17.18057    -11.57241        -0.000634     -0.000032      0.000242
      2.36204    -11.45372     -1.65320         0.000374     -0.000401      0.000347
      2.36204    -20.04400     -6.61281        -0.000426      0.000767     -0.000045
      2.36204    -22.90743    -11.57241         0.000033      0.000302     -0.000737
      2.36204    -17.18057     -1.65320        -0.000550      0.000132      0.000125
      4.71078    -11.45372     -8.26601        -0.002288      0.001227      0.001134
      4.71078    -14.31714    -13.22561        -0.001759     -0.000093     -0.000168
      4.71078     -8.59029     -3.30640        -0.001264     -0.000419     -0.001194
      4.71078    -17.18057     -8.26601        -0.001317     -0.000490     -0.000016
      4.71078    -20.04400    -13.22561        -0.001287     -0.000022     -0.000106
      4.71078    -14.31714     -3.30640        -0.000721     -0.000307      0.000383
      4.71078     -5.72686     -8.26601         0.000070     -0.000381      0.000331
      4.71078     -8.59029    -13.22561        -0.001149      0.000043     -0.000114
      4.71078     -2.86343     -3.30640        -0.001453     -0.000071     -0.000044
      7.01272    -14.31714     -9.91921         0.001027     -0.000352     -0.000275
      7.01272     -8.59029      0.00000         0.000570     -0.000146      0.000317
      7.01272    -11.45372     -4.95960         0.000477      0.001139     -0.001051
      7.01272    -20.04400     -9.91921         0.000250     -0.000372     -0.000072
      7.01272    -14.31714      0.00000         0.000772      0.000049     -0.000008
      7.01272    -17.18057     -4.95960         0.000595     -0.000057     -0.000071
      7.01272     -8.59029     -9.91921         0.000523     -0.000743      0.001155
      7.01272     -2.86343      0.00000         0.000743      0.000215      0.000046
      7.01272     -5.72686     -4.95960         0.000949     -0.000240     -0.000194
      9.35192    -17.18057    -11.57241         0.001043      0.000140      0.000235
      9.35192    -11.45372     -1.65320         0.000857     -0.000287      0.000343
      9.35192    -14.31714     -6.61281        -0.000102      0.000298     -0.000139
      9.35192    -22.90743    -11.57241         0.001275     -0.000024     -0.000104
      9.35192    -17.18057     -1.65320         0.000866      0.000099     -0.000072
      9.35192    -20.04400     -6.61281         0.001254     -0.000137     -0.000042
      9.35192    -11.45372    -11.57241         0.000838     -0.000271     -0.000189
      9.35192     -5.72686     -1.65320         0.001282      0.000013      0.000345
      9.35192     -8.59029     -6.61281         0.003341     -0.000460     -0.000011
     11.69112    -20.04400    -13.22561         0.001345      0.000189     -0.000196
     11.69112    -14.31714     -3.30640         0.001021     -0.000383      0.000577
     11.69112    -17.18057     -8.26601         0.000917      0.000639      0.000396
     11.69112     -8.59029    -13.22561         0.001349      0.000043      0.000268
     11.69112     -2.86343     -3.30640         0.001295     -0.000435     -0.000103
     11.69112     -5.72686     -8.26601         0.000745      0.000628     -0.000083
     11.69112    -14.31714    -13.22561         0.001072      0.000316      0.000343
     11.69112     -8.59029     -3.30640         0.001639     -0.000582     -0.000466
     11.69112    -11.45372     -8.26601         0.002241      0.000576      0.000651
     13.99306    -14.31714      0.00000        -0.001257      0.000178     -0.000390
     13.99306    -17.18057     -4.95960        -0.001416      0.000707      0.000195
     13.99306    -20.04400     -9.91921        -0.001046      0.000013     -0.000144
     13.99306     -2.86343      0.00000        -0.000861      0.000132      0.000134
     13.99306     -5.72686     -4.95960        -0.000522      0.000714      0.000062
     13.99306     -8.59029     -9.91921        -0.000782     -0.000225      0.000799
     13.99306     -8.59029      0.00000        -0.000784      0.000083     -0.000189
     13.99306    -11.45372     -4.95960        -0.002733     -0.000492     -0.000328
     13.99306    -14.31714     -9.91921        -0.000794     -0.000229     -0.000519
     16.34180    -17.18057     -1.65320        -0.000851     -0.000012      0.000135
     16.34180    -20.04400     -6.61281        -0.001070     -0.000908      0.000019
     16.34180    -22.90743    -11.57241        -0.000743     -0.000218      0.000336
     16.34180     -5.72686     -1.65320        -0.000601     -0.000208     -0.000197
     16.34180     -8.59029     -6.61281        -0.041342      0.012054      0.000921
     16.34180    -11.45372    -11.57241        -0.000192      0.000163      0.000137
     16.34180    -11.45372     -1.65320        -0.000191     -0.000155      0.000256
     16.34180    -14.31714     -6.61281         0.000278     -0.000859     -0.000403
     16.34180    -17.18057    -11.57241        -0.000799      0.000081     -0.000023
      2.36204    -10.02200     -4.13300        -0.001214      0.000000     -0.001810
      2.36204    -12.88543     -9.09261         0.000453      0.001602      0.000601
      2.36204    -15.74886    -14.05221        -0.000662      0.000417     -0.000101
      2.36204    -15.74886     -4.13300         0.000244     -0.000657      0.000428
      2.36204    -18.61229     -9.09261        -0.000816      0.000000      0.000136
      2.36204    -21.47572    -14.05221        -0.000662     -0.000417     -0.000101
      2.36204     -4.29514     -4.13300         0.000244      0.000657      0.000428
      2.36204     -7.15857     -9.09261         0.000453     -0.001602      0.000601
      2.36204    -10.02200    -14.05221        -0.000202      0.000000     -0.000141
      4.71078    -12.88543     -5.78621        -0.001436      0.001750     -0.000124
      4.71078    -15.74886    -10.74581        -0.001298     -0.000632     -0.000309
      4.71078    -10.02200     -0.82660        -0.000392      0.000000      0.000617
      4.71078    -18.61229     -5.78621        -0.001663      0.000000     -0.000091
      4.71078    -21.47572    -10.74581        -0.001298      0.000632     -0.000309
      4.71078    -15.74886     -0.82660        -0.001263      0.000096      0.000165
      4.71078     -7.15857     -5.78621        -0.001436     -0.001750     -0.000124
      4.71078    -10.02200    -10.74581        -0.001228      0.000000      0.000708
      4.71078     -4.29514     -0.82660        -0.001263     -0.000096      0.000165
      7.01272    -15.74886     -7.43941         0.000894     -0.000553     -0.000080
      7.01272    -18.61229    -12.39901         0.000795      0.000000     -0.000394
      7.01272    -12.88543     -2.47980         0.000758     -0.000124      0.000276
      7.01272    -21.47571     -7.43941         0.000894      0.000553     -0.000080
      7.01272    -24.33914    -12.39901         0.000448      0.000052     -0.000258
      7.01272    -18.61228     -2.47980         0.000747      0.000000      0.000082
      7.01272    -10.02200     -7.43941         0.001201      0.000000      0.000431
      7.01272    -12.88543    -12.39901         0.000448     -0.000052     -0.000258
      7.01272     -7.15857     -2.47980         0.000758      0.000124      0.000276
      9.35192    -18.61229     -9.09261         0.001701      0.000000      0.000253
      9.35192    -21.47572    -14.05221         0.001105     -0.000027     -0.000310
      9.35192    -15.74886     -4.13300         0.000960     -0.000549      0.000029
      9.35192     -7.15857     -9.09261         0.000064     -0.000737      0.000544
      9.35192    -10.02200    -14.05221         0.000673      0.000000      0.000102
      9.35192     -4.29514     -4.13300         0.000960      0.000549      0.000029
      9.35192    -12.88543     -9.09261         0.000064      0.000737      0.000544
      9.35192    -15.74886    -14.05221         0.001105      0.000027     -0.000310
      9.35192    -10.02200     -4.13300         0.001839      0.000000     -0.001007
     11.69112    -21.47572    -10.74581         0.001354     -0.000264      0.000212
     11.69112    -15.74886     -0.82660         0.001103      0.000148     -0.000086
     11.69112    -18.61229     -5.78621         0.001043      0.000000     -0.000076
     11.69112    -10.02200    -10.74581         0.000566      0.000000      0.000255
     11.69112     -4.29514     -0.82660         0.001103     -0.000148     -0.000086
     11.69112     -7.15857     -5.78621         0.002359     -0.001159     -0.000428
     11.69112    -15.74886    -10.74581         0.001354      0.000264      0.000212
     11.69112    -10.02200     -0.82660         0.001160      0.000000      0.000254
     11.69112    -12.88543     -5.78621         0.002359      0.001159     -0.000428
     13.99306    -24.33914    -12.39901        -0.000886     -0.000351      0.000556
     13.99306    -18.61228     -2.47980        -0.001023      0.000000      0.000080
     13.99306    -21.47571     -7.43941        -0.000258      0.000047      0.000478
     13.99306    -12.88543    -12.39901        -0.000886      0.000351      0.000556
     13.99306     -7.15857     -2.47980        -0.001072      0.000127      0.000562
     13.99306    -10.02200     -7.43941        -0.011401      0.000000     -0.000975
     13.99306    -18.61229    -12.39901        -0.000893      0.000000      0.000170
     13.99306    -12.88543     -2.47980        -0.001072     -0.000127      0.000562
     13.99306    -15.74886     -7.43941        -0.000258     -0.000047      0.000478
     16.34180    -10.02200    -14.05221        -0.000559      0.000000      0.000074
     16.34180     -4.29514     -4.13300        -0.000384     -0.000302     -0.000051
     16.34180     -7.15857     -9.09261         0.001001      0.000476     -0.000030
     16.34180    -15.74886    -14.05221        -0.001018     -0.000350     -0.000099
     16.34180    -10.02200     -4.13300         0.001710      0.000000     -0.000273
     16.34180    -12.88543     -9.09261         0.001001     -0.000476     -0.000030
     16.34180    -21.47572    -14.05221        -0.001018      0.000350     -0.000099
     16.34180    -15.74886     -4.13300        -0.000384      0.000302     -0.000051
     16.34180    -18.61229     -9.09261        -0.001111      0.000000     -0.000160
     20.04000    -10.02200     -7.16000         0.041783     -0.000000     -4.050600
     20.04000    -10.02200     -6.06300         0.039226      0.000000      4.037204
 -----------------------------------------------------------------------------------
    total drift:                                0.113406      0.000147     -0.012118


--------------------------------------------------------------------------------------------------------



  FREE ENERGIE OF THE ION-ELECTRON SYSTEM (eV)
  ---------------------------------------------------
  free  energy   TOTEN  =      -935.75259834 eV

  energy  without entropy=     -935.69699458  energy(sigma->0) =     -935.72479646
 


--------------------------------------------------------------------------------------------------------


    POTLOK:  cpu time    1.0398: real time    1.0491


--------------------------------------------------------------------------------------------------------


     LOOP+:  cpu time  696.2439: real time  785.8552
    4ORBIT:  cpu time    0.0000: real time    0.0000

 total amount of memory used by VASP MPI-rank0   652136. kBytes
=======================================================================

   base      :      30000. kBytes
   nonlr-proj:      89915. kBytes
   fftplans  :      40601. kBytes
   grid      :      95147. kBytes
   one-center:       3950. kBytes
   wavefun   :     392523. kBytes
 
  
  
 General timing and accounting informations for this job:
 ========================================================
  
                  Total CPU time used (sec):      713.753
                            User time (sec):       72.547
                          System time (sec):      641.207
                         Elapsed time (sec):      807.393
  
                   Maximum memory used (kb):     1001500.
                   Average memory used (kb):           0.
  
                          Minor page faults:     25505964
                          Major page faults:           47
                 Voluntary context switches:        17453
