/store/Terry_project/NiAlN_EDIP_fitting_DFT/DATA/N4-2/N4_2_iter_last_lmp.data (written by ASE) 

4 	 atoms 
1  atom types
0.0                    14.5  xlo xhi
0.0                    14.5  ylo yhi
0.0                    14.5  zlo zhi


Atoms 

     1   1                       0                       0                       0
     2   1      1.1000000000000001                       0                       0
     3   1                       2                       0                       0
     4   1      3.1000000000000001                       0                       0
