   4   4   0   0
  0.7621562E+03  0.1450000E-08  0.1450000E-08  0.1450000E-08  0.5000000E-15
  1.000000000000000E-004
  CAR 
 NiAl                                    
      2.20135533    -35.49046254  301     -4.94438514      1.00000000
    -35.490  0.0000E+00  0.0000E+00
    -35.365  0.0000E+00  0.0000E+00
    -35.239  0.0000E+00  0.0000E+00
    -35.114  0.0000E+00  0.0000E+00
    -34.988  0.0000E+00  0.0000E+00
    -34.862  0.0000E+00  0.0000E+00
    -34.737  0.0000E+00  0.0000E+00
    -34.611  0.0000E+00  0.0000E+00
    -34.485  0.0000E+00  0.0000E+00
    -34.360  0.0000E+00  0.0000E+00
    -34.234  0.0000E+00  0.0000E+00
    -34.108  0.0000E+00  0.0000E+00
    -33.983  0.4826E-07  0.6063E-08
    -33.857  0.1889E+00  0.2373E-01
    -33.732  0.1417E+02  0.1804E+01
    -33.606  0.1562E+01  0.2000E+01
    -33.480  0.1003E-04  0.2000E+01
    -33.355  0.0000E+00  0.2000E+01
    -33.229  0.0000E+00  0.2000E+01
    -33.103  0.0000E+00  0.2000E+01
    -32.978  0.0000E+00  0.2000E+01
    -32.852  0.0000E+00  0.2000E+01
    -32.726  0.0000E+00  0.2000E+01
    -32.601  0.0000E+00  0.2000E+01
    -32.475  0.0000E+00  0.2000E+01
    -32.349  0.0000E+00  0.2000E+01
    -32.224  0.0000E+00  0.2000E+01
    -32.098  0.0000E+00  0.2000E+01
    -31.973  0.0000E+00  0.2000E+01
    -31.847  0.0000E+00  0.2000E+01
    -31.721  0.0000E+00  0.2000E+01
    -31.596  0.0000E+00  0.2000E+01
    -31.470  0.0000E+00  0.2000E+01
    -31.344  0.0000E+00  0.2000E+01
    -31.219  0.0000E+00  0.2000E+01
    -31.093  0.0000E+00  0.2000E+01
    -30.967  0.0000E+00  0.2000E+01
    -30.842  0.0000E+00  0.2000E+01
    -30.716  0.0000E+00  0.2000E+01
    -30.591  0.0000E+00  0.2000E+01
    -30.465  0.0000E+00  0.2000E+01
    -30.339  0.0000E+00  0.2000E+01
    -30.214  0.0000E+00  0.2000E+01
    -30.088  0.0000E+00  0.2000E+01
    -29.962  0.0000E+00  0.2000E+01
    -29.837  0.0000E+00  0.2000E+01
    -29.711  0.0000E+00  0.2000E+01
    -29.585  0.0000E+00  0.2000E+01
    -29.460  0.0000E+00  0.2000E+01
    -29.334  0.0000E+00  0.2000E+01
    -29.208  0.0000E+00  0.2000E+01
    -29.083  0.0000E+00  0.2000E+01
    -28.957  0.0000E+00  0.2000E+01
    -28.832  0.0000E+00  0.2000E+01
    -28.706  0.0000E+00  0.2000E+01
    -28.580  0.0000E+00  0.2000E+01
    -28.455  0.0000E+00  0.2000E+01
    -28.329  0.0000E+00  0.2000E+01
    -28.203  0.0000E+00  0.2000E+01
    -28.078  0.4181E-11  0.2000E+01
    -27.952  0.1969E-02  0.2000E+01
    -27.826  0.7252E+01  0.2911E+01
    -27.701  0.8660E+01  0.3999E+01
    -27.575  0.4591E-02  0.4000E+01
    -27.450  0.2098E-10  0.4000E+01
    -27.324  0.0000E+00  0.4000E+01
    -27.198  0.0000E+00  0.4000E+01
    -27.073  0.0000E+00  0.4000E+01
    -26.947  0.0000E+00  0.4000E+01
    -26.821  0.0000E+00  0.4000E+01
    -26.696  0.0000E+00  0.4000E+01
    -26.570  0.0000E+00  0.4000E+01
    -26.444  0.0000E+00  0.4000E+01
    -26.319  0.0000E+00  0.4000E+01
    -26.193  0.0000E+00  0.4000E+01
    -26.068  0.0000E+00  0.4000E+01
    -25.942  0.0000E+00  0.4000E+01
    -25.816  0.0000E+00  0.4000E+01
    -25.691  0.0000E+00  0.4000E+01
    -25.565  0.0000E+00  0.4000E+01
    -25.439  0.0000E+00  0.4000E+01
    -25.314  0.0000E+00  0.4000E+01
    -25.188  0.0000E+00  0.4000E+01
    -25.062  0.0000E+00  0.4000E+01
    -24.937  0.0000E+00  0.4000E+01
    -24.811  0.0000E+00  0.4000E+01
    -24.685  0.0000E+00  0.4000E+01
    -24.560  0.0000E+00  0.4000E+01
    -24.434  0.0000E+00  0.4000E+01
    -24.309  0.0000E+00  0.4000E+01
    -24.183  0.0000E+00  0.4000E+01
    -24.057  0.0000E+00  0.4000E+01
    -23.932  0.0000E+00  0.4000E+01
    -23.806  0.0000E+00  0.4000E+01
    -23.680  0.0000E+00  0.4000E+01
    -23.555  0.0000E+00  0.4000E+01
    -23.429  0.0000E+00  0.4000E+01
    -23.303  0.0000E+00  0.4000E+01
    -23.178  0.0000E+00  0.4000E+01
    -23.052  0.0000E+00  0.4000E+01
    -22.927  0.0000E+00  0.4000E+01
    -22.801  0.0000E+00  0.4000E+01
    -22.675  0.0000E+00  0.4000E+01
    -22.550  0.0000E+00  0.4000E+01
    -22.424  0.0000E+00  0.4000E+01
    -22.298  0.0000E+00  0.4000E+01
    -22.173  0.0000E+00  0.4000E+01
    -22.047  0.0000E+00  0.4000E+01
    -21.921  0.0000E+00  0.4000E+01
    -21.796  0.0000E+00  0.4000E+01
    -21.670  0.0000E+00  0.4000E+01
    -21.544  0.0000E+00  0.4000E+01
    -21.419  0.0000E+00  0.4000E+01
    -21.293  0.0000E+00  0.4000E+01
    -21.168  0.0000E+00  0.4000E+01
    -21.042  0.0000E+00  0.4000E+01
    -20.916  0.0000E+00  0.4000E+01
    -20.791  0.0000E+00  0.4000E+01
    -20.665  0.0000E+00  0.4000E+01
    -20.539  0.0000E+00  0.4000E+01
    -20.414  0.0000E+00  0.4000E+01
    -20.288  0.0000E+00  0.4000E+01
    -20.162  0.0000E+00  0.4000E+01
    -20.037  0.0000E+00  0.4000E+01
    -19.911  0.0000E+00  0.4000E+01
    -19.786  0.0000E+00  0.4000E+01
    -19.660  0.0000E+00  0.4000E+01
    -19.534  0.0000E+00  0.4000E+01
    -19.409  0.0000E+00  0.4000E+01
    -19.283  0.0000E+00  0.4000E+01
    -19.157  0.0000E+00  0.4000E+01
    -19.032  0.0000E+00  0.4000E+01
    -18.906  0.0000E+00  0.4000E+01
    -18.780  0.0000E+00  0.4000E+01
    -18.655  0.0000E+00  0.4000E+01
    -18.529  0.0000E+00  0.4000E+01
    -18.404  0.0000E+00  0.4000E+01
    -18.278  0.0000E+00  0.4000E+01
    -18.152  0.0000E+00  0.4000E+01
    -18.027  0.0000E+00  0.4000E+01
    -17.901  0.0000E+00  0.4000E+01
    -17.775  0.0000E+00  0.4000E+01
    -17.650  0.0000E+00  0.4000E+01
    -17.524  0.0000E+00  0.4000E+01
    -17.398  0.0000E+00  0.4000E+01
    -17.273  0.0000E+00  0.4000E+01
    -17.147  0.0000E+00  0.4000E+01
    -17.021  0.0000E+00  0.4000E+01
    -16.896  0.0000E+00  0.4000E+01
    -16.770  0.0000E+00  0.4000E+01
    -16.645  0.1464E-11  0.4000E+01
    -16.519  0.1123E-02  0.4000E+01
    -16.393  0.6370E+01  0.4800E+01
    -16.268  0.9540E+01  0.5999E+01
    -16.142  0.7671E-02  0.6000E+01
    -16.016  0.3329E+00  0.6042E+01
    -15.891  0.1456E+02  0.7871E+01
    -15.765  0.1026E+01  0.8000E+01
    -15.639  0.3363E-05  0.8000E+01
    -15.514  0.3667E+00  0.8046E+01
    -15.388  0.1460E+02  0.9881E+01
    -15.263  0.9474E+00  0.1000E+02
    -15.137  0.2531E-05  0.1000E+02
    -15.011  0.0000E+00  0.1000E+02
    -14.886  0.0000E+00  0.1000E+02
    -14.760  0.0000E+00  0.1000E+02
    -14.634  0.0000E+00  0.1000E+02
    -14.509  0.0000E+00  0.1000E+02
    -14.383  0.0000E+00  0.1000E+02
    -14.257  0.0000E+00  0.1000E+02
    -14.132  0.0000E+00  0.1000E+02
    -14.006  0.0000E+00  0.1000E+02
    -13.880  0.0000E+00  0.1000E+02
    -13.755  0.0000E+00  0.1000E+02
    -13.629  0.0000E+00  0.1000E+02
    -13.504  0.0000E+00  0.1000E+02
    -13.378  0.0000E+00  0.1000E+02
    -13.252  0.0000E+00  0.1000E+02
    -13.127  0.0000E+00  0.1000E+02
    -13.001  0.0000E+00  0.1000E+02
    -12.875  0.0000E+00  0.1000E+02
    -12.750  0.0000E+00  0.1000E+02
    -12.624  0.0000E+00  0.1000E+02
    -12.498  0.0000E+00  0.1000E+02
    -12.373  0.0000E+00  0.1000E+02
    -12.247  0.0000E+00  0.1000E+02
    -12.122  0.0000E+00  0.1000E+02
    -11.996  0.0000E+00  0.1000E+02
    -11.870  0.0000E+00  0.1000E+02
    -11.745  0.5238E-10  0.1000E+02
    -11.619  0.7351E-02  0.1000E+02
    -11.493  0.9466E+01  0.1119E+02
    -11.368  0.6444E+01  0.1200E+02
    -11.242  0.1190E-02  0.1200E+02
    -11.116  0.1676E+01  0.1221E+02
    -10.991  0.1407E+02  0.1398E+02
    -10.865  0.1700E+00  0.1400E+02
    -10.740  0.1285E-04  0.1400E+02
    -10.614  0.1701E+01  0.1421E+02
    -10.488  0.1405E+02  0.1598E+02
    -10.363  0.1662E+00  0.1600E+02
    -10.237  0.9997E-07  0.1600E+02
    -10.111  0.2135E+00  0.1603E+02
     -9.986  0.1427E+02  0.1782E+02
     -9.860  0.1436E+01  0.1800E+02
     -9.734  0.7898E-05  0.1800E+02
     -9.609  0.0000E+00  0.1800E+02
     -9.483  0.0000E+00  0.1800E+02
     -9.357  0.0000E+00  0.1800E+02
     -9.232  0.0000E+00  0.1800E+02
     -9.106  0.0000E+00  0.1800E+02
     -8.981  0.0000E+00  0.1800E+02
     -8.855  0.0000E+00  0.1800E+02
     -8.729  0.0000E+00  0.1800E+02
     -8.604  0.0000E+00  0.1800E+02
     -8.478  0.0000E+00  0.1800E+02
     -8.352  0.0000E+00  0.1800E+02
     -8.227  0.0000E+00  0.1800E+02
     -8.101  0.0000E+00  0.1800E+02
     -7.975  0.0000E+00  0.1800E+02
     -7.850  0.0000E+00  0.1800E+02
     -7.724  0.0000E+00  0.1800E+02
     -7.599  0.0000E+00  0.1800E+02
     -7.473  0.0000E+00  0.1800E+02
     -7.347  0.0000E+00  0.1800E+02
     -7.222  0.0000E+00  0.1800E+02
     -7.096  0.0000E+00  0.1800E+02
     -6.970  0.0000E+00  0.1800E+02
     -6.845  0.0000E+00  0.1800E+02
     -6.719  0.0000E+00  0.1800E+02
     -6.593  0.0000E+00  0.1800E+02
     -6.468  0.0000E+00  0.1800E+02
     -6.342  0.0000E+00  0.1800E+02
     -6.216  0.0000E+00  0.1800E+02
     -6.091  0.0000E+00  0.1800E+02
     -5.965  0.0000E+00  0.1800E+02
     -5.840  0.0000E+00  0.1800E+02
     -5.714  0.0000E+00  0.1800E+02
     -5.588  0.0000E+00  0.1800E+02
     -5.463  0.2464E-11  0.1800E+02
     -5.337  0.1485E-02  0.1800E+02
     -5.211  0.6802E+01  0.1885E+02
     -5.086  0.9109E+01  0.2000E+02
     -4.960  0.5968E-02  0.2000E+02
     -4.834  0.3487E-10  0.2000E+02
     -4.709  0.0000E+00  0.2000E+02
     -4.583  0.0000E+00  0.2000E+02
     -4.458  0.0000E+00  0.2000E+02
     -4.332  0.0000E+00  0.2000E+02
     -4.206  0.0000E+00  0.2000E+02
     -4.081  0.0000E+00  0.2000E+02
     -3.955  0.2765E-10  0.2000E+02
     -3.829  0.5296E-02  0.2000E+02
     -3.704  0.8904E+01  0.2112E+02
     -3.578  0.7008E+01  0.2200E+02
     -3.452  0.1691E-02  0.2200E+02
     -3.327  0.3142E-11  0.2200E+02
     -3.201  0.0000E+00  0.2200E+02
     -3.075  0.0000E+00  0.2200E+02
     -2.950  0.0000E+00  0.2200E+02
     -2.824  0.0000E+00  0.2200E+02
     -2.699  0.0000E+00  0.2200E+02
     -2.573  0.0000E+00  0.2200E+02
     -2.447  0.0000E+00  0.2200E+02
     -2.322  0.0000E+00  0.2200E+02
     -2.196  0.0000E+00  0.2200E+02
     -2.070  0.0000E+00  0.2200E+02
     -1.945  0.0000E+00  0.2200E+02
     -1.819  0.0000E+00  0.2200E+02
     -1.693  0.1102E-05  0.2200E+02
     -1.568  0.6893E+00  0.2209E+02
     -1.442  0.1471E+02  0.2393E+02
     -1.317  0.5235E+00  0.2400E+02
     -1.191  0.5496E-06  0.2400E+02
     -1.065  0.0000E+00  0.2400E+02
     -0.940  0.0000E+00  0.2400E+02
     -0.814  0.0000E+00  0.2400E+02
     -0.688  0.0000E+00  0.2400E+02
     -0.563  0.5306E-05  0.2400E+02
     -0.437  0.1245E+01  0.2416E+02
     -0.311  0.1442E+02  0.2597E+02
     -0.186  0.7876E+01  0.2696E+02
     -0.060  0.8296E+01  0.2800E+02
      0.065  0.3704E-02  0.2800E+02
      0.191  0.1037E-04  0.2800E+02
      0.317  0.1581E+01  0.2820E+02
      0.442  0.2509E+02  0.3135E+02
      0.568  0.3677E+02  0.3597E+02
      0.694  0.2312E+00  0.3600E+02
      0.819  0.4917E-07  0.3600E+02
      0.945  0.0000E+00  0.3600E+02
      1.071  0.0000E+00  0.3600E+02
      1.196  0.0000E+00  0.3600E+02
      1.322  0.0000E+00  0.3600E+02
      1.448  0.0000E+00  0.3600E+02
      1.573  0.0000E+00  0.3600E+02
      1.699  0.0000E+00  0.3600E+02
      1.824  0.0000E+00  0.3600E+02
      1.950  0.0000E+00  0.3600E+02
      2.076  0.0000E+00  0.3600E+02
      2.201  0.0000E+00  0.3600E+02
