    4    4    1    1
  0.7621562E+03  0.1450000E-08  0.1450000E-08  0.1450000E-08  0.5000000E-15
  1.000000000000000E-004
  CAR 
 NiAl                                    
     20      1     18
 
  0.0000000E+00  0.0000000E+00  0.0000000E+00  0.1000000E+01
    1      -33.777198   1.000000
    2      -27.822523   1.000000
    3      -16.384340   1.000000
    4      -15.944400   1.000000
    5      -15.443273   1.000000
    6      -11.501851   1.000000
    7      -11.072153   1.000000
    8      -10.569901   1.000000
    9      -10.033026   1.000000
   10       -5.204901   1.000000
   11       -3.709004   0.000000
   12       -1.507241   0.000000
   13       -0.386966   0.000000
   14       -0.183896   0.000000
   15        0.362218   0.000000
   16        0.459108   0.000000
   17        0.464001   0.000000
   18        0.488091   0.000000
