 vasp.5.4.4.18Apr17-6-g9f103f2a35 (build May 02 2017 15:33:50) complex          
  
 executed on Intel-16.0.3.210-OMP date 2018.07.08  18:59:25
 running on    6 total cores
 distrk:  each k-point on    6 cores,    1 groups
 distr:  one band on NCORES_PER_BAND=   1 cores,    6 groups


--------------------------------------------------------------------------------------------------------


 INCAR:
 POTCAR:    PAW_PBE N 08Apr2002                   

 ----------------------------------------------------------------------------- 
|                                                                             |
|           W    W    AA    RRRRR   N    N  II  N    N   GGGG   !!!           |
|           W    W   A  A   R    R  NN   N  II  NN   N  G    G  !!!           |
|           W    W  A    A  R    R  N N  N  II  N N  N  G       !!!           |
|           W WW W  AAAAAA  RRRRR   N  N N  II  N  N N  G  GGG   !            |
|           WW  WW  A    A  R   R   N   NN  II  N   NN  G    G                |
|           W    W  A    A  R    R  N    N  II  N    N   GGGG   !!!           |
|                                                                             |
|      For optimal performance we recommend to set                            |
|        NCORE= 4 - approx SQRT( number of cores)                             |
|      NCORE specifies how many cores store one orbital (NPAR=cpu/NCORE).     |
|      This setting can  greatly improve the performance of VASP for DFT.     |
|      The default,   NCORE=1            might be grossly inefficient         |
|      on modern multi-core architectures or massively parallel machines.     |
|      Do your own testing !!!!                                               |
|      Unfortunately you need to use the default for GW and RPA calculations. |
|      (for HF NCORE is supported but not extensively tested yet)             |
|                                                                             |
 ----------------------------------------------------------------------------- 

 POTCAR:    PAW_PBE N 08Apr2002                   
   VRHFIN =N: s2p3                                                              
   LEXCH  = PE                                                                  
   EATOM  =   264.5486 eV,   19.4438 Ry                                         
                                                                                
   TITEL  = PAW_PBE N 08Apr2002                                                 
   LULTRA =        F    use ultrasoft PP ?                                      
   IUNSCR =        1    unscreen: 0-lin 1-nonlin 2-no                           
   RPACOR =    1.200    partial core radius                                     
   POMASS =   14.001; ZVAL   =    5.000    mass and valenz                      
   RCORE  =    1.500    outmost cutoff radius                                   
   RWIGS  =    1.400; RWIGS  =    0.741    wigner-seitz radius (au A)           
   ENMAX  =  400.000; ENMIN  =  300.000 eV                                      
   ICORE  =        2    local potential                                         
   LCOR   =        T    correct aug charges                                     
   LPAW   =        T    paw PP                                                  
   EAUG   =  627.112                                                            
   DEXC   =    0.000                                                            
   RMAX   =    1.529    core radius for proj-oper                               
   RAUG   =    1.300    factor for augmentation sphere                          
   RDEP   =    1.514    radius for radial grids                                 
   RDEPT  =    1.338    core radius for aug-charge                              
                                                                                
   Atomic configuration                                                         
    4 entries                                                                   
     n  l   j            E        occ.                                          
     1  0  0.50      -384.7179   2.0000                                         
     2  0  0.50       -18.5828   2.0000                                         
     2  1  0.50        -7.0898   3.0000                                         
     3  2  1.50        -6.8029   0.0000                                         
   Description                                                                  
     l       E           TYP  RCUT    TYP  RCUT                                 
     0    -18.5828119     23  1.200                                             
     0    -13.5018863     23  1.200                                             
     1     -7.0897853     23  1.500                                             
     1      9.5240782     23  1.500                                             
     2     -6.8029130      7  1.500                                             
  local pseudopotential read in
  partial core-charges read in
  partial kinetic energy density read in
  atomic valenz-charges read in
  non local Contribution for L=           0  read in
    real space projection operators read in
  non local Contribution for L=           0  read in
    real space projection operators read in
  non local Contribution for L=           1  read in
    real space projection operators read in
  non local Contribution for L=           1  read in
    real space projection operators read in
    PAW grid and wavefunctions read in
 
   number of l-projection  operators is LMAX  =           4
   number of lm-projection operators is LMMAX =           8
 

 ----------------------------------------------------------------------------- 
|                                                                             |
|  ADVICE TO THIS USER RUNNING 'VASP/VAMP'   (HEAR YOUR MASTER'S VOICE ...):  |
|                                                                             |
|      You have a (more or less) 'small supercell' and for smaller cells      |
|      it is recommended  to use the reciprocal-space projection scheme!      |
|      The real space optimization is not  efficient for small cells and it   |
|      is also less accurate ...                                              |
|      Therefore set LREAL=.FALSE. in the  INCAR file                         |
|                                                                             |
 ----------------------------------------------------------------------------- 

 Optimization of the real space projectors (new method)

 maximal supplied QI-value         = 25.13
 optimisation between [QCUT,QGAM] = [  8.80, 17.59] = [ 21.67, 86.68] Ry 
 Optimized for a Real-space Cutoff    2.14 Angstroem

   l    n(q)    QCUT    max X(q) W(low)/X(q) W(high)/X(q)  e(spline) 
   0     11     8.797    79.467    0.70E-04    0.19E-04    0.19E-05
   0     11     8.797    66.151    0.68E-04    0.18E-04    0.19E-05
   1     11     8.797     6.738    0.26E-03    0.11E-02    0.73E-05
   1     11     8.797     5.013    0.25E-03    0.11E-02    0.72E-05
  PAW_PBE N 08Apr2002                   :
 energy of atom  1       EATOM= -264.5486
 kinetic energy error for atom=    0.6882 (will be added to EATOM!!)
 
 
 POSCAR: New structure                           
  positions in cartesian coordinates
  No initial velocities read in
 exchange correlation table for  LEXCH =        8
   RHO(1)=    0.500       N(1)  =     2000
   RHO(2)=  100.500       N(2)  =     4000
 


--------------------------------------------------------------------------------------------------------


 ion  position               nearest neighbor table
   1  0.000  0.000  0.000-   2 1.10   3 1.66   4 1.66
   2  0.076  0.000  0.000-   1 1.10   3 1.69   4 1.69
   3  0.034  0.966  0.103-   4 1.00   1 1.66   2 1.69
   4  0.034  0.034  0.103-   3 1.00   1 1.66   2 1.69
 
  LATTYP: Found a simple cubic cell.
 ALAT       =    14.5000000000
  
  Lattice vectors:
  
 A1 = (  14.5000000000,   0.0000000000,   0.0000000000)
 A2 = (   0.0000000000,  14.5000000000,   0.0000000000)
 A3 = (   0.0000000000,   0.0000000000,  14.5000000000)


Analysis of symmetry for initial positions (statically):
=====================================================================
 Subroutine PRICEL returns:
 Original cell was already a primitive cell.
 

 Routine SETGRP: Setting up the symmetry group for a 
 simple cubic supercell.


 Subroutine GETGRP returns: Found  2 space group operations
 (whereof  2 operations were pure point group operations)
 out of a pool of 48 trial point group operations.


The static configuration has the point symmetry C_1h.


Analysis of symmetry for dynamics (positions and initial velocities):
=====================================================================
 Subroutine PRICEL returns:
 Original cell was already a primitive cell.
 

 Routine SETGRP: Setting up the symmetry group for a 
 simple cubic supercell.


 Subroutine GETGRP returns: Found  2 space group operations
 (whereof  2 operations were pure point group operations)
 out of a pool of 48 trial point group operations.


The dynamic configuration has the point symmetry C_1h.


 Subroutine INISYM returns: Found  2 space group operations
 (whereof  2 operations are pure point group operations),
 and found     1 'primitive' translations

 
 
 KPOINTS: Automatic generation                    

Automatic generation of k-mesh.
Space group operators:
 irot       det(A)        alpha          n_x          n_y          n_z        tau_x        tau_y        tau_z
    1     1.000000     0.000000     1.000000     0.000000     0.000000     0.000000     0.000000     0.000000
    2    -1.000000   180.000000     0.000000     1.000000     0.000000     0.000000     0.000000     0.000000
 
 Subroutine IBZKPT returns following result:
 ===========================================
 
 Found      1 irreducible k-points:
 
 Following reciprocal coordinates:
            Coordinates               Weight
  0.000000  0.000000  0.000000      1.000000
 
 Following cartesian coordinates:
            Coordinates               Weight
  0.000000  0.000000  0.000000      1.000000
 


--------------------------------------------------------------------------------------------------------




 Dimension of arrays:
   k-points           NKPTS =      1   k-points in BZ     NKDIM =      1   number of bands    NBANDS=     18
   number of dos      NEDOS =    301   number of ions     NIONS =      4
   non local maximal  LDIM  =      4   non local SUM 2l+1 LMDIM =      8
   total plane-waves  NPLWV = 262144
   max r-space proj   IRMAX =   3591   max aug-charges    IRDMAX=   1258
   dimension x,y,z NGX =    64 NGY =   64 NGZ =   64
   dimension x,y,z NGXF=   128 NGYF=  128 NGZF=  128
   support grid    NGXF=   128 NGYF=  128 NGZF=  128
   ions per type =               4
   NGX,Y,Z   is equivalent  to a cutoff of   7.34,  7.34,  7.34 a.u.
   NGXF,Y,Z  is equivalent  to a cutoff of  14.68, 14.68, 14.68 a.u.

 SYSTEM =  NiAl                                    
 POSCAR =  New structure                           

 Startparameter for this run:
   NWRITE =      2    write-flag & timer
   PREC   = normal    normal or accurate (medium, high low for compatibility)
   ISTART =      0    job   : 0-new  1-cont  2-samecut
   ICHARG =      2    charge: 1-file 2-atom 10-const
   ISPIN  =      1    spin polarized calculation?
   LNONCOLLINEAR =      F non collinear calculations
   LSORBIT =      F    spin-orbit coupling
   INIWAV =      1    electr: 0-lowe 1-rand  2-diag
   LASPH  =      F    aspherical Exc in radial PAW
   METAGGA=      F    non-selfconsistent MetaGGA calc.

 Electronic Relaxation 1
   ENCUT  =  300.0 eV  22.05 Ry    4.70 a.u.  20.48 20.48 20.48*2*pi/ulx,y,z
   ENINI  =  300.0     initial cutoff
   ENAUG  =  627.1 eV  augmentation charge cutoff
   NELM   =     60;   NELMIN=  6; NELMDL= -5     # of ELM steps 
   EDIFF  = 0.5E-05   stopping-criterion for ELM
   LREAL  =      T    real-space projection
   NLSPLINE    = F    spline interpolate recip. space projectors
   LCOMPAT=      F    compatible to vasp.4.4
   GGA_COMPAT  = T    GGA compatible to vasp.4.4-vasp.4.6
   LMAXPAW     = -100 max onsite density
   LMAXMIX     =    2 max onsite mixed and CHGCAR
   VOSKOWN=      0    Vosko Wilk Nusair interpolation
   ROPT   =   -0.00050
 Ionic relaxation
   EDIFFG = 0.5E-04   stopping-criterion for IOM
   NSW    =      0    number of steps for IOM
   NBLOCK =      1;   KBLOCK =      1    inner block; outer block 
   IBRION =     -1    ionic relax: 0-MD 1-quasi-New 2-CG
   NFREE  =      0    steps in history (QN), initial steepest desc. (CG)
   ISIF   =      2    stress and relaxation
   IWAVPR =     10    prediction:  0-non 1-charg 2-wave 3-comb
   ISYM   =      2    0-nonsym 1-usesym 2-fastsym
   LCORR  =      T    Harris-Foulkes like correction to forces

   POTIM  = 0.5000    time-step for ionic-motion
   TEIN   =    0.0    initial temperature
   TEBEG  =    0.0;   TEEND  =   0.0 temperature during run
   SMASS  =  -3.00    Nose mass-parameter (am)
   estimated Nose-frequenzy (Omega)   =  0.10E-29 period in steps =****** mass=  -0.480E-26a.u.
   SCALEE = 1.0000    scale energy and forces
   NPACO  =    256;   APACO  = 16.0  distance and # of slots for P.C.
   PSTRESS=    0.0 pullay stress

  Mass of Ions in am
   POMASS =  14.00
  Ionic Valenz
   ZVAL   =   5.00
  Atomic Wigner-Seitz radii
   RWIGS  =  -1.00
  virtual crystal weights 
   VCA    =   1.00
   NELECT =      20.0000    total number of electrons
   NUPDOWN=      -1.0000    fix difference up-down

 DOS related values:
   EMIN   =  10.00;   EMAX   =-10.00  energy-range for DOS
   EFERMI =   0.00
   ISMEAR =     0;   SIGMA  =   0.05  broadening in eV -4-tet -1-fermi 0-gaus

 Electronic relaxation 2 (details)
   IALGO  =     38    algorithm
   LDIAG  =      T    sub-space diagonalisation (order eigenvalues)
   LSUBROT=      F    optimize rotation matrix (better conditioning)
   TURBO    =      0    0=normal 1=particle mesh
   IRESTART =      0    0=no restart 2=restart with 2 vectors
   NREBOOT  =      0    no. of reboots
   NMIN     =      0    reboot dimension
   EREF     =   0.00    reference energy to select bands
   IMIX   =      4    mixing-type and parameters
     AMIX     =   0.40;   BMIX     =  1.00
     AMIX_MAG =   1.60;   BMIX_MAG =  1.00
     AMIN     =   0.10
     WC   =   100.;   INIMIX=   1;  MIXPRE=   1;  MAXMIX= -45

 Intra band minimization:
   WEIMIN = 0.0000     energy-eigenvalue tresh-hold
   EBREAK =  0.69E-07  absolut break condition
   DEPER  =   0.30     relativ break condition  

   TIME   =   0.40     timestep for ELM

  volume/ion in A,a.u.               =     762.16      5143.28
  Fermi-wavevector in a.u.,A,eV,Ry     =   0.306467  0.579138  1.277885  0.093922
  Thomas-Fermi vector in A             =   1.180445
 
 Write flags
   LWAVE        =      F    write WAVECAR
   LDOWNSAMPLE  =      F    k-point downsampling of WAVECAR
   LCHARG       =      F    write CHGCAR
   LVTOT        =      F    write LOCPOT, total local potential
   LVHAR        =      F    write LOCPOT, Hartree potential only
   LELF         =      F    write electronic localiz. function (ELF)
   LORBIT       =      0    0 simple, 1 ext, 2 COOP (PROOUT), +10 PAW based schemes


 Dipole corrections
   LMONO  =      F    monopole corrections only (constant potential shift)
   LDIPOL =      F    correct potential (dipole corrections)
   IDIPOL =      0    1-x, 2-y, 3-z, 4-all directions 
   EPSILON=  1.0000000 bulk dielectric constant

 Exchange correlation treatment:
   GGA     =    --    GGA type
   LEXCH   =     8    internal setting for exchange type
   VOSKOWN=      0    Vosko Wilk Nusair interpolation
   LHFCALC =     F    Hartree Fock is set to
   LHFONE  =     F    Hartree Fock one center treatment
   AEXX    =    0.0000 exact exchange contribution

 Linear response parameters
   LEPSILON=     F    determine dielectric tensor
   LRPA    =     F    only Hartree local field effects (RPA)
   LNABLA  =     F    use nabla operator in PAW spheres
   LVEL    =     F    velocity operator in full k-point grid
   LINTERFAST=   F  fast interpolation
   KINTER  =     0    interpolate to denser k-point grid
   CSHIFT  =0.1000    complex shift for real part using Kramers Kronig
   OMEGAMAX=  -1.0    maximum frequency
   DEG_THRESHOLD= 0.2000000E-02 threshold for treating states as degnerate
   RTIME   =   -0.100 relaxation time in fs
  (WPLASMAI=    0.000 imaginary part of plasma frequency in eV, 0.658/RTIME)
   DFIELD  = 0.0000000 0.0000000 0.0000000 field for delta impulse in time
 
 Orbital magnetization related:
   ORBITALMAG=     F  switch on orbital magnetization
   LCHIMAG   =     F  perturbation theory with respect to B field
   DQ        =  0.001000  dq finite difference perturbation B field
   LLRAUG    =     F  two centre corrections for induced B field



--------------------------------------------------------------------------------------------------------


 Static calculation
 charge density and potential will be updated during run
 non-spin polarized calculation
 Variant of blocked Davidson
 Davidson routine will perform the subspace rotation
 perform sub-space diagonalisation
    after iterative eigenvector-optimisation
 modified Broyden-mixing scheme, WC =      100.0
 initial mixing is a Kerker type mixing with AMIX =  0.4000 and BMIX =      1.0000
 Hartree-type preconditioning will be used
 using additional bands            8
 real space projection scheme for non local part
 use partial core corrections
 calculate Harris-corrections to forces 
   (improved forces if not selfconsistent)
 use gradient corrections 
 use of overlap-Matrix (Vanderbilt PP)
 Gauss-broadening in eV      SIGMA  =   0.05


--------------------------------------------------------------------------------------------------------


  energy-cutoff  :      300.00
  volume of cell :     3048.62
      direct lattice vectors                 reciprocal lattice vectors
    14.500000000  0.000000000  0.000000000     0.068965517  0.000000000  0.000000000
     0.000000000 14.500000000  0.000000000     0.000000000  0.068965517  0.000000000
     0.000000000  0.000000000 14.500000000     0.000000000  0.000000000  0.068965517

  length of vectors
    14.500000000 14.500000000 14.500000000     0.068965517  0.068965517  0.068965517


 
 k-points in units of 2pi/SCALE and weight: Automatic generation                    
   0.00000000  0.00000000  0.00000000       1.000
 
 k-points in reciprocal lattice and weights: Automatic generation                    
   0.00000000  0.00000000  0.00000000       1.000
 
 position of ions in fractional coordinates (direct lattice) 
   0.00000000  0.00000000  0.00000000
   0.07586207  0.00000000  0.00000000
   0.03448276  0.96551724  0.10344828
   0.03448276  0.03448276  0.10344828
 
 position of ions in cartesian coordinates  (Angst):
   0.00000000  0.00000000  0.00000000
   1.10000000  0.00000000  0.00000000
   0.50000000 14.00000000  1.50000000
   0.50000000  0.50000000  1.50000000
 


--------------------------------------------------------------------------------------------------------


 k-point  1 :   0.0000 0.0000 0.0000  plane waves:   36041

 maximum and minimum number of plane-waves per node :     36041    36041

 maximum number of plane-waves:     36041
 maximum index in each direction: 
   IXMAX=   20   IYMAX=   20   IZMAX=   20
   IXMIN=  -20   IYMIN=  -20   IZMIN=  -20


 serial   3D FFT for wavefunctions
 parallel 3D FFT for charge:
    minimum data exchange during FFTs selected (reduces bandwidth)


 total amount of memory used by VASP MPI-rank0    74237. kBytes
=======================================================================

   base      :      30000. kBytes
   nonlr-proj:       1204. kBytes
   fftplans  :      13257. kBytes
   grid      :      28033. kBytes
   one-center:         12. kBytes
   wavefun   :       1731. kBytes
 
     INWAV:  cpu time    0.0000: real time    0.0000
 Broyden mixing: mesh for mixing (old mesh)
   NGX = 41   NGY = 41   NGZ = 41
  (NGX  =128   NGY  =128   NGZ  =128)
  gives a total of  68921 points

 initial charge density was supplied:
 charge density of overlapping atoms calculated
 number of electron      20.0000000 magnetization 
 keeping initial charge density in first step


--------------------------------------------------------------------------------------------------------


 Maximum index for non-local projection operator         3431
 Maximum index for augmentation-charges          239 (set IRDMAX)


--------------------------------------------------------------------------------------------------------


 First call to EWALD:  gamma=   0.122
 Maximum number of real-space cells 3x 3x 3
 Maximum number of reciprocal cells 3x 3x 3

    FEWALD:  cpu time    0.0015: real time    0.0015


----------------------------------------- Iteration    1(   1)  ---------------------------------------


    POTLOK:  cpu time    0.2004: real time    0.2005
    SETDIJ:  cpu time    0.0018: real time    0.0018
     EDDAV:  cpu time    0.1146: real time    0.2045
       DOS:  cpu time    0.0002: real time    0.0002
    --------------------------------------------
      LOOP:  cpu time    0.3194: real time    0.4223

 eigenvalue-minimisations  :    60
 total energy-change (2. order) : 0.1092685E+03  (-0.4374654E+03)
 number of electron      20.0000000 magnetization 
 augmentation part       20.0000000 magnetization 

 Free energy of the ion-electron system (eV)
  ---------------------------------------------------
  alpha Z        PSCENC =         0.56547974
  Ewald energy   TEWEN  =       986.96791892
  -Hartree energ DENC   =     -1774.50452246
  -exchange      EXHF   =         0.00000000
  -V(xc)+E(xc)   XCENC  =        79.33806273
  PAW double counting   =       819.73092645     -824.49486281
  entropy T*S    EENTRO =        -0.00000000
  eigenvalues    EBANDS =      -233.77596105
  atomic energy  EATOM  =      1055.44145440
  Solvation  Ediel_sol  =         0.00000000
  ---------------------------------------------------
  free energy    TOTEN  =       109.26849592 eV

  energy without entropy =      109.26849592  energy(sigma->0) =      109.26849592


--------------------------------------------------------------------------------------------------------




----------------------------------------- Iteration    1(   2)  ---------------------------------------


     EDDAV:  cpu time    0.1032: real time    0.1914
       DOS:  cpu time    0.0002: real time    0.0002
    --------------------------------------------
      LOOP:  cpu time    0.1051: real time    0.1948

 eigenvalue-minimisations  :    54
 total energy-change (2. order) :-0.1087869E+03  (-0.1075461E+03)
 number of electron      20.0000000 magnetization 
 augmentation part       20.0000000 magnetization 

 Free energy of the ion-electron system (eV)
  ---------------------------------------------------
  alpha Z        PSCENC =         0.56547974
  Ewald energy   TEWEN  =       986.96791892
  -Hartree energ DENC   =     -1774.50452246
  -exchange      EXHF   =         0.00000000
  -V(xc)+E(xc)   XCENC  =        79.33806273
  PAW double counting   =       819.73092645     -824.49486281
  entropy T*S    EENTRO =        -0.00000000
  eigenvalues    EBANDS =      -342.56289864
  atomic energy  EATOM  =      1055.44145440
  Solvation  Ediel_sol  =         0.00000000
  ---------------------------------------------------
  free energy    TOTEN  =         0.48155833 eV

  energy without entropy =        0.48155833  energy(sigma->0) =        0.48155833


--------------------------------------------------------------------------------------------------------




----------------------------------------- Iteration    1(   3)  ---------------------------------------


     EDDAV:  cpu time    0.1175: real time    0.1913
       DOS:  cpu time    0.0004: real time    0.0004
    --------------------------------------------
      LOOP:  cpu time    0.1193: real time    0.1942

 eigenvalue-minimisations  :    60
 total energy-change (2. order) :-0.2252617E+02  (-0.2236484E+02)
 number of electron      20.0000000 magnetization 
 augmentation part       20.0000000 magnetization 

 Free energy of the ion-electron system (eV)
  ---------------------------------------------------
  alpha Z        PSCENC =         0.56547974
  Ewald energy   TEWEN  =       986.96791892
  -Hartree energ DENC   =     -1774.50452246
  -exchange      EXHF   =         0.00000000
  -V(xc)+E(xc)   XCENC  =        79.33806273
  PAW double counting   =       819.73092645     -824.49486281
  entropy T*S    EENTRO =        -0.00000000
  eigenvalues    EBANDS =      -365.08906752
  atomic energy  EATOM  =      1055.44145440
  Solvation  Ediel_sol  =         0.00000000
  ---------------------------------------------------
  free energy    TOTEN  =       -22.04461055 eV

  energy without entropy =      -22.04461055  energy(sigma->0) =      -22.04461055


--------------------------------------------------------------------------------------------------------




----------------------------------------- Iteration    1(   4)  ---------------------------------------


     EDDAV:  cpu time    0.1111: real time    0.1856
       DOS:  cpu time    0.0003: real time    0.0003
    --------------------------------------------
      LOOP:  cpu time    0.1128: real time    0.1902

 eigenvalue-minimisations  :    54
 total energy-change (2. order) :-0.8668994E+00  (-0.8643397E+00)
 number of electron      20.0000000 magnetization 
 augmentation part       20.0000000 magnetization 

 Free energy of the ion-electron system (eV)
  ---------------------------------------------------
  alpha Z        PSCENC =         0.56547974
  Ewald energy   TEWEN  =       986.96791892
  -Hartree energ DENC   =     -1774.50452246
  -exchange      EXHF   =         0.00000000
  -V(xc)+E(xc)   XCENC  =        79.33806273
  PAW double counting   =       819.73092645     -824.49486281
  entropy T*S    EENTRO =        -0.00000000
  eigenvalues    EBANDS =      -365.95596696
  atomic energy  EATOM  =      1055.44145440
  Solvation  Ediel_sol  =         0.00000000
  ---------------------------------------------------
  free energy    TOTEN  =       -22.91150999 eV

  energy without entropy =      -22.91150999  energy(sigma->0) =      -22.91150999


--------------------------------------------------------------------------------------------------------




----------------------------------------- Iteration    1(   5)  ---------------------------------------


     EDDAV:  cpu time    0.0830: real time    0.1546
       DOS:  cpu time    0.0002: real time    0.0002
    CHARGE:  cpu time    0.0567: real time    0.0729
    MIXING:  cpu time    0.0094: real time    0.0094
    --------------------------------------------
      LOOP:  cpu time    0.1509: real time    0.2399

 eigenvalue-minimisations  :    36
 total energy-change (2. order) :-0.7388701E-02  (-0.7388183E-02)
 number of electron      19.9999945 magnetization 
 augmentation part        0.9051150 magnetization 

 Broyden mixing:
  rms(total) = 0.15292E+01    rms(broyden)= 0.15226E+01
  rms(prec ) = 0.15945E+01
  weight for this iteration     100.00

 Free energy of the ion-electron system (eV)
  ---------------------------------------------------
  alpha Z        PSCENC =         0.56547974
  Ewald energy   TEWEN  =       986.96791892
  -Hartree energ DENC   =     -1774.50452246
  -exchange      EXHF   =         0.00000000
  -V(xc)+E(xc)   XCENC  =        79.33806273
  PAW double counting   =       819.73092645     -824.49486281
  entropy T*S    EENTRO =        -0.00000000
  eigenvalues    EBANDS =      -365.96335566
  atomic energy  EATOM  =      1055.44145440
  Solvation  Ediel_sol  =         0.00000000
  ---------------------------------------------------
  free energy    TOTEN  =       -22.91889869 eV

  energy without entropy =      -22.91889869  energy(sigma->0) =      -22.91889869


--------------------------------------------------------------------------------------------------------




----------------------------------------- Iteration    1(   6)  ---------------------------------------


    POTLOK:  cpu time    0.1878: real time    0.1883
    SETDIJ:  cpu time    0.0018: real time    0.0017
     EDDAV:  cpu time    0.0919: real time    0.1665
       DOS:  cpu time    0.0001: real time    0.0001
    CHARGE:  cpu time    0.0577: real time    0.0583
    MIXING:  cpu time    0.0089: real time    0.0089
    --------------------------------------------
      LOOP:  cpu time    0.3501: real time    0.4269

 eigenvalue-minimisations  :    48
 total energy-change (2. order) : 0.2115913E+01  (-0.2773699E+00)
 number of electron      19.9999949 magnetization 
 augmentation part        0.8571799 magnetization 

 Broyden mixing:
  rms(total) = 0.91418E+00    rms(broyden)= 0.91386E+00
  rms(prec ) = 0.93981E+00
  weight for this iteration     100.00

 eigenvalues of (default mixing * dielectric matrix)
  average eigenvalue GAMMA=   2.2334
  2.2334

 Free energy of the ion-electron system (eV)
  ---------------------------------------------------
  alpha Z        PSCENC =         0.56547974
  Ewald energy   TEWEN  =       986.96791892
  -Hartree energ DENC   =     -1802.49335937
  -exchange      EXHF   =         0.00000000
  -V(xc)+E(xc)   XCENC  =        80.90723994
  PAW double counting   =      1307.47228779    -1312.77688021
  entropy T*S    EENTRO =        -0.00000000
  eigenvalues    EBANDS =      -336.88712679
  atomic energy  EATOM  =      1055.44145440
  Solvation  Ediel_sol  =         0.00000000
  ---------------------------------------------------
  free energy    TOTEN  =       -20.80298557 eV

  energy without entropy =      -20.80298557  energy(sigma->0) =      -20.80298557


--------------------------------------------------------------------------------------------------------




----------------------------------------- Iteration    1(   7)  ---------------------------------------


    POTLOK:  cpu time    0.1980: real time    0.1986
    SETDIJ:  cpu time    0.0016: real time    0.0016
     EDDAV:  cpu time    0.1079: real time    0.1775
       DOS:  cpu time    0.0001: real time    0.0001
    CHARGE:  cpu time    0.0588: real time    0.0592
    MIXING:  cpu time    0.0101: real time    0.0101
    --------------------------------------------
      LOOP:  cpu time    0.3784: real time    0.4500

 eigenvalue-minimisations  :    54
 total energy-change (2. order) : 0.3912429E+00  (-0.2361427E+00)
 number of electron      19.9999953 magnetization 
 augmentation part        0.8095720 magnetization 

 Broyden mixing:
  rms(total) = 0.23456E+00    rms(broyden)= 0.23434E+00
  rms(prec ) = 0.24633E+00
  weight for this iteration     100.00

 eigenvalues of (default mixing * dielectric matrix)
  average eigenvalue GAMMA=   1.8892
  1.3808  2.3977

 Free energy of the ion-electron system (eV)
  ---------------------------------------------------
  alpha Z        PSCENC =         0.56547974
  Ewald energy   TEWEN  =       986.96791892
  -Hartree energ DENC   =     -1827.98624710
  -exchange      EXHF   =         0.00000000
  -V(xc)+E(xc)   XCENC  =        82.35098592
  PAW double counting   =      2197.24844695    -2203.17265363
  entropy T*S    EENTRO =        -0.00000000
  eigenvalues    EBANDS =      -311.82712784
  atomic energy  EATOM  =      1055.44145440
  Solvation  Ediel_sol  =         0.00000000
  ---------------------------------------------------
  free energy    TOTEN  =       -20.41174264 eV

  energy without entropy =      -20.41174264  energy(sigma->0) =      -20.41174264


--------------------------------------------------------------------------------------------------------




----------------------------------------- Iteration    1(   8)  ---------------------------------------


    POTLOK:  cpu time    0.1977: real time    0.1982
    SETDIJ:  cpu time    0.0016: real time    0.0016
     EDDAV:  cpu time    0.1030: real time    0.1801
       DOS:  cpu time    0.0003: real time    0.0003
    CHARGE:  cpu time    0.0590: real time    0.0592
    MIXING:  cpu time    0.0093: real time    0.0093
    --------------------------------------------
      LOOP:  cpu time    0.3729: real time    0.4517

 eigenvalue-minimisations  :    48
 total energy-change (2. order) : 0.1773828E-01  (-0.4461704E-01)
 number of electron      19.9999951 magnetization 
 augmentation part        0.8160403 magnetization 

 Broyden mixing:
  rms(total) = 0.97695E-01    rms(broyden)= 0.97228E-01
  rms(prec ) = 0.11240E+00
  weight for this iteration     100.00

 eigenvalues of (default mixing * dielectric matrix)
  average eigenvalue GAMMA=   1.5557
  2.4038  1.6516  0.6116

 Free energy of the ion-electron system (eV)
  ---------------------------------------------------
  alpha Z        PSCENC =         0.56547974
  Ewald energy   TEWEN  =       986.96791892
  -Hartree energ DENC   =     -1823.16948868
  -exchange      EXHF   =         0.00000000
  -V(xc)+E(xc)   XCENC  =        82.13546363
  PAW double counting   =      2375.71037139    -2381.62346128
  entropy T*S    EENTRO =        -0.00000000
  eigenvalues    EBANDS =      -316.42174249
  atomic energy  EATOM  =      1055.44145440
  Solvation  Ediel_sol  =         0.00000000
  ---------------------------------------------------
  free energy    TOTEN  =       -20.39400436 eV

  energy without entropy =      -20.39400436  energy(sigma->0) =      -20.39400436


--------------------------------------------------------------------------------------------------------




----------------------------------------- Iteration    1(   9)  ---------------------------------------


    POTLOK:  cpu time    0.1996: real time    0.2002
    SETDIJ:  cpu time    0.0015: real time    0.0015
     EDDAV:  cpu time    0.1028: real time    0.1809
       DOS:  cpu time    0.0001: real time    0.0001
    CHARGE:  cpu time    0.0580: real time    0.0587
    MIXING:  cpu time    0.0098: real time    0.0098
    --------------------------------------------
      LOOP:  cpu time    0.3739: real time    0.4550

 eigenvalue-minimisations  :    54
 total energy-change (2. order) : 0.1320712E-01  (-0.1205605E-01)
 number of electron      19.9999951 magnetization 
 augmentation part        0.8186448 magnetization 

 Broyden mixing:
  rms(total) = 0.22867E-01    rms(broyden)= 0.22481E-01
  rms(prec ) = 0.24737E-01
  weight for this iteration     100.00

 eigenvalues of (default mixing * dielectric matrix)
  average eigenvalue GAMMA=   1.4669
  2.2990  1.4752  1.4752  0.6184

 Free energy of the ion-electron system (eV)
  ---------------------------------------------------
  alpha Z        PSCENC =         0.56547974
  Ewald energy   TEWEN  =       986.96791892
  -Hartree energ DENC   =     -1822.03379968
  -exchange      EXHF   =         0.00000000
  -V(xc)+E(xc)   XCENC  =        82.07158145
  PAW double counting   =      2409.27362109    -2415.17416311
  entropy T*S    EENTRO =        -0.00000000
  eigenvalues    EBANDS =      -317.49289005
  atomic energy  EATOM  =      1055.44145440
  Solvation  Ediel_sol  =         0.00000000
  ---------------------------------------------------
  free energy    TOTEN  =       -20.38079724 eV

  energy without entropy =      -20.38079724  energy(sigma->0) =      -20.38079724


--------------------------------------------------------------------------------------------------------




----------------------------------------- Iteration    1(  10)  ---------------------------------------


    POTLOK:  cpu time    0.1998: real time    0.2003
    SETDIJ:  cpu time    0.0016: real time    0.0016
     EDDAV:  cpu time    0.1275: real time    0.2053
       DOS:  cpu time    0.0003: real time    0.0003
    CHARGE:  cpu time    0.0773: real time    0.0812
    MIXING:  cpu time    0.0135: real time    0.0135
    --------------------------------------------
      LOOP:  cpu time    0.4221: real time    0.5054

 eigenvalue-minimisations  :    60
 total energy-change (2. order) :-0.2148115E-02  (-0.5519969E-03)
 number of electron      19.9999951 magnetization 
 augmentation part        0.8175785 magnetization 

 Broyden mixing:
  rms(total) = 0.10706E-01    rms(broyden)= 0.10651E-01
  rms(prec ) = 0.12633E-01
  weight for this iteration     100.00

 eigenvalues of (default mixing * dielectric matrix)
  average eigenvalue GAMMA=   1.4167
  2.1650  1.7653  1.7653  0.7390  0.6488

 Free energy of the ion-electron system (eV)
  ---------------------------------------------------
  alpha Z        PSCENC =         0.56547974
  Ewald energy   TEWEN  =       986.96791892
  -Hartree energ DENC   =     -1822.95632798
  -exchange      EXHF   =         0.00000000
  -V(xc)+E(xc)   XCENC  =        82.10123079
  PAW double counting   =      2395.93601645    -2401.83670543
  entropy T*S    EENTRO =        -0.00000000
  eigenvalues    EBANDS =      -316.60201225
  atomic energy  EATOM  =      1055.44145440
  Solvation  Ediel_sol  =         0.00000000
  ---------------------------------------------------
  free energy    TOTEN  =       -20.38294535 eV

  energy without entropy =      -20.38294535  energy(sigma->0) =      -20.38294535


--------------------------------------------------------------------------------------------------------




----------------------------------------- Iteration    1(  11)  ---------------------------------------


    POTLOK:  cpu time    0.3939: real time    0.3946
    SETDIJ:  cpu time    0.0021: real time    0.0021
     EDDAV:  cpu time    0.1725: real time    0.2620
       DOS:  cpu time    0.0010: real time    0.0010
    CHARGE:  cpu time    0.0902: real time    0.0909
    MIXING:  cpu time    0.0160: real time    0.0160
    --------------------------------------------
      LOOP:  cpu time    0.6787: real time    0.7707

 eigenvalue-minimisations  :    72
 total energy-change (2. order) :-0.1010909E-02  (-0.3402705E-04)
 number of electron      19.9999951 magnetization 
 augmentation part        0.8176841 magnetization 

 Broyden mixing:
  rms(total) = 0.64655E-02    rms(broyden)= 0.64643E-02
  rms(prec ) = 0.81983E-02
  weight for this iteration     100.00

 eigenvalues of (default mixing * dielectric matrix)
  average eigenvalue GAMMA=   1.5170
  2.3886  2.3886  1.5824  0.6297  1.0562  1.0562

 Free energy of the ion-electron system (eV)
  ---------------------------------------------------
  alpha Z        PSCENC =         0.56547974
  Ewald energy   TEWEN  =       986.96791892
  -Hartree energ DENC   =     -1823.14146081
  -exchange      EXHF   =         0.00000000
  -V(xc)+E(xc)   XCENC  =        82.10124305
  PAW double counting   =      2394.58669367    -2400.48420335
  entropy T*S    EENTRO =        -0.00000000
  eigenvalues    EBANDS =      -316.42108189
  atomic energy  EATOM  =      1055.44145440
  Solvation  Ediel_sol  =         0.00000000
  ---------------------------------------------------
  free energy    TOTEN  =       -20.38395626 eV

  energy without entropy =      -20.38395626  energy(sigma->0) =      -20.38395626


--------------------------------------------------------------------------------------------------------




----------------------------------------- Iteration    1(  12)  ---------------------------------------


    POTLOK:  cpu time    0.4011: real time    0.4020
    SETDIJ:  cpu time    0.0018: real time    0.0018
     EDDAV:  cpu time    0.1473: real time    0.2333
       DOS:  cpu time    0.0012: real time    0.0012
    CHARGE:  cpu time    0.0879: real time    0.0886
    MIXING:  cpu time    0.0162: real time    0.0162
    --------------------------------------------
      LOOP:  cpu time    0.6590: real time    0.7486

 eigenvalue-minimisations  :    60
 total energy-change (2. order) :-0.9366085E-03  (-0.1317244E-04)
 number of electron      19.9999951 magnetization 
 augmentation part        0.8177706 magnetization 

 Broyden mixing:
  rms(total) = 0.16107E-02    rms(broyden)= 0.16089E-02
  rms(prec ) = 0.35684E-02
  weight for this iteration     100.00

 eigenvalues of (default mixing * dielectric matrix)
  average eigenvalue GAMMA=   1.4935
  2.6171  2.3048  1.5562  1.2483  1.2483  0.6324  0.8477

 Free energy of the ion-electron system (eV)
  ---------------------------------------------------
  alpha Z        PSCENC =         0.56547974
  Ewald energy   TEWEN  =       986.96791892
  -Hartree energ DENC   =     -1823.40230560
  -exchange      EXHF   =         0.00000000
  -V(xc)+E(xc)   XCENC  =        82.10474797
  PAW double counting   =      2399.01398094    -2404.91043613
  entropy T*S    EENTRO =        -0.00000000
  eigenvalues    EBANDS =      -316.16573312
  atomic energy  EATOM  =      1055.44145440
  Solvation  Ediel_sol  =         0.00000000
  ---------------------------------------------------
  free energy    TOTEN  =       -20.38489287 eV

  energy without entropy =      -20.38489287  energy(sigma->0) =      -20.38489287


--------------------------------------------------------------------------------------------------------




----------------------------------------- Iteration    1(  13)  ---------------------------------------


    POTLOK:  cpu time    0.3247: real time    0.3250
    SETDIJ:  cpu time    0.0016: real time    0.0016
     EDDAV:  cpu time    0.0976: real time    0.1717
       DOS:  cpu time    0.0003: real time    0.0003
    CHARGE:  cpu time    0.0632: real time    0.0635
    MIXING:  cpu time    0.0129: real time    0.0132
    --------------------------------------------
      LOOP:  cpu time    0.5031: real time    0.5794

 eigenvalue-minimisations  :    48
 total energy-change (2. order) :-0.5224162E-03  (-0.4647671E-05)
 number of electron      19.9999951 magnetization 
 augmentation part        0.8177385 magnetization 

 Broyden mixing:
  rms(total) = 0.13741E-02    rms(broyden)= 0.13737E-02
  rms(prec ) = 0.27810E-02
  weight for this iteration     100.00

 eigenvalues of (default mixing * dielectric matrix)
  average eigenvalue GAMMA=   1.6397
  3.0206  2.6057  1.7512  1.7512  0.6316  0.9277  1.2148  1.2148

 Free energy of the ion-electron system (eV)
  ---------------------------------------------------
  alpha Z        PSCENC =         0.56547974
  Ewald energy   TEWEN  =       986.96791892
  -Hartree energ DENC   =     -1823.57899589
  -exchange      EXHF   =         0.00000000
  -V(xc)+E(xc)   XCENC  =        82.10775015
  PAW double counting   =      2399.13635113    -2405.03266067
  entropy T*S    EENTRO =        -0.00000000
  eigenvalues    EBANDS =      -315.99271309
  atomic energy  EATOM  =      1055.44145440
  Solvation  Ediel_sol  =         0.00000000
  ---------------------------------------------------
  free energy    TOTEN  =       -20.38541529 eV

  energy without entropy =      -20.38541529  energy(sigma->0) =      -20.38541529


--------------------------------------------------------------------------------------------------------




----------------------------------------- Iteration    1(  14)  ---------------------------------------


    POTLOK:  cpu time    0.2384: real time    0.2387
    SETDIJ:  cpu time    0.0017: real time    0.0017
     EDDAV:  cpu time    0.1075: real time    0.1813
       DOS:  cpu time    0.0005: real time    0.0005
    CHARGE:  cpu time    0.0646: real time    0.0649
    MIXING:  cpu time    0.0136: real time    0.0139
    --------------------------------------------
      LOOP:  cpu time    0.4286: real time    0.5042

 eigenvalue-minimisations  :    54
 total energy-change (2. order) :-0.8145358E-03  (-0.1722033E-04)
 number of electron      19.9999951 magnetization 
 augmentation part        0.8176809 magnetization 

 Broyden mixing:
  rms(total) = 0.13870E-02    rms(broyden)= 0.13867E-02
  rms(prec ) = 0.17228E-02
  weight for this iteration     100.00

 eigenvalues of (default mixing * dielectric matrix)
  average eigenvalue GAMMA=   1.7266
  4.1620  2.5036  2.2290  1.7368  1.2351  1.2351  0.6314  0.9030  0.9030

 Free energy of the ion-electron system (eV)
  ---------------------------------------------------
  alpha Z        PSCENC =         0.56547974
  Ewald energy   TEWEN  =       986.96791892
  -Hartree energ DENC   =     -1823.93921175
  -exchange      EXHF   =         0.00000000
  -V(xc)+E(xc)   XCENC  =        82.11181826
  PAW double counting   =      2396.39483209    -2402.29026411
  entropy T*S    EENTRO =        -0.00000000
  eigenvalues    EBANDS =      -315.63825738
  atomic energy  EATOM  =      1055.44145440
  Solvation  Ediel_sol  =         0.00000000
  ---------------------------------------------------
  free energy    TOTEN  =       -20.38622982 eV

  energy without entropy =      -20.38622982  energy(sigma->0) =      -20.38622982


--------------------------------------------------------------------------------------------------------




----------------------------------------- Iteration    1(  15)  ---------------------------------------


    POTLOK:  cpu time    0.2573: real time    0.2577
    SETDIJ:  cpu time    0.0016: real time    0.0016
     EDDAV:  cpu time    0.1398: real time    0.2146
       DOS:  cpu time    0.0002: real time    0.0002
    CHARGE:  cpu time    0.0656: real time    0.0663
    MIXING:  cpu time    0.0138: real time    0.0138
    --------------------------------------------
      LOOP:  cpu time    0.4805: real time    0.5575

 eigenvalue-minimisations  :    72
 total energy-change (2. order) :-0.2061048E-03  (-0.1399748E-05)
 number of electron      19.9999951 magnetization 
 augmentation part        0.8176420 magnetization 

 Broyden mixing:
  rms(total) = 0.71944E-03    rms(broyden)= 0.71925E-03
  rms(prec ) = 0.10040E-02
  weight for this iteration     100.00

 eigenvalues of (default mixing * dielectric matrix)
  average eigenvalue GAMMA=   1.8368
  5.1377  2.5025  2.3205  1.8151  1.6402  1.2331  1.2331  0.6316  0.9273  0.9273

 Free energy of the ion-electron system (eV)
  ---------------------------------------------------
  alpha Z        PSCENC =         0.56547974
  Ewald energy   TEWEN  =       986.96791892
  -Hartree energ DENC   =     -1824.02433343
  -exchange      EXHF   =         0.00000000
  -V(xc)+E(xc)   XCENC  =        82.11282597
  PAW double counting   =      2397.36221809    -2403.25804669
  entropy T*S    EENTRO =        -0.00000000
  eigenvalues    EBANDS =      -315.55395293
  atomic energy  EATOM  =      1055.44145440
  Solvation  Ediel_sol  =         0.00000000
  ---------------------------------------------------
  free energy    TOTEN  =       -20.38643593 eV

  energy without entropy =      -20.38643593  energy(sigma->0) =      -20.38643593


--------------------------------------------------------------------------------------------------------




----------------------------------------- Iteration    1(  16)  ---------------------------------------


    POTLOK:  cpu time    0.2633: real time    0.2642
    SETDIJ:  cpu time    0.0017: real time    0.0017
     EDDAV:  cpu time    0.1345: real time    0.2103
       DOS:  cpu time    0.0002: real time    0.0002
    CHARGE:  cpu time    0.0643: real time    0.0673
    MIXING:  cpu time    0.0144: real time    0.0144
    --------------------------------------------
      LOOP:  cpu time    0.4806: real time    0.5616

 eigenvalue-minimisations  :    72
 total energy-change (2. order) :-0.2784257E-03  (-0.1873088E-05)
 number of electron      19.9999951 magnetization 
 augmentation part        0.8176124 magnetization 

 Broyden mixing:
  rms(total) = 0.28980E-03    rms(broyden)= 0.28912E-03
  rms(prec ) = 0.48224E-03
  weight for this iteration     100.00

 eigenvalues of (default mixing * dielectric matrix)
  average eigenvalue GAMMA=   1.9049
  5.8106  2.7996  2.3329  2.2214  1.6314  0.6316  1.2624  1.2624  0.9357  1.0331
  1.0331

 Free energy of the ion-electron system (eV)
  ---------------------------------------------------
  alpha Z        PSCENC =         0.56547974
  Ewald energy   TEWEN  =       986.96791892
  -Hartree energ DENC   =     -1824.07782711
  -exchange      EXHF   =         0.00000000
  -V(xc)+E(xc)   XCENC  =        82.11294837
  PAW double counting   =      2397.77066615    -2403.66664581
  entropy T*S    EENTRO =        -0.00000000
  eigenvalues    EBANDS =      -315.50070902
  atomic energy  EATOM  =      1055.44145440
  Solvation  Ediel_sol  =         0.00000000
  ---------------------------------------------------
  free energy    TOTEN  =       -20.38671435 eV

  energy without entropy =      -20.38671435  energy(sigma->0) =      -20.38671435


--------------------------------------------------------------------------------------------------------




----------------------------------------- Iteration    1(  17)  ---------------------------------------


    POTLOK:  cpu time    0.2625: real time    0.2630
    SETDIJ:  cpu time    0.0017: real time    0.0017
     EDDAV:  cpu time    0.1331: real time    0.2070
       DOS:  cpu time    0.0006: real time    0.0006
    CHARGE:  cpu time    0.0654: real time    0.0657
    MIXING:  cpu time    0.0147: real time    0.0147
    --------------------------------------------
      LOOP:  cpu time    0.4806: real time    0.5587

 eigenvalue-minimisations  :    72
 total energy-change (2. order) :-0.1464333E-03  (-0.7182265E-06)
 number of electron      19.9999951 magnetization 
 augmentation part        0.8176147 magnetization 

 Broyden mixing:
  rms(total) = 0.28952E-03    rms(broyden)= 0.28943E-03
  rms(prec ) = 0.35727E-03
  weight for this iteration     100.00

 eigenvalues of (default mixing * dielectric matrix)
  average eigenvalue GAMMA=   2.0216
  6.9190  3.3799  2.4950  1.9223  1.9223  0.6316  1.2989  1.2989  0.9383  0.9383
  1.2992  1.2162

 Free energy of the ion-electron system (eV)
  ---------------------------------------------------
  alpha Z        PSCENC =         0.56547974
  Ewald energy   TEWEN  =       986.96791892
  -Hartree energ DENC   =     -1824.07367463
  -exchange      EXHF   =         0.00000000
  -V(xc)+E(xc)   XCENC  =        82.11209389
  PAW double counting   =      2397.81720094    -2403.71313693
  entropy T*S    EENTRO =        -0.00000000
  eigenvalues    EBANDS =      -315.50419713
  atomic energy  EATOM  =      1055.44145440
  Solvation  Ediel_sol  =         0.00000000
  ---------------------------------------------------
  free energy    TOTEN  =       -20.38686079 eV

  energy without entropy =      -20.38686079  energy(sigma->0) =      -20.38686079


--------------------------------------------------------------------------------------------------------




----------------------------------------- Iteration    1(  18)  ---------------------------------------


    POTLOK:  cpu time    0.2469: real time    0.2481
    SETDIJ:  cpu time    0.0016: real time    0.0016
     EDDAV:  cpu time    0.1187: real time    0.1935
       DOS:  cpu time    0.0004: real time    0.0004
    CHARGE:  cpu time    0.0548: real time    0.0550
    MIXING:  cpu time    0.0151: real time    0.0151
    --------------------------------------------
      LOOP:  cpu time    0.4397: real time    0.5172

 eigenvalue-minimisations  :    66
 total energy-change (2. order) :-0.7564404E-04  (-0.3136247E-06)
 number of electron      19.9999951 magnetization 
 augmentation part        0.8176130 magnetization 

 Broyden mixing:
  rms(total) = 0.18405E-03    rms(broyden)= 0.18400E-03
  rms(prec ) = 0.21735E-03
  weight for this iteration     100.00

 eigenvalues of (default mixing * dielectric matrix)
  average eigenvalue GAMMA=   2.1117
  7.7433  3.8974  2.4643  2.4643  1.7480  1.4561  1.4561  0.6316  1.3150  1.3150
  0.9358  1.0129  1.0129

 Free energy of the ion-electron system (eV)
  ---------------------------------------------------
  alpha Z        PSCENC =         0.56547974
  Ewald energy   TEWEN  =       986.96791892
  -Hartree energ DENC   =     -1824.07314373
  -exchange      EXHF   =         0.00000000
  -V(xc)+E(xc)   XCENC  =        82.11180341
  PAW double counting   =      2397.79527342    -2403.69118573
  entropy T*S    EENTRO =        -0.00000000
  eigenvalues    EBANDS =      -315.50453688
  atomic energy  EATOM  =      1055.44145440
  Solvation  Ediel_sol  =         0.00000000
  ---------------------------------------------------
  free energy    TOTEN  =       -20.38693643 eV

  energy without entropy =      -20.38693643  energy(sigma->0) =      -20.38693643


--------------------------------------------------------------------------------------------------------




----------------------------------------- Iteration    1(  19)  ---------------------------------------


    POTLOK:  cpu time    0.1948: real time    0.1951
    SETDIJ:  cpu time    0.0016: real time    0.0016
     EDDAV:  cpu time    0.1287: real time    0.1946
       DOS:  cpu time    0.0002: real time    0.0002
    CHARGE:  cpu time    0.0545: real time    0.0547
    MIXING:  cpu time    0.0134: real time    0.0134
    --------------------------------------------
      LOOP:  cpu time    0.3952: real time    0.4629

 eigenvalue-minimisations  :    72
 total energy-change (2. order) :-0.4194028E-04  (-0.1155482E-06)
 number of electron      19.9999951 magnetization 
 augmentation part        0.8176148 magnetization 

 Broyden mixing:
  rms(total) = 0.55324E-04    rms(broyden)= 0.55194E-04
  rms(prec ) = 0.81243E-04
  weight for this iteration     100.00

 eigenvalues of (default mixing * dielectric matrix)
  average eigenvalue GAMMA=   2.1672
  8.3040  4.5874  2.6732  2.4642  1.8265  1.8265  0.6316  1.3228  1.3228  1.2769
  1.2769  0.9498  0.9498  0.9290

 Free energy of the ion-electron system (eV)
  ---------------------------------------------------
  alpha Z        PSCENC =         0.56547974
  Ewald energy   TEWEN  =       986.96791892
  -Hartree energ DENC   =     -1824.07002380
  -exchange      EXHF   =         0.00000000
  -V(xc)+E(xc)   XCENC  =        82.11161004
  PAW double counting   =      2397.64180433    -2403.53763296
  entropy T*S    EENTRO =        -0.00000000
  eigenvalues    EBANDS =      -315.50758906
  atomic energy  EATOM  =      1055.44145440
  Solvation  Ediel_sol  =         0.00000000
  ---------------------------------------------------
  free energy    TOTEN  =       -20.38697837 eV

  energy without entropy =      -20.38697837  energy(sigma->0) =      -20.38697837


--------------------------------------------------------------------------------------------------------




----------------------------------------- Iteration    1(  20)  ---------------------------------------


    POTLOK:  cpu time    0.1971: real time    0.1981
    SETDIJ:  cpu time    0.0015: real time    0.0015
     EDDAV:  cpu time    0.1081: real time    0.1822
       DOS:  cpu time    0.0003: real time    0.0003
    CHARGE:  cpu time    0.0545: real time    0.0549
    MIXING:  cpu time    0.0140: real time    0.0143
    --------------------------------------------
      LOOP:  cpu time    0.3773: real time    0.4541

 eigenvalue-minimisations  :    60
 total energy-change (2. order) :-0.1690144E-04  (-0.2196959E-07)
 number of electron      19.9999951 magnetization 
 augmentation part        0.8176149 magnetization 

 Broyden mixing:
  rms(total) = 0.45134E-04    rms(broyden)= 0.45119E-04
  rms(prec ) = 0.58365E-04
  weight for this iteration     100.00

 eigenvalues of (default mixing * dielectric matrix)
  average eigenvalue GAMMA=   2.2180
  8.6795  4.9376  2.9177  2.5429  2.4040  1.7607  0.6316  1.3444  1.3444  1.3578
  1.3578  1.0663  1.0663  0.9294  0.9294

 Free energy of the ion-electron system (eV)
  ---------------------------------------------------
  alpha Z        PSCENC =         0.56547974
  Ewald energy   TEWEN  =       986.96791892
  -Hartree energ DENC   =     -1824.06901270
  -exchange      EXHF   =         0.00000000
  -V(xc)+E(xc)   XCENC  =        82.11155144
  PAW double counting   =      2397.63116968    -2403.52699584
  entropy T*S    EENTRO =        -0.00000000
  eigenvalues    EBANDS =      -315.50856092
  atomic energy  EATOM  =      1055.44145440
  Solvation  Ediel_sol  =         0.00000000
  ---------------------------------------------------
  free energy    TOTEN  =       -20.38699527 eV

  energy without entropy =      -20.38699527  energy(sigma->0) =      -20.38699527


--------------------------------------------------------------------------------------------------------




----------------------------------------- Iteration    1(  21)  ---------------------------------------


    POTLOK:  cpu time    0.2044: real time    0.2048
    SETDIJ:  cpu time    0.0016: real time    0.0016
     EDDAV:  cpu time    0.1205: real time    0.2005
       DOS:  cpu time    0.0005: real time    0.0005
    CHARGE:  cpu time    0.0708: real time    0.0711
    MIXING:  cpu time    0.0175: real time    0.0177
    --------------------------------------------
      LOOP:  cpu time    0.4171: real time    0.4989

 eigenvalue-minimisations  :    60
 total energy-change (2. order) :-0.9318753E-05  (-0.7112309E-08)
 number of electron      19.9999951 magnetization 
 augmentation part        0.8176147 magnetization 

 Broyden mixing:
  rms(total) = 0.33210E-04    rms(broyden)= 0.33205E-04
  rms(prec ) = 0.38749E-04
  weight for this iteration     100.00

 eigenvalues of (default mixing * dielectric matrix)
  average eigenvalue GAMMA=   2.2263
  8.7324  5.3432  3.3456  2.5013  2.4019  1.8599  1.8599  0.6316  1.2990  1.2990
  1.2774  1.2774  0.9743  0.9743  0.9220  0.9220

 Free energy of the ion-electron system (eV)
  ---------------------------------------------------
  alpha Z        PSCENC =         0.56547974
  Ewald energy   TEWEN  =       986.96791892
  -Hartree energ DENC   =     -1824.06974568
  -exchange      EXHF   =         0.00000000
  -V(xc)+E(xc)   XCENC  =        82.11157545
  PAW double counting   =      2397.65579957    -2403.55164369
  entropy T*S    EENTRO =        -0.00000000
  eigenvalues    EBANDS =      -315.50784329
  atomic energy  EATOM  =      1055.44145440
  Solvation  Ediel_sol  =         0.00000000
  ---------------------------------------------------
  free energy    TOTEN  =       -20.38700459 eV

  energy without entropy =      -20.38700459  energy(sigma->0) =      -20.38700459


--------------------------------------------------------------------------------------------------------




----------------------------------------- Iteration    1(  22)  ---------------------------------------


    POTLOK:  cpu time    0.2060: real time    0.2066
    SETDIJ:  cpu time    0.0015: real time    0.0015
     EDDAV:  cpu time    0.1112: real time    0.2011
       DOS:  cpu time    0.0002: real time    0.0002
    --------------------------------------------
      LOOP:  cpu time    0.3210: real time    0.4125

 eigenvalue-minimisations  :    36
 total energy-change (2. order) :-0.2179882E-05  (-0.7783640E-09)
 number of electron      19.9999951 magnetization 
 augmentation part        0.8176147 magnetization 

 Free energy of the ion-electron system (eV)
  ---------------------------------------------------
  alpha Z        PSCENC =         0.56547974
  Ewald energy   TEWEN  =       986.96791892
  -Hartree energ DENC   =     -1824.07048317
  -exchange      EXHF   =         0.00000000
  -V(xc)+E(xc)   XCENC  =        82.11160393
  PAW double counting   =      2397.66209067    -2403.55793957
  entropy T*S    EENTRO =        -0.00000000
  eigenvalues    EBANDS =      -315.50713169
  atomic energy  EATOM  =      1055.44145440
  Solvation  Ediel_sol  =         0.00000000
  ---------------------------------------------------
  free energy    TOTEN  =       -20.38700677 eV

  energy without entropy =      -20.38700677  energy(sigma->0) =      -20.38700677


--------------------------------------------------------------------------------------------------------




 average (electrostatic) potential at core
  the test charge radii are     0.7089
  (the norm of the test charge is              1.0000)
       1 -76.8509       2 -76.5472       3 -76.9989       4 -76.9989
 
 
 
 E-fermi :  -4.9444     XC(G=0):  -0.4161     alpha+bet : -0.1140


 k-point     1 :       0.0000    0.0000    0.0000
  band No.  band energies     occupation 
      1     -33.7772      2.00000
      2     -27.8225      2.00000
      3     -16.3843      2.00000
      4     -15.9444      2.00000
      5     -15.4433      2.00000
      6     -11.5019      2.00000
      7     -11.0722      2.00000
      8     -10.5699      2.00000
      9     -10.0330      2.00000
     10      -5.2049      2.00000
     11      -3.7090      0.00000
     12      -1.5072      0.00000
     13      -0.3870      0.00000
     14      -0.1839      0.00000
     15       0.3622      0.00000
     16       0.4591      0.00000
     17       0.4640      0.00000
     18       0.4881      0.00000


--------------------------------------------------------------------------------------------------------


 soft charge-density along one line, spin component           1
         0         1         2         3         4         5         6         7         8         9
 total charge-density along one line
 
 pseudopotential strength for first ion, spin component:           1
 14.311  17.192   0.000  -0.008  -0.019   0.000  -0.016  -0.052
 17.192  20.654   0.000  -0.009  -0.024   0.000  -0.020  -0.064
  0.000   0.000  -7.638   0.000   0.000 -10.652   0.000   0.000
 -0.008  -0.009   0.000  -7.645  -0.007   0.000 -10.663  -0.011
 -0.019  -0.024   0.000  -0.007  -7.702   0.000  -0.011 -10.757
  0.000   0.000 -10.652   0.000   0.000 -14.213   0.000   0.000
 -0.016  -0.020   0.000 -10.663  -0.011   0.000 -14.231  -0.018
 -0.052  -0.064   0.000  -0.011 -10.757   0.000  -0.018 -14.381
 total augmentation occupancy for first ion, spin component:           1
 12.106  -7.090   0.000   0.384   2.862   0.000  -0.350  -0.870
 -7.090   4.794   0.000  -0.334  -2.376   0.000   0.338   0.649
  0.000   0.000   1.395   0.000   0.000  -0.171   0.000   0.000
  0.384  -0.334   0.000   1.529   0.029   0.000  -0.223  -0.014
  2.862  -2.376   0.000   0.029   2.472   0.000  -0.036  -0.416
  0.000   0.000  -0.171   0.000   0.000   0.031   0.000   0.000
 -0.350   0.338   0.000  -0.223  -0.036   0.000   0.107   0.024
 -0.870   0.649   0.000  -0.014  -0.416   0.000   0.024   0.172


------------------------ aborting loop because EDIFF is reached ----------------------------------------


    CHARGE:  cpu time    0.0806: real time    0.0814
    FORLOC:  cpu time    0.0147: real time    0.0147
    FORNL :  cpu time    0.0385: real time    0.1659
    STRESS:  cpu time    0.1161: real time    0.4177
    FORCOR:  cpu time    0.3917: real time    0.3930
    FORHAR:  cpu time    0.1099: real time    0.1099
    MIXING:  cpu time    0.0227: real time    0.0227
    OFIELD:  cpu time    0.0002: real time    0.0002

  FORCE on cell =-STRESS in cart. coord.  units (eV):
  Direction    XX          YY          ZZ          XY          YZ          ZX
  --------------------------------------------------------------------------------------
  Alpha Z     0.56548     0.56548     0.56548
  Ewald     232.33421   248.42072   506.21282     0.00000     0.00000   -15.34117
  Hartree   530.28409   517.06653   776.71987    -0.00000    -0.00000   -10.93757
  E(xc)     -87.08533   -87.07076   -86.95033     0.00000     0.00000    -0.01676
  Local   -1020.42303 -1001.22055 -1554.57879     0.00000     0.00000    26.38019
  n-local   -41.60374   -40.72462   -36.97604     0.00000    -0.00000     0.23778
  augment     2.95852     1.77407     3.38644    -0.00000    -0.00000    -0.03429
  Kinetic   380.85254   383.71303   429.84084    -0.00000     0.00000    -1.86571
  Fock        0.00000     0.00000     0.00000     0.00000     0.00000     0.00000
  -------------------------------------------------------------------------------------
  Total      -2.11726    22.52390    38.22029     0.00000     0.00000    -1.57752
  in kB      -1.11271    11.83723    20.08633     0.00000     0.00000    -0.82905
  external pressure =       10.27 kB  Pullay stress =        0.00 kB


 VOLUME and BASIS-vectors are now :
 -----------------------------------------------------------------------------
  energy-cutoff  :      300.00
  volume of cell :     3048.62
      direct lattice vectors                 reciprocal lattice vectors
    14.500000000  0.000000000  0.000000000     0.068965517  0.000000000  0.000000000
     0.000000000 14.500000000  0.000000000     0.000000000  0.068965517  0.000000000
     0.000000000  0.000000000 14.500000000     0.000000000  0.000000000  0.068965517

  length of vectors
    14.500000000 14.500000000 14.500000000     0.068965517  0.068965517  0.068965517


 FORCES acting on ions
    electron-ion (+dipol)            ewald-force                    non-local-force                 convergence-correction
 -----------------------------------------------------------------------------------------------
   0.322E+03 0.109E-12 0.223E+03   -.375E+03 -.142E-13 -.235E+03   0.456E+02 -.579E-23 -.420E+01   0.353E-04 -.746E-13 -.289E-05
   -.331E+03 -.613E-13 0.212E+03   0.386E+03 0.711E-14 -.222E+03   -.453E+02 -.993E-23 -.717E+01   -.317E-04 -.712E-13 0.329E-04
   0.521E+01 0.353E+03 -.218E+03   -.514E+01 -.436E+03 0.229E+03   -.643E+00 0.492E+02 0.555E+01   0.298E-04 0.416E-04 0.918E-05
   0.521E+01 -.353E+03 -.218E+03   -.514E+01 0.436E+03 0.229E+03   -.643E+00 -.492E+02 0.555E+01   0.298E-04 -.416E-04 0.918E-05
 -----------------------------------------------------------------------------------------------
   0.917E+00 0.202E-11 0.343E+00   -.497E-13 0.000E+00 0.000E+00   -.962E+00 0.000E+00 -.270E+00   0.632E-04 -.186E-12 0.484E-04
 
 
 POSITION                                       TOTAL-FORCE (eV/Angst)
 -----------------------------------------------------------------------------------
      0.00000      0.00000      0.00000        -8.165125      0.000000    -16.542660
      1.10000      0.00000      0.00000         9.283062      0.000000    -16.467641
      0.50000     14.00000      1.50000        -0.558969    -33.046490     16.505151
      0.50000      0.50000      1.50000        -0.558969     33.046490     16.505151
 -----------------------------------------------------------------------------------
    total drift:                               -0.045218      0.000000      0.072283


--------------------------------------------------------------------------------------------------------



  FREE ENERGIE OF THE ION-ELECTRON SYSTEM (eV)
  ---------------------------------------------------
  free  energy   TOTEN  =       -20.38700677 eV

  energy  without entropy=      -20.38700677  energy(sigma->0) =      -20.38700677
 


--------------------------------------------------------------------------------------------------------


    POTLOK:  cpu time    0.3991: real time    0.3997


--------------------------------------------------------------------------------------------------------


     LOOP+:  cpu time    9.5503: real time   11.7750
    4ORBIT:  cpu time    0.0000: real time    0.0000

 total amount of memory used by VASP MPI-rank0    74237. kBytes
=======================================================================

   base      :      30000. kBytes
   nonlr-proj:       1204. kBytes
   fftplans  :      13257. kBytes
   grid      :      28033. kBytes
   one-center:         12. kBytes
   wavefun   :       1731. kBytes
 
  
  
 General timing and accounting informations for this job:
 ========================================================
  
                  Total CPU time used (sec):       11.081
                            User time (sec):        4.708
                          System time (sec):        6.373
                         Elapsed time (sec):       14.365
  
                   Maximum memory used (kb):      350516.
                   Average memory used (kb):           0.
  
                          Minor page faults:       474184
                          Major page faults:            0
                 Voluntary context switches:         3025
