       N       E                     dE             d eps       ncg     rms          rms(c)
DAV:   1     0.182168647804E+05    0.18217E+05   -0.91710E+05 12216   0.112E+03
DAV:   2    -0.167460266904E+03   -0.18384E+05   -0.17396E+05 12864   0.399E+02
DAV:   3    -0.140370642477E+04   -0.12362E+04   -0.10222E+04 13896   0.103E+02
DAV:   4    -0.157269316248E+04   -0.16899E+03   -0.14981E+03 21996   0.381E+01
DAV:   5    -0.157900356614E+04   -0.63104E+01   -0.59489E+01 20232   0.711E+00    0.146E+02
DAV:   6    -0.184192795728E+04   -0.26292E+03   -0.32117E+03 13536   0.140E+02    0.245E+02
DAV:   7    -0.192470571104E+04   -0.82778E+02   -0.13212E+03 13200   0.151E+02    0.200E+02
DAV:   8    -0.173865225619E+04    0.18605E+03   -0.55327E+02 15336   0.877E+01    0.192E+02
DAV:   9    -0.187172795321E+04   -0.13308E+03   -0.18270E+02 13212   0.108E+02    0.212E+02
DAV:  10    -0.144770538562E+04    0.42402E+03   -0.33579E+02 14688   0.743E+01    0.167E+02
DAV:  11    -0.151835612833E+04   -0.70651E+02   -0.29802E+02 13032   0.754E+01    0.155E+02
DAV:  12    -0.143792704705E+04    0.80429E+02   -0.21614E+02 12984   0.681E+01    0.150E+02
DAV:  13    -0.138438796551E+04    0.53539E+02   -0.92083E+01 12864   0.466E+01    0.129E+02
DAV:  14    -0.134802994041E+04    0.36358E+02   -0.48684E+01 12840   0.343E+01    0.851E+01
DAV:  15    -0.135227783202E+04   -0.42479E+01   -0.42620E+01 13176   0.353E+01    0.110E+02
DAV:  16    -0.134637085657E+04    0.59070E+01   -0.33272E+01 13200   0.286E+01    0.105E+02
