 254 254   0   0
  0.3019211E+02  0.1718057E-08  0.1718057E-08  0.3000000E-08  0.5000000E-15
  1.000000000000000E-004
  CAR 
 NiAl                                    
      5.02526558    -15.21174055  301      1.74359171      1.00000000
    -15.212  0.0000E+00  0.0000E+00
    -15.144  0.0000E+00  0.0000E+00
    -15.077  0.0000E+00  0.0000E+00
    -15.009  0.0000E+00  0.0000E+00
    -14.942  0.0000E+00  0.0000E+00
    -14.874  0.0000E+00  0.0000E+00
    -14.807  0.0000E+00  0.0000E+00
    -14.740  0.0000E+00  0.0000E+00
    -14.672  0.0000E+00  0.0000E+00
    -14.605  0.0000E+00  0.0000E+00
    -14.537  0.5858E-10  0.3952E-11
    -14.470  0.7235E-05  0.4881E-06
    -14.402  0.2653E-01  0.1790E-02
    -14.335  0.3299E+01  0.2244E+00
    -14.267  0.1908E+02  0.1512E+01
    -14.200  0.7102E+01  0.1991E+01
    -14.132  0.1377E+00  0.2000E+01
    -14.065  0.9661E-04  0.2000E+01
    -13.998  0.2063E-08  0.2000E+01
    -13.930  0.0000E+00  0.2000E+01
    -13.863  0.0000E+00  0.2000E+01
    -13.795  0.0000E+00  0.2000E+01
    -13.728  0.0000E+00  0.2000E+01
    -13.660  0.0000E+00  0.2000E+01
    -13.593  0.0000E+00  0.2000E+01
    -13.525  0.0000E+00  0.2000E+01
    -13.458  0.0000E+00  0.2000E+01
    -13.390  0.0000E+00  0.2000E+01
    -13.323  0.0000E+00  0.2000E+01
    -13.255  0.0000E+00  0.2000E+01
    -13.188  0.0000E+00  0.2000E+01
    -13.121  0.0000E+00  0.2000E+01
    -13.053  0.0000E+00  0.2000E+01
    -12.986  0.0000E+00  0.2000E+01
    -12.918  0.0000E+00  0.2000E+01
    -12.851  0.0000E+00  0.2000E+01
    -12.783  0.0000E+00  0.2000E+01
    -12.716  0.0000E+00  0.2000E+01
    -12.648  0.0000E+00  0.2000E+01
    -12.581  0.0000E+00  0.2000E+01
    -12.513  0.0000E+00  0.2000E+01
    -12.446  0.0000E+00  0.2000E+01
    -12.379  0.0000E+00  0.2000E+01
    -12.311  0.0000E+00  0.2000E+01
    -12.244  0.0000E+00  0.2000E+01
    -12.176  0.0000E+00  0.2000E+01
    -12.109  0.0000E+00  0.2000E+01
    -12.041  0.0000E+00  0.2000E+01
    -11.974  0.0000E+00  0.2000E+01
    -11.906  0.0000E+00  0.2000E+01
    -11.839  0.0000E+00  0.2000E+01
    -11.771  0.0000E+00  0.2000E+01
    -11.704  0.0000E+00  0.2000E+01
    -11.637  0.0000E+00  0.2000E+01
    -11.569  0.0000E+00  0.2000E+01
    -11.502  0.0000E+00  0.2000E+01
    -11.434  0.0000E+00  0.2000E+01
    -11.367  0.0000E+00  0.2000E+01
    -11.299  0.0000E+00  0.2000E+01
    -11.232  0.0000E+00  0.2000E+01
    -11.164  0.0000E+00  0.2000E+01
    -11.097  0.0000E+00  0.2000E+01
    -11.029  0.0000E+00  0.2000E+01
    -10.962  0.0000E+00  0.2000E+01
    -10.895  0.0000E+00  0.2000E+01
    -10.827  0.0000E+00  0.2000E+01
    -10.760  0.0000E+00  0.2000E+01
    -10.692  0.0000E+00  0.2000E+01
    -10.625  0.0000E+00  0.2000E+01
    -10.557  0.0000E+00  0.2000E+01
    -10.490  0.0000E+00  0.2000E+01
    -10.422  0.0000E+00  0.2000E+01
    -10.355  0.0000E+00  0.2000E+01
    -10.287  0.0000E+00  0.2000E+01
    -10.220  0.0000E+00  0.2000E+01
    -10.152  0.0000E+00  0.2000E+01
    -10.085  0.0000E+00  0.2000E+01
    -10.018  0.0000E+00  0.2000E+01
     -9.950  0.0000E+00  0.2000E+01
     -9.883  0.0000E+00  0.2000E+01
     -9.815  0.0000E+00  0.2000E+01
     -9.748  0.0000E+00  0.2000E+01
     -9.680  0.0000E+00  0.2000E+01
     -9.613  0.0000E+00  0.2000E+01
     -9.545  0.0000E+00  0.2000E+01
     -9.478  0.1313E-11  0.2000E+01
     -9.410  0.4261E-06  0.2000E+01
     -9.343  0.4033E-02  0.2000E+01
     -9.276  0.1244E+01  0.2084E+01
     -9.208  0.1691E+02  0.3225E+01
     -9.141  0.1711E+02  0.4379E+01
     -9.073  0.3203E+01  0.4595E+01
     -9.006  0.2182E+02  0.6067E+01
     -8.938  0.2015E+02  0.7426E+01
     -8.871  0.1659E+01  0.7538E+01
     -8.803  0.4504E+01  0.7842E+01
     -8.736  0.4556E+01  0.8149E+01
     -8.668  0.3803E+02  0.1071E+02
     -8.601  0.4502E+02  0.1375E+02
     -8.534  0.1419E+02  0.1471E+02
     -8.466  0.2877E+02  0.1665E+02
     -8.399  0.5787E+01  0.1704E+02
     -8.331  0.1667E+02  0.1816E+02
     -8.264  0.2496E+02  0.1985E+02
     -8.196  0.9058E+01  0.2046E+02
     -8.129  0.3382E+02  0.2274E+02
     -8.061  0.1935E+02  0.2405E+02
     -7.994  0.7673E+02  0.2922E+02
     -7.926  0.4687E+02  0.3238E+02
     -7.859  0.1720E+01  0.3250E+02
     -7.792  0.5334E-01  0.3250E+02
     -7.724  0.9733E+01  0.3316E+02
     -7.657  0.9686E+02  0.3969E+02
     -7.589  0.6847E+02  0.4431E+02
     -7.522  0.1544E+02  0.4535E+02
     -7.454  0.2781E+02  0.4723E+02
     -7.387  0.6845E+01  0.4769E+02
     -7.319  0.2920E+02  0.4966E+02
     -7.252  0.2102E+02  0.5108E+02
     -7.184  0.3850E+02  0.5368E+02
     -7.117  0.4609E+02  0.5679E+02
     -7.049  0.3097E+02  0.5887E+02
     -6.982  0.1157E+03  0.6668E+02
     -6.915  0.3546E+02  0.6907E+02
     -6.847  0.3609E+02  0.7151E+02
     -6.780  0.4793E+02  0.7474E+02
     -6.712  0.2974E+02  0.7675E+02
     -6.645  0.1162E+03  0.8458E+02
     -6.577  0.3867E+02  0.8719E+02
     -6.510  0.2762E+02  0.8906E+02
     -6.442  0.1362E+02  0.8997E+02
     -6.375  0.5317E+00  0.9001E+02
     -6.307  0.3250E+01  0.9023E+02
     -6.240  0.1462E+02  0.9122E+02
     -6.173  0.1102E+03  0.9865E+02
     -6.105  0.9491E+02  0.1051E+03
     -6.038  0.7825E+02  0.1103E+03
     -5.970  0.9710E+02  0.1169E+03
     -5.903  0.1453E+02  0.1179E+03
     -5.835  0.3961E+02  0.1205E+03
     -5.768  0.4442E+02  0.1235E+03
     -5.700  0.8886E+02  0.1295E+03
     -5.633  0.1117E+03  0.1371E+03
     -5.565  0.2866E+02  0.1390E+03
     -5.498  0.2983E+02  0.1410E+03
     -5.431  0.1187E+02  0.1418E+03
     -5.363  0.6617E+02  0.1463E+03
     -5.296  0.6015E+02  0.1503E+03
     -5.228  0.3026E+02  0.1524E+03
     -5.161  0.9549E+02  0.1588E+03
     -5.093  0.6650E+02  0.1633E+03
     -5.026  0.8883E+02  0.1693E+03
     -4.958  0.3867E+02  0.1719E+03
     -4.891  0.6744E+01  0.1723E+03
     -4.823  0.5139E+02  0.1758E+03
     -4.756  0.6984E+02  0.1805E+03
     -4.688  0.1461E+03  0.1904E+03
     -4.621  0.4600E+02  0.1935E+03
     -4.554  0.6079E+02  0.1976E+03
     -4.486  0.5448E+02  0.2013E+03
     -4.419  0.2247E+02  0.2028E+03
     -4.351  0.6854E+02  0.2074E+03
     -4.284  0.6422E+02  0.2117E+03
     -4.216  0.1277E+03  0.2203E+03
     -4.149  0.1184E+03  0.2283E+03
     -4.081  0.8080E+02  0.2338E+03
     -4.014  0.5944E+02  0.2378E+03
     -3.946  0.2051E+02  0.2392E+03
     -3.879  0.8688E+02  0.2450E+03
     -3.812  0.7244E+02  0.2499E+03
     -3.744  0.8141E+02  0.2554E+03
     -3.677  0.8577E+02  0.2612E+03
     -3.609  0.4124E+02  0.2640E+03
     -3.542  0.7521E+02  0.2690E+03
     -3.474  0.3246E+02  0.2712E+03
     -3.407  0.4304E+01  0.2715E+03
     -3.339  0.2011E+02  0.2729E+03
     -3.272  0.8237E+02  0.2784E+03
     -3.204  0.9260E+02  0.2847E+03
     -3.137  0.8403E+02  0.2904E+03
     -3.070  0.1254E+03  0.2988E+03
     -3.002  0.6880E+02  0.3035E+03
     -2.935  0.1070E+03  0.3107E+03
     -2.867  0.1627E+03  0.3217E+03
     -2.800  0.1788E+03  0.3337E+03
     -2.732  0.1355E+03  0.3429E+03
     -2.665  0.9452E+01  0.3435E+03
     -2.597  0.1854E+00  0.3435E+03
     -2.530  0.9752E+01  0.3442E+03
     -2.462  0.4867E+02  0.3475E+03
     -2.395  0.8178E+02  0.3530E+03
     -2.328  0.1442E+03  0.3627E+03
     -2.260  0.9891E+02  0.3694E+03
     -2.193  0.5314E+02  0.3729E+03
     -2.125  0.1174E+03  0.3809E+03
     -2.058  0.4306E+02  0.3838E+03
     -1.990  0.6894E+02  0.3884E+03
     -1.923  0.1077E+03  0.3957E+03
     -1.855  0.1187E+03  0.4037E+03
     -1.788  0.1708E+03  0.4152E+03
     -1.720  0.4238E+02  0.4181E+03
     -1.653  0.3903E+02  0.4207E+03
     -1.585  0.7597E+02  0.4258E+03
     -1.518  0.8554E+02  0.4316E+03
     -1.451  0.4322E+02  0.4345E+03
     -1.383  0.1890E+03  0.4473E+03
     -1.316  0.1427E+03  0.4569E+03
     -1.248  0.9459E+02  0.4633E+03
     -1.181  0.1524E+03  0.4736E+03
     -1.113  0.7590E+02  0.4787E+03
     -1.046  0.7748E+02  0.4839E+03
     -0.978  0.6826E+02  0.4885E+03
     -0.911  0.1320E+03  0.4974E+03
     -0.843  0.1276E+03  0.5060E+03
     -0.776  0.7326E+02  0.5110E+03
     -0.709  0.6276E+02  0.5152E+03
     -0.641  0.2567E+02  0.5169E+03
     -0.574  0.6204E+02  0.5211E+03
     -0.506  0.1431E+03  0.5308E+03
     -0.439  0.2372E+03  0.5468E+03
     -0.371  0.7930E+02  0.5521E+03
     -0.304  0.1127E+03  0.5597E+03
     -0.236  0.1447E+03  0.5695E+03
     -0.169  0.4144E+02  0.5723E+03
     -0.101  0.4130E+02  0.5750E+03
     -0.034  0.2960E+02  0.5770E+03
      0.033  0.1313E+03  0.5859E+03
      0.101  0.7741E+02  0.5911E+03
      0.168  0.9114E+02  0.5973E+03
      0.236  0.9265E+02  0.6035E+03
      0.303  0.7564E+02  0.6086E+03
      0.371  0.6771E+02  0.6132E+03
      0.438  0.1566E+03  0.6238E+03
      0.506  0.1164E+03  0.6316E+03
      0.573  0.6198E+02  0.6358E+03
      0.641  0.6733E+02  0.6403E+03
      0.708  0.2486E+02  0.6420E+03
      0.775  0.5735E+02  0.6459E+03
      0.843  0.6649E+02  0.6504E+03
      0.910  0.1932E+03  0.6634E+03
      0.978  0.2726E+03  0.6818E+03
      1.045  0.1257E+03  0.6903E+03
      1.113  0.1023E+03  0.6972E+03
      1.180  0.7495E+02  0.7022E+03
      1.248  0.7101E+02  0.7070E+03
      1.315  0.6356E+02  0.7113E+03
      1.383  0.8970E+02  0.7173E+03
      1.450  0.9640E+02  0.7238E+03
      1.518  0.1472E+03  0.7338E+03
      1.585  0.1729E+03  0.7454E+03
      1.652  0.1856E+03  0.7580E+03
      1.720  0.9811E+02  0.7646E+03
      1.787  0.4158E+02  0.7674E+03
      1.855  0.6694E+02  0.7719E+03
      1.922  0.1741E+03  0.7836E+03
      1.990  0.1766E+03  0.7956E+03
      2.057  0.7745E+02  0.8008E+03
      2.125  0.6962E+02  0.8055E+03
      2.192  0.8514E+02  0.8112E+03
      2.260  0.4977E+02  0.8146E+03
      2.327  0.6414E+02  0.8189E+03
      2.394  0.1359E+03  0.8281E+03
      2.462  0.8435E+02  0.8338E+03
      2.529  0.1001E+03  0.8405E+03
      2.597  0.1564E+03  0.8511E+03
      2.664  0.7637E+02  0.8562E+03
      2.732  0.6737E+02  0.8608E+03
      2.799  0.7698E+02  0.8660E+03
      2.867  0.2294E+03  0.8814E+03
      2.934  0.3238E+03  0.9033E+03
      3.002  0.1746E+03  0.9150E+03
      3.069  0.5833E+02  0.9190E+03
      3.136  0.4423E+02  0.9220E+03
      3.204  0.9715E+02  0.9285E+03
      3.271  0.1159E+03  0.9363E+03
      3.339  0.1327E+03  0.9453E+03
      3.406  0.1708E+03  0.9568E+03
      3.474  0.1023E+03  0.9637E+03
      3.541  0.6707E+02  0.9682E+03
      3.609  0.8976E+02  0.9743E+03
      3.676  0.1133E+03  0.9819E+03
      3.744  0.8105E+02  0.9874E+03
      3.811  0.6164E+02  0.9916E+03
      3.879  0.1389E+03  0.1001E+04
      3.946  0.1861E+03  0.1013E+04
      4.013  0.1580E+03  0.1024E+04
      4.081  0.8305E+02  0.1030E+04
      4.148  0.3088E+02  0.1032E+04
      4.216  0.2670E+01  0.1032E+04
      4.283  0.1526E-01  0.1032E+04
      4.351  0.3349E-05  0.1032E+04
      4.418  0.2316E-10  0.1032E+04
      4.486  0.0000E+00  0.1032E+04
      4.553  0.0000E+00  0.1032E+04
      4.621  0.0000E+00  0.1032E+04
      4.688  0.0000E+00  0.1032E+04
      4.755  0.0000E+00  0.1032E+04
      4.823  0.0000E+00  0.1032E+04
      4.890  0.0000E+00  0.1032E+04
      4.958  0.0000E+00  0.1032E+04
      5.025  0.0000E+00  0.1032E+04
