       N       E                     dE             d eps       ncg     rms          rms(c)
DAV:   1     0.211968081424E+04    0.21197E+04   -0.18391E+05  3120   0.734E+02
DAV:   2    -0.739848124095E+03   -0.28595E+04   -0.26987E+04  4224   0.192E+02
DAV:   3    -0.947032187690E+03   -0.20718E+03   -0.19536E+03  4284   0.399E+01
DAV:   4    -0.956396032977E+03   -0.93638E+01   -0.91943E+01  4428   0.893E+00
DAV:   5    -0.956899181225E+03   -0.50315E+00   -0.50016E+00  5160   0.211E+00    0.180E+01
DAV:   6    -0.975942118869E+03   -0.19043E+02   -0.19295E+02  4656   0.163E+01    0.221E+01
DAV:   7    -0.932006268190E+03    0.43936E+02   -0.13271E+02  3936   0.154E+01    0.988E+00
DAV:   8    -0.938901442203E+03   -0.68952E+01   -0.41213E+01  4224   0.786E+00    0.809E+00
DAV:   9    -0.933179260493E+03    0.57222E+01   -0.76415E+00  4032   0.763E+00    0.515E+00
DAV:  10    -0.929884566856E+03    0.32947E+01   -0.60939E+00  3876   0.361E+00    0.139E+00
DAV:  11    -0.929702279512E+03    0.18229E+00   -0.17490E+00  3876   0.166E+00    0.937E-01
DAV:  12    -0.929695021746E+03    0.72578E-02   -0.27508E-01  4236   0.665E-01    0.111E+00
DAV:  13    -0.929695930419E+03   -0.90867E-03   -0.33498E-01  3840   0.388E-01    0.128E+00
DAV:  14    -0.929640665387E+03    0.55265E-01   -0.55482E-02  3744   0.230E-01    0.493E-01
DAV:  15    -0.929660984208E+03   -0.20319E-01   -0.43191E-02  3744   0.153E-01    0.305E+00
DAV:  16    -0.929623501970E+03    0.37482E-01   -0.63670E-03  3720   0.766E-02    0.219E+00
DAV:  17    -0.929615032089E+03    0.84699E-02   -0.25339E-02  3684   0.949E-02    0.319E-01
DAV:  18    -0.929648374865E+03   -0.33343E-01   -0.16895E-02  3324   0.910E-02    0.933E-01
DAV:  19    -0.929649861396E+03   -0.14865E-02   -0.79959E-03  3648   0.546E-02    0.188E-01
DAV:  20    -0.929659975304E+03   -0.10114E-01   -0.11827E-03  3432   0.382E-02    0.194E-01
DAV:  21    -0.929663620306E+03   -0.36450E-02   -0.75216E-04  3408   0.269E-02    0.312E-01
DAV:  22    -0.929664563022E+03   -0.94272E-03   -0.34837E-04  3324   0.161E-02    0.198E-01
DAV:  23    -0.929666440837E+03   -0.18778E-02   -0.14952E-04  3432   0.109E-02    0.178E-01
DAV:  24    -0.929667745661E+03   -0.13048E-02   -0.25016E-04  3204   0.866E-03    0.115E-01
DAV:  25    -0.929669020692E+03   -0.12750E-02   -0.70227E-05  2904   0.633E-03    0.145E-01
DAV:  26    -0.929669689074E+03   -0.66838E-03   -0.55556E-05  2880   0.459E-03    0.108E-01
DAV:  27    -0.929670192468E+03   -0.50339E-03   -0.64803E-05  3000   0.418E-03    0.606E-02
DAV:  28    -0.929670452012E+03   -0.25954E-03   -0.10509E-05  2724   0.246E-03    0.596E-02
DAV:  29    -0.929670597557E+03   -0.14555E-03   -0.67570E-06  2472   0.160E-03    0.616E-02
DAV:  30    -0.929670624275E+03   -0.26718E-04   -0.16727E-06  2244   0.925E-04    0.533E-02
DAV:  31    -0.929670653179E+03   -0.28904E-04   -0.23008E-06  2124   0.908E-04    0.439E-02
DAV:  32    -0.929670673700E+03   -0.20521E-04   -0.82066E-07  2028   0.775E-04    0.396E-02
DAV:  33    -0.929670684597E+03   -0.10897E-04   -0.82482E-07  1848   0.640E-04    0.329E-02
DAV:  34    -0.929670694262E+03   -0.96646E-05   -0.23277E-06  2040   0.788E-04    0.211E-02
DAV:  35    -0.929670703594E+03   -0.93319E-05   -0.65020E-07  1836   0.641E-04    0.160E-02
DAV:  36    -0.929670708041E+03   -0.44469E-05   -0.36210E-07  1800   0.458E-04
   1 F= -.92967071E+03 E0= -.92964164E+03  d E =-.581390E-01
