 vasp.5.4.4.18Apr17-6-g9f103f2a35 (build May 02 2017 15:33:50) complex          
  
 executed on Intel-16.0.3.210-OMP date 2018.08.08  23:44:25
 running on    6 total cores
 distrk:  each k-point on    6 cores,    1 groups
 distr:  one band on NCORES_PER_BAND=   1 cores,    6 groups


--------------------------------------------------------------------------------------------------------


 INCAR:
 POTCAR:    PAW Al_GW 19Mar2012                   
 POTCAR:    PAW_PBE N 08Apr2002                   

 ----------------------------------------------------------------------------- 
|                                                                             |
|           W    W    AA    RRRRR   N    N  II  N    N   GGGG   !!!           |
|           W    W   A  A   R    R  NN   N  II  NN   N  G    G  !!!           |
|           W    W  A    A  R    R  N N  N  II  N N  N  G       !!!           |
|           W WW W  AAAAAA  RRRRR   N  N N  II  N  N N  G  GGG   !            |
|           WW  WW  A    A  R   R   N   NN  II  N   NN  G    G                |
|           W    W  A    A  R    R  N    N  II  N    N   GGGG   !!!           |
|                                                                             |
|      For optimal performance we recommend to set                            |
|        NCORE= 4 - approx SQRT( number of cores)                             |
|      NCORE specifies how many cores store one orbital (NPAR=cpu/NCORE).     |
|      This setting can  greatly improve the performance of VASP for DFT.     |
|      The default,   NCORE=1            might be grossly inefficient         |
|      on modern multi-core architectures or massively parallel machines.     |
|      Do your own testing !!!!                                               |
|      Unfortunately you need to use the default for GW and RPA calculations. |
|      (for HF NCORE is supported but not extensively tested yet)             |
|                                                                             |
 ----------------------------------------------------------------------------- 

 POTCAR:    PAW Al_GW 19Mar2012                   
   VRHFIN =Al: s2p1                                                             
   LEXCH  = PE                                                                  
   EATOM  =    53.5387 eV,    3.9350 Ry                                         
                                                                                
   TITEL  = PAW Al_GW 19Mar2012                                                 
   LULTRA =        F    use ultrasoft PP ?                                      
   IUNSCR =        1    unscreen: 0-lin 1-nonlin 2-no                           
   RPACOR =    1.500    partial core radius                                     
   POMASS =   26.982; ZVAL   =    3.000    mass and valenz                      
   RCORE  =    2.000    outmost cutoff radius                                   
   RWIGS  =    2.000; RWIGS  =    1.058    wigner-seitz radius (au A)           
   ENMAX  =  240.300; ENMIN  =  180.225 eV                                      
   ICORE  =        3    local potential                                         
   LCOR   =        T    correct aug charges                                     
   LPAW   =        T    paw PP                                                  
   EAUG   =  482.059                                                            
   DEXC   =    0.000                                                            
   RMAX   =    2.051    core radius for proj-oper                               
   RAUG   =    1.300    factor for augmentation sphere                          
   RDEP   =    2.096    radius for radial grids                                 
   RDEPT  =    1.856    core radius for aug-charge                              
                                                                                
   Atomic configuration                                                         
    7 entries                                                                   
     n  l   j            E        occ.                                          
     1  0  0.50     -1511.1048   2.0000                                         
     2  0  0.50      -108.1629   2.0000                                         
     2  1  1.50       -69.6402   6.0000                                         
     3  0  0.50        -7.7528   2.0000                                         
     3  1  1.50        -2.7121   1.0000                                         
     3  2  2.50        -2.7212   0.0000                                         
     4  3  2.50        -2.7212   0.0000                                         
   Description                                                                  
     l       E           TYP  RCUT    TYP  RCUT                                 
     0     -7.7528455     23  1.900                                             
     0     68.0291300     23  1.900                                             
     1     -2.7120682     23  1.900                                             
     1     68.0291300     23  1.900                                             
     2     -1.3605826     23  1.900                                             
     2     81.6349560     23  1.900                                             
     3     74.8320430     23  2.000                                             
  local pseudopotential read in
  partial core-charges read in
  partial kinetic energy density read in
  kinetic energy density of atom read in
  atomic valenz-charges read in
  non local Contribution for L=           0  read in
    real space projection operators read in
  non local Contribution for L=           0  read in
    real space projection operators read in
  non local Contribution for L=           1  read in
    real space projection operators read in
  non local Contribution for L=           1  read in
    real space projection operators read in
  non local Contribution for L=           2  read in
    real space projection operators read in
  non local Contribution for L=           2  read in
    real space projection operators read in
    PAW grid and wavefunctions read in
 
   number of l-projection  operators is LMAX  =           6
   number of lm-projection operators is LMMAX =          18
 
 POTCAR:    PAW_PBE N 08Apr2002                   
   VRHFIN =N: s2p3                                                              
   LEXCH  = PE                                                                  
   EATOM  =   264.5486 eV,   19.4438 Ry                                         
                                                                                
   TITEL  = PAW_PBE N 08Apr2002                                                 
   LULTRA =        F    use ultrasoft PP ?                                      
   IUNSCR =        1    unscreen: 0-lin 1-nonlin 2-no                           
   RPACOR =    1.200    partial core radius                                     
   POMASS =   14.001; ZVAL   =    5.000    mass and valenz                      
   RCORE  =    1.500    outmost cutoff radius                                   
   RWIGS  =    1.400; RWIGS  =    0.741    wigner-seitz radius (au A)           
   ENMAX  =  400.000; ENMIN  =  300.000 eV                                      
   ICORE  =        2    local potential                                         
   LCOR   =        T    correct aug charges                                     
   LPAW   =        T    paw PP                                                  
   EAUG   =  627.112                                                            
   DEXC   =    0.000                                                            
   RMAX   =    1.529    core radius for proj-oper                               
   RAUG   =    1.300    factor for augmentation sphere                          
   RDEP   =    1.514    radius for radial grids                                 
   RDEPT  =    1.338    core radius for aug-charge                              
                                                                                
   Atomic configuration                                                         
    4 entries                                                                   
     n  l   j            E        occ.                                          
     1  0  0.50      -384.7179   2.0000                                         
     2  0  0.50       -18.5828   2.0000                                         
     2  1  0.50        -7.0898   3.0000                                         
     3  2  1.50        -6.8029   0.0000                                         
   Description                                                                  
     l       E           TYP  RCUT    TYP  RCUT                                 
     0    -18.5828119     23  1.200                                             
     0    -13.5018863     23  1.200                                             
     1     -7.0897853     23  1.500                                             
     1      9.5240782     23  1.500                                             
     2     -6.8029130      7  1.500                                             
  local pseudopotential read in
  partial core-charges read in
  partial kinetic energy density read in
  atomic valenz-charges read in
  non local Contribution for L=           0  read in
    real space projection operators read in
  non local Contribution for L=           0  read in
    real space projection operators read in
  non local Contribution for L=           1  read in
    real space projection operators read in
  non local Contribution for L=           1  read in
    real space projection operators read in
    PAW grid and wavefunctions read in
 
   number of l-projection  operators is LMAX  =           4
   number of lm-projection operators is LMMAX =           8
 
 Optimization of the real space projectors (new method)

 maximal supplied QI-value         = 18.90
 optimisation between [QCUT,QGAM] = [  8.69, 17.57] = [ 21.16, 86.49] Ry 
 Optimized for a Real-space Cutoff    1.59 Angstroem

   l    n(q)    QCUT    max X(q) W(low)/X(q) W(high)/X(q)  e(spline) 
   0      8     8.693    11.519    0.12E-03    0.31E-04    0.21E-06
   0      8     8.693     5.834    0.89E-04    0.32E-04    0.16E-06
   1      8     8.693    10.132    0.25E-03    0.39E-03    0.25E-06
   1      8     8.693     3.004    0.16E-03    0.27E-03    0.22E-06
   2      7     8.693     3.169    0.39E-03    0.93E-03    0.44E-06
   2      7     8.693     1.605    0.70E-04    0.91E-04    0.19E-06
 Optimization of the real space projectors (new method)

 maximal supplied QI-value         = 25.13
 optimisation between [QCUT,QGAM] = [  8.80, 17.59] = [ 21.67, 86.68] Ry 
 Optimized for a Real-space Cutoff    2.14 Angstroem

   l    n(q)    QCUT    max X(q) W(low)/X(q) W(high)/X(q)  e(spline) 
   0     11     8.797    79.467    0.70E-04    0.19E-04    0.19E-05
   0     11     8.797    66.151    0.68E-04    0.18E-04    0.19E-05
   1     11     8.797     6.738    0.26E-03    0.11E-02    0.73E-05
   1     11     8.797     5.013    0.25E-03    0.11E-02    0.72E-05
  PAW Al_GW 19Mar2012                   :
 energy of atom  1       EATOM=  -53.5387
 kinetic energy error for atom=    0.0011 (will be added to EATOM!!)
  PAW_PBE N 08Apr2002                   :
 energy of atom  2       EATOM= -264.5486
 kinetic energy error for atom=    0.6882 (will be added to EATOM!!)
 
 
 POSCAR: New structure                           
  positions in cartesian coordinates
  No initial velocities read in
 exchange correlation table for  LEXCH =        8
   RHO(1)=    0.500       N(1)  =     2000
   RHO(2)=  100.500       N(2)  =     4000
 


--------------------------------------------------------------------------------------------------------


 ion  position               nearest neighbor table
   1  0.444  0.444  0.079-
   2  0.444  0.778  0.079-
   3  0.444  0.111  0.079-
   4  0.778  0.444  0.079-
   5  0.778  0.778  0.079-
   6  0.778  0.111  0.079-
   7  0.111  0.444  0.079-
   8  0.111  0.778  0.079-
   9  0.111  0.111  0.079-
  10  0.556  0.556  0.157-
  11  0.556  0.889  0.157-
  12  0.556  0.222  0.157-
  13  0.889  0.556  0.157-
  14  0.889  0.889  0.157-
  15  0.889  0.222  0.157-
  16  0.222  0.556  0.157-
  17  0.222  0.889  0.157-
  18  0.222  0.222  0.157-
  19  0.667  0.667  0.234-
  20  0.667  0.000  0.234-
  21  0.667  0.333  0.234-
  22  0.000  0.667  0.234-
  23  0.000  0.000  0.234-
  24  0.000  0.333  0.234-
  25  0.333  0.667  0.234-
  26  0.333  0.000  0.234-
  27  0.333  0.333  0.234-
  28  0.778  0.778  0.312-
  29  0.778  0.111  0.312-
  30  0.778  0.444  0.312-
  31  0.111  0.778  0.312-
  32  0.111  0.111  0.312-
  33  0.111  0.444  0.312-
  34  0.444  0.778  0.312-
  35  0.444  0.111  0.312-
  36  0.444  0.444  0.312-
  37  0.889  0.889  0.390-
  38  0.889  0.222  0.390-
  39  0.889  0.556  0.390-
  40  0.222  0.889  0.390-
  41  0.222  0.222  0.390-
  42  0.222  0.556  0.390-
  43  0.556  0.889  0.390-
  44  0.556  0.222  0.390-
  45  0.556  0.556  0.390-
  46  0.000  0.000  0.466-
  47  0.000  0.333  0.466-
  48  0.000  0.667  0.466-
  49  0.333  0.000  0.466-
  50  0.333  0.333  0.466-
  51  0.333  0.667  0.466-
  52  0.667  0.000  0.466-
  53  0.667  0.333  0.466-
  54  0.667  0.667  0.466-
  55  0.111  0.111  0.545-
  56  0.111  0.444  0.545-
  57  0.111  0.778  0.545-
  58  0.444  0.111  0.545-
  59  0.444  0.444  0.545-
  60  0.444  0.778  0.545-
  61  0.778  0.111  0.545-
  62  0.778  0.444  0.545-
  63  0.778  0.778  0.545-
  64  0.278  0.278  0.079-
  65  0.278  0.611  0.079-
  66  0.278  0.944  0.079-
  67  0.611  0.278  0.079-
  68  0.611  0.611  0.079-
  69  0.611  0.944  0.079-
  70  0.944  0.278  0.079-
  71  0.944  0.611  0.079-
  72  0.944  0.944  0.079-
  73  0.389  0.389  0.157-
  74  0.389  0.722  0.157-
  75  0.389  0.056  0.157-
  76  0.722  0.389  0.157-
  77  0.722  0.722  0.157-
  78  0.722  0.056  0.157-
  79  0.056  0.389  0.157-
  80  0.056  0.722  0.157-
  81  0.056  0.056  0.157-
  82  0.500  0.500  0.234-
  83  0.500  0.833  0.234-
  84  0.500  0.167  0.234-
  85  0.833  0.500  0.234-
  86  0.833  0.833  0.234-
  87  0.833  0.167  0.234-
  88  0.167  0.500  0.234-
  89  0.167  0.833  0.234-
  90  0.167  0.167  0.234-
  91  0.611  0.611  0.312-
  92  0.611  0.944  0.312-
  93  0.611  0.278  0.312-
  94  0.944  0.611  0.312-
  95  0.944  0.944  0.312-
  96  0.944  0.278  0.312-
  97  0.278  0.611  0.312-
  98  0.278  0.944  0.312-
  99  0.278  0.278  0.312-
 100  0.722  0.722  0.390-
 101  0.722  0.056  0.390-
 102  0.722  0.389  0.390-
 103  0.056  0.722  0.390-
 104  0.056  0.056  0.390-
 105  0.056  0.389  0.390-
 106  0.389  0.722  0.390-
 107  0.389  0.056  0.390-
 108  0.389  0.389  0.390-
 109  0.833  0.833  0.466-
 110  0.833  0.167  0.466-
 111  0.833  0.500  0.466-
 112  0.167  0.833  0.466-
 113  0.167  0.167  0.466-
 114  0.167  0.500  0.466-
 115  0.500  0.833  0.466-
 116  0.500  0.167  0.466-
 117  0.500  0.500  0.466-
 118  0.944  0.944  0.545-
 119  0.944  0.278  0.545-
 120  0.944  0.611  0.545-
 121  0.278  0.944  0.545-
 122  0.278  0.278  0.545-
 123  0.278  0.611  0.545-
 124  0.611  0.944  0.545-
 125  0.611  0.278  0.545-
 126  0.611  0.611  0.545-
 127  0.278  0.444  0.079-
 128  0.278  0.778  0.079-
 129  0.278  0.111  0.079-
 130  0.611  0.444  0.079-
 131  0.611  0.778  0.079-
 132  0.611  0.111  0.079-
 133  0.944  0.444  0.079-
 134  0.944  0.778  0.079-
 135  0.944  0.111  0.079-
 136  0.389  0.556  0.157-
 137  0.389  0.889  0.157-
 138  0.389  0.222  0.157-
 139  0.722  0.556  0.157-
 140  0.722  0.889  0.157-
 141  0.722  0.222  0.157-
 142  0.056  0.556  0.157-
 143  0.056  0.889  0.157-
 144  0.056  0.222  0.157-
 145  0.500  0.667  0.234-
 146  0.500  0.000  0.234-
 147  0.500  0.333  0.234-
 148  0.833  0.667  0.234-
 149  0.833  0.000  0.234-
 150  0.833  0.333  0.234-
 151  0.167  0.667  0.234-
 152  0.167  0.000  0.234-
 153  0.167  0.333  0.234-
 154  0.611  0.778  0.312-
 155  0.611  0.111  0.312-
 156  0.611  0.444  0.312-
 157  0.944  0.778  0.312-
 158  0.944  0.111  0.312-
 159  0.944  0.444  0.312-
 160  0.278  0.778  0.312-
 161  0.278  0.111  0.312-
 162  0.278  0.444  0.312-
 163  0.722  0.889  0.390-
 164  0.722  0.222  0.390-
 165  0.722  0.556  0.390-
 166  0.056  0.889  0.390-
 167  0.056  0.222  0.390-
 168  0.056  0.556  0.390-
 169  0.389  0.889  0.390-
 170  0.389  0.222  0.390-
 171  0.389  0.556  0.390-
 172  0.833  0.000  0.466-
 173  0.833  0.333  0.466-
 174  0.833  0.667  0.466-
 175  0.167  0.000  0.466-
 176  0.167  0.333  0.466-
 177  0.167  0.667  0.466-
 178  0.500  0.000  0.466-
 179  0.500  0.333  0.466-
 180  0.500  0.667  0.466-
 181  0.944  0.111  0.545-
 182  0.944  0.444  0.545-
 183  0.944  0.778  0.545-
 184  0.278  0.111  0.545-
 185  0.278  0.444  0.545-
 186  0.278  0.778  0.545-
 187  0.611  0.111  0.545-
 188  0.611  0.444  0.545-
 189  0.611  0.778  0.545-
 190  0.444  0.278  0.079-
 191  0.444  0.611  0.079-
 192  0.444  0.944  0.079-
 193  0.778  0.278  0.079-
 194  0.778  0.611  0.079-
 195  0.778  0.944  0.079-
 196  0.111  0.278  0.079-
 197  0.111  0.611  0.079-
 198  0.111  0.944  0.079-
 199  0.556  0.389  0.157-
 200  0.556  0.722  0.157-
 201  0.556  0.056  0.157-
 202  0.889  0.389  0.157-
 203  0.889  0.722  0.157-
 204  0.889  0.056  0.157-
 205  0.222  0.389  0.157-
 206  0.222  0.722  0.157-
 207  0.222  0.056  0.157-
 208  0.667  0.500  0.234-
 209  0.667  0.833  0.234-
 210  0.667  0.167  0.234-
 211  1.000  0.500  0.234-
 212  1.000  0.833  0.234-
 213  1.000  0.167  0.234-
 214  0.333  0.500  0.234-
 215  0.333  0.833  0.234-
 216  0.333  0.167  0.234-
 217  0.778  0.611  0.312-
 218  0.778  0.944  0.312-
 219  0.778  0.278  0.312-
 220  0.111  0.611  0.312-
 221  0.111  0.944  0.312-
 222  0.111  0.278  0.312-
 223  0.444  0.611  0.312-
 224  0.444  0.944  0.312-
 225  0.444  0.278  0.312-
 226  0.889  0.722  0.390-
 227  0.889  0.056  0.390-
 228  0.889  0.389  0.390-
 229  0.222  0.722  0.390-
 230  0.222  0.056  0.390-
 231  0.222  0.389  0.390-
 232  0.556  0.722  0.390-
 233  0.556  0.056  0.390-
 234  0.556  0.389  0.390-
 235  1.000  0.833  0.466-
 236  1.000  0.167  0.466-
 237  1.000  0.500  0.466-
 238  0.333  0.833  0.466-
 239  0.333  0.167  0.466-
 240  0.333  0.500  0.466-
 241  0.667  0.833  0.466-
 242  0.667  0.167  0.466-
 243  0.667  0.500  0.466-
 244  0.111  0.944  0.545-
 245  0.111  0.278  0.545-
 246  0.111  0.611  0.545-
 247  0.444  0.944  0.545-
 248  0.444  0.278  0.545-
 249  0.444  0.611  0.545-
 250  0.778  0.944  0.545-
 251  0.778  0.278  0.545-
 252  0.778  0.611  0.545-
 253  0.333  0.500  0.668- 254 1.65
 254  0.389  0.389  0.668- 253 1.65
 
  LATTYP: Found a hexagonal cell.
 ALAT       =    17.1805734625
 C/A-ratio  =     1.7461582447
  
  Lattice vectors:
  
 A1 = (   0.0000000000,  -8.5902867312,  14.8788130701)
 A2 = (   0.0000000000,  17.1805734625,   0.0000000000)
 A3 = ( -30.0000000000,   0.0000000000,   0.0000000000)


Analysis of symmetry for initial positions (statically):
=====================================================================
 Subroutine PRICEL returns:
 Original cell was already a primitive cell.
 

 Routine SETGRP: Setting up the symmetry group for a 
 hexagonal supercell.


 Subroutine GETGRP returns: Found  2 space group operations
 (whereof  1 operations were pure point group operations)
 out of a pool of 24 trial point group operations.


The static configuration has the point symmetry C_1 .
 The point group associated with its full space group is C_1h.


Analysis of symmetry for dynamics (positions and initial velocities):
=====================================================================
 Subroutine PRICEL returns:
 Original cell was already a primitive cell.
 

 Routine SETGRP: Setting up the symmetry group for a 
 hexagonal supercell.


 Subroutine GETGRP returns: Found  2 space group operations
 (whereof  1 operations were pure point group operations)
 out of a pool of 24 trial point group operations.


The dynamic configuration has the point symmetry C_1 .
 The point group associated with its full space group is C_1h.


 Subroutine INISYM returns: Found  2 space group operations
 (whereof  1 operations are pure point group operations),
 and found     1 'primitive' translations

 
 
 KPOINTS: Automatic generation                    

Automatic generation of k-mesh.
Space group operators:
 irot       det(A)        alpha          n_x          n_y          n_z        tau_x        tau_y        tau_z
    1     1.000000     0.000000     1.000000     0.000000     0.000000     0.000000     0.000000     0.000000
    2    -1.000000   180.000000     0.000000     1.000000     0.000000    -0.833333     0.000000     0.000000
 
 Subroutine IBZKPT returns following result:
 ===========================================
 
 Found      3 irreducible k-points:
 
 Following reciprocal coordinates:
            Coordinates               Weight
  0.000000  0.000000  0.000000      1.000000
  0.500000  0.000000  0.000000      2.000000
  0.000000  0.500000  0.000000      1.000000
 
 Following cartesian coordinates:
            Coordinates               Weight
  0.000000  0.000000  0.000000      1.000000
  0.000000 -0.029103  0.016802      2.000000
  0.000000  0.000000 -0.033605      1.000000
 


--------------------------------------------------------------------------------------------------------




 Dimension of arrays:
   k-points           NKPTS =      3   k-points in BZ     NKDIM =      3   number of bands    NBANDS=    516
   number of dos      NEDOS =    301   number of ions     NIONS =    254
   non local maximal  LDIM  =      6   non local SUM 2l+1 LMDIM =     18
   total plane-waves  NPLWV = 819200
   max r-space proj   IRMAX =   4449   max aug-charges    IRDMAX=   4357
   dimension x,y,z NGX =    80 NGY =   80 NGZ =  128
   dimension x,y,z NGXF=   160 NGYF=  160 NGZF=  256
   support grid    NGXF=   160 NGYF=  160 NGZF=  256
   ions per type =             252   2
   NGX,Y,Z   is equivalent  to a cutoff of   7.74,  7.74,  7.09 a.u.
   NGXF,Y,Z  is equivalent  to a cutoff of  15.48, 15.48, 14.19 a.u.

 SYSTEM =  NiAl                                    
 POSCAR =  New structure                           

 Startparameter for this run:
   NWRITE =      2    write-flag & timer
   PREC   = normal    normal or accurate (medium, high low for compatibility)
   ISTART =      0    job   : 0-new  1-cont  2-samecut
   ICHARG =      2    charge: 1-file 2-atom 10-const
   ISPIN  =      1    spin polarized calculation?
   LNONCOLLINEAR =      F non collinear calculations
   LSORBIT =      F    spin-orbit coupling
   INIWAV =      1    electr: 0-lowe 1-rand  2-diag
   LASPH  =      F    aspherical Exc in radial PAW
   METAGGA=      F    non-selfconsistent MetaGGA calc.

 Electronic Relaxation 1
   ENCUT  =  300.0 eV  22.05 Ry    4.70 a.u.  24.26 24.26 42.37*2*pi/ulx,y,z
   ENINI  =  300.0     initial cutoff
   ENAUG  =  627.1 eV  augmentation charge cutoff
   NELM   =     60;   NELMIN=  6; NELMDL= -5     # of ELM steps 
   EDIFF  = 0.5E-05   stopping-criterion for ELM
   LREAL  =      T    real-space projection
   NLSPLINE    = F    spline interpolate recip. space projectors
   LCOMPAT=      F    compatible to vasp.4.4
   GGA_COMPAT  = T    GGA compatible to vasp.4.4-vasp.4.6
   LMAXPAW     = -100 max onsite density
   LMAXMIX     =    2 max onsite mixed and CHGCAR
   VOSKOWN=      0    Vosko Wilk Nusair interpolation
   ROPT   =   -0.00050  -0.00050
 Ionic relaxation
   EDIFFG = 0.5E-04   stopping-criterion for IOM
   NSW    =      0    number of steps for IOM
   NBLOCK =      1;   KBLOCK =      1    inner block; outer block 
   IBRION =     -1    ionic relax: 0-MD 1-quasi-New 2-CG
   NFREE  =      0    steps in history (QN), initial steepest desc. (CG)
   ISIF   =      0    stress and relaxation
   IWAVPR =     10    prediction:  0-non 1-charg 2-wave 3-comb
   ISYM   =      2    0-nonsym 1-usesym 2-fastsym
   LCORR  =      T    Harris-Foulkes like correction to forces

   POTIM  = 0.5000    time-step for ionic-motion
   TEIN   =    0.0    initial temperature
   TEBEG  =    0.0;   TEEND  =   0.0 temperature during run
   SMASS  =  -3.00    Nose mass-parameter (am)
   estimated Nose-frequenzy (Omega)   =  0.10E-29 period in steps =****** mass=  -0.675E-26a.u.
   SCALEE = 1.0000    scale energy and forces
   NPACO  =    256;   APACO  = 16.0  distance and # of slots for P.C.
   PSTRESS=    0.0 pullay stress

  Mass of Ions in am
   POMASS =  26.98 14.00
  Ionic Valenz
   ZVAL   =   3.00  5.00
  Atomic Wigner-Seitz radii
   RWIGS  =  -1.00 -1.00
  virtual crystal weights 
   VCA    =   1.00  1.00
   NELECT =     766.0000    total number of electrons
   NUPDOWN=      -1.0000    fix difference up-down

 DOS related values:
   EMIN   =  10.00;   EMAX   =-10.00  energy-range for DOS
   EFERMI =   0.00
   ISMEAR =     0;   SIGMA  =   0.05  broadening in eV -4-tet -1-fermi 0-gaus

 Electronic relaxation 2 (details)
   IALGO  =     38    algorithm
   LDIAG  =      T    sub-space diagonalisation (order eigenvalues)
   LSUBROT=      F    optimize rotation matrix (better conditioning)
   TURBO    =      0    0=normal 1=particle mesh
   IRESTART =      0    0=no restart 2=restart with 2 vectors
   NREBOOT  =      0    no. of reboots
   NMIN     =      0    reboot dimension
   EREF     =   0.00    reference energy to select bands
   IMIX   =      4    mixing-type and parameters
     AMIX     =   0.40;   BMIX     =  1.00
     AMIX_MAG =   1.60;   BMIX_MAG =  1.00
     AMIN     =   0.10
     WC   =   100.;   INIMIX=   1;  MIXPRE=   1;  MAXMIX= -45

 Intra band minimization:
   WEIMIN = 0.0000     energy-eigenvalue tresh-hold
   EBREAK =  0.24E-08  absolut break condition
   DEPER  =   0.30     relativ break condition  

   TIME   =   0.40     timestep for ELM

  volume/ion in A,a.u.               =      30.19       203.75
  Fermi-wavevector in a.u.,A,eV,Ry     =   0.759583  1.435404  7.850108  0.576967
  Thomas-Fermi vector in A             =   1.858410
 
 Write flags
   LWAVE        =      F    write WAVECAR
   LDOWNSAMPLE  =      F    k-point downsampling of WAVECAR
   LCHARG       =      F    write CHGCAR
   LVTOT        =      F    write LOCPOT, total local potential
   LVHAR        =      F    write LOCPOT, Hartree potential only
   LELF         =      F    write electronic localiz. function (ELF)
   LORBIT       =      0    0 simple, 1 ext, 2 COOP (PROOUT), +10 PAW based schemes


 Dipole corrections
   LMONO  =      F    monopole corrections only (constant potential shift)
   LDIPOL =      F    correct potential (dipole corrections)
   IDIPOL =      0    1-x, 2-y, 3-z, 4-all directions 
   EPSILON=  1.0000000 bulk dielectric constant

 Exchange correlation treatment:
   GGA     =    --    GGA type
   LEXCH   =     8    internal setting for exchange type
   VOSKOWN=      0    Vosko Wilk Nusair interpolation
   LHFCALC =     F    Hartree Fock is set to
   LHFONE  =     F    Hartree Fock one center treatment
   AEXX    =    0.0000 exact exchange contribution

 Linear response parameters
   LEPSILON=     F    determine dielectric tensor
   LRPA    =     F    only Hartree local field effects (RPA)
   LNABLA  =     F    use nabla operator in PAW spheres
   LVEL    =     F    velocity operator in full k-point grid
   LINTERFAST=   F  fast interpolation
   KINTER  =     0    interpolate to denser k-point grid
   CSHIFT  =0.1000    complex shift for real part using Kramers Kronig
   OMEGAMAX=  -1.0    maximum frequency
   DEG_THRESHOLD= 0.2000000E-02 threshold for treating states as degnerate
   RTIME   =   -0.100 relaxation time in fs
  (WPLASMAI=    0.000 imaginary part of plasma frequency in eV, 0.658/RTIME)
   DFIELD  = 0.0000000 0.0000000 0.0000000 field for delta impulse in time
 
 Orbital magnetization related:
   ORBITALMAG=     F  switch on orbital magnetization
   LCHIMAG   =     F  perturbation theory with respect to B field
   DQ        =  0.001000  dq finite difference perturbation B field
   LLRAUG    =     F  two centre corrections for induced B field



--------------------------------------------------------------------------------------------------------


 Static calculation
 charge density and potential will be updated during run
 non-spin polarized calculation
 Variant of blocked Davidson
 Davidson routine will perform the subspace rotation
 perform sub-space diagonalisation
    after iterative eigenvector-optimisation
 modified Broyden-mixing scheme, WC =      100.0
 initial mixing is a Kerker type mixing with AMIX =  0.4000 and BMIX =      1.0000
 Hartree-type preconditioning will be used
 using additional bands          133
 real space projection scheme for non local part
 use partial core corrections
 calculate Harris-corrections to forces 
   (improved forces if not selfconsistent)
 use gradient corrections 
 use of overlap-Matrix (Vanderbilt PP)
 Gauss-broadening in eV      SIGMA  =   0.05


--------------------------------------------------------------------------------------------------------


  energy-cutoff  :      300.00
  volume of cell :     7668.80
      direct lattice vectors                 reciprocal lattice vectors
     0.000000000-17.180573462  0.000000000     0.000000000 -0.058205275  0.033604831
     0.000000000 -8.590286731-14.878813070     0.000000000  0.000000000 -0.067209662
    30.000000000  0.000000000  0.000000000     0.033333333  0.000000000  0.000000000

  length of vectors
    17.180573462 17.180573462 30.000000000     0.067209662  0.067209662  0.033333333


 
 k-points in units of 2pi/SCALE and weight: Automatic generation                    
   0.00000000  0.00000000  0.00000000       0.250
   0.00000000 -0.02910264  0.01680242       0.500
   0.00000000  0.00000000 -0.03360483       0.250
 
 k-points in reciprocal lattice and weights: Automatic generation                    
   0.00000000  0.00000000  0.00000000       0.250
   0.50000000  0.00000000  0.00000000       0.500
   0.00000000  0.50000000  0.00000000       0.250
 
 position of ions in fractional coordinates (direct lattice) 
   0.44444456  0.44444473  0.07873467
   0.44444419  0.77777777  0.07873467
   0.44444468  0.11111101  0.07873467
   0.77777744  0.44444473  0.07873467
   0.77777765  0.77777777  0.07873467
   0.77777756  0.11111101  0.07873467
   0.11111110  0.44444473  0.07873467
   0.11111131  0.77777777  0.07873467
   0.11111122  0.11111101  0.07873467
   0.55555520  0.55555574  0.15702600
   0.55555541  0.88888878  0.15702600
   0.55555591  0.22222203  0.15702600
   0.88888866  0.55555574  0.15702600
   0.88888887  0.88888878  0.15702600
   0.88888878  0.22222203  0.15702600
   0.22222232  0.55555574  0.15702600
   0.22222253  0.88888878  0.15702600
   0.22222245  0.22222203  0.15702600
   0.66666642  0.66666675  0.23375733
   0.66666692  0.00000000  0.23375733
   0.66666655  0.33333304  0.23375733
   0.00000008  0.66666675  0.23375733
   0.00000000  0.00000000  0.23375733
   0.00000021  0.33333304  0.23375733
   0.33333354  0.66666675  0.23375733
   0.33333346  0.00000000  0.23375733
   0.33333367  0.33333304  0.23375733
   0.77777765  0.77777777  0.31173067
   0.77777756  0.11111101  0.31173067
   0.77777744  0.44444473  0.31173067
   0.11111131  0.77777777  0.31173067
   0.11111122  0.11111101  0.31173067
   0.11111110  0.44444473  0.31173067
   0.44444419  0.77777777  0.31173067
   0.44444468  0.11111101  0.31173067
   0.44444456  0.44444473  0.31173067
   0.88888887  0.88888878  0.38970400
   0.88888878  0.22222203  0.38970400
   0.88888866  0.55555574  0.38970400
   0.22222253  0.88888878  0.38970400
   0.22222245  0.22222203  0.38970400
   0.22222232  0.55555574  0.38970400
   0.55555541  0.88888878  0.38970400
   0.55555591  0.22222203  0.38970400
   0.55555520  0.55555574  0.38970400
   0.00000000  0.00000000  0.46643533
   0.00000021  0.33333304  0.46643533
   0.00000008  0.66666675  0.46643533
   0.33333346  0.00000000  0.46643533
   0.33333367  0.33333304  0.46643533
   0.33333354  0.66666675  0.46643533
   0.66666692  0.00000000  0.46643533
   0.66666655  0.33333304  0.46643533
   0.66666642  0.66666675  0.46643533
   0.11111122  0.11111101  0.54472667
   0.11111110  0.44444473  0.54472667
   0.11111131  0.77777777  0.54472667
   0.44444468  0.11111101  0.54472667
   0.44444456  0.44444473  0.54472667
   0.44444419  0.77777777  0.54472667
   0.77777756  0.11111101  0.54472667
   0.77777744  0.44444473  0.54472667
   0.77777765  0.77777777  0.54472667
   0.27777777  0.27777753  0.07873467
   0.27777764  0.61111125  0.07873467
   0.27777785  0.94444429  0.07873467
   0.61111123  0.27777753  0.07873467
   0.61111110  0.61111125  0.07873467
   0.61111131  0.94444429  0.07873467
   0.94444469  0.27777753  0.07873467
   0.94444456  0.61111125  0.07873467
   0.94444477  0.94444429  0.07873467
   0.38888865  0.38888922  0.15702600
   0.38888886  0.72222226  0.15702600
   0.38888878  0.05555551  0.15702600
   0.72222211  0.38888922  0.15702600
   0.72222232  0.72222226  0.15702600
   0.72222224  0.05555551  0.15702600
   0.05555519  0.38888922  0.15702600
   0.05555540  0.72222226  0.15702600
   0.05555532  0.05555551  0.15702600
   0.49999988  0.50000023  0.23375733
   0.50000009  0.83333327  0.23375733
   0.50000000  0.16666652  0.23375733
   0.83333334  0.50000023  0.23375733
   0.83333355  0.83333327  0.23375733
   0.83333346  0.16666652  0.23375733
   0.16666642  0.50000023  0.23375733
   0.16666663  0.83333327  0.23375733
   0.16666654  0.16666652  0.23375733
   0.61111110  0.61111125  0.31173067
   0.61111131  0.94444429  0.31173067
   0.61111123  0.27777753  0.31173067
   0.94444456  0.61111125  0.31173067
   0.94444477  0.94444429  0.31173067
   0.94444469  0.27777753  0.31173067
   0.27777764  0.61111125  0.31173067
   0.27777785  0.94444429  0.31173067
   0.27777777  0.27777753  0.31173067
   0.72222232  0.72222226  0.38970400
   0.72222224  0.05555551  0.38970400
   0.72222211  0.38888922  0.38970400
   0.05555540  0.72222226  0.38970400
   0.05555532  0.05555551  0.38970400
   0.05555519  0.38888922  0.38970400
   0.38888886  0.72222226  0.38970400
   0.38888878  0.05555551  0.38970400
   0.38888865  0.38888922  0.38970400
   0.83333355  0.83333327  0.46643533
   0.83333346  0.16666652  0.46643533
   0.83333334  0.50000023  0.46643533
   0.16666663  0.83333327  0.46643533
   0.16666654  0.16666652  0.46643533
   0.16666642  0.50000023  0.46643533
   0.50000009  0.83333327  0.46643533
   0.50000000  0.16666652  0.46643533
   0.49999988  0.50000023  0.46643533
   0.94444477  0.94444429  0.54472667
   0.94444469  0.27777753  0.54472667
   0.94444456  0.61111125  0.54472667
   0.27777785  0.94444429  0.54472667
   0.27777777  0.27777753  0.54472667
   0.27777764  0.61111125  0.54472667
   0.61111131  0.94444429  0.54472667
   0.61111123  0.27777753  0.54472667
   0.61111110  0.61111125  0.54472667
   0.27777783  0.44444473  0.07873467
   0.27777804  0.77777777  0.07873467
   0.27777795  0.11111101  0.07873467
   0.61111071  0.44444473  0.07873467
   0.61111092  0.77777777  0.07873467
   0.61111141  0.11111101  0.07873467
   0.94444417  0.44444473  0.07873467
   0.94444438  0.77777777  0.07873467
   0.94444429  0.11111101  0.07873467
   0.38888905  0.55555574  0.15702600
   0.38888868  0.88888878  0.15702600
   0.38888918  0.22222203  0.15702600
   0.72222193  0.55555574  0.15702600
   0.72222214  0.88888878  0.15702600
   0.72222205  0.22222203  0.15702600
   0.05555559  0.55555574  0.15702600
   0.05555580  0.88888878  0.15702600
   0.05555572  0.22222203  0.15702600
   0.49999969  0.66666675  0.23375733
   0.50000019  0.00000000  0.23375733
   0.50000040  0.33333304  0.23375733
   0.83333315  0.66666675  0.23375733
   0.83333307  0.00000000  0.23375733
   0.83333328  0.33333304  0.23375733
   0.16666681  0.66666675  0.23375733
   0.16666673  0.00000000  0.23375733
   0.16666694  0.33333304  0.23375733
   0.61111092  0.77777777  0.31173067
   0.61111141  0.11111101  0.31173067
   0.61111071  0.44444473  0.31173067
   0.94444438  0.77777777  0.31173067
   0.94444429  0.11111101  0.31173067
   0.94444417  0.44444473  0.31173067
   0.27777804  0.77777777  0.31173067
   0.27777795  0.11111101  0.31173067
   0.27777783  0.44444473  0.31173067
   0.72222214  0.88888878  0.38970400
   0.72222205  0.22222203  0.38970400
   0.72222193  0.55555574  0.38970400
   0.05555580  0.88888878  0.38970400
   0.05555572  0.22222203  0.38970400
   0.05555559  0.55555574  0.38970400
   0.38888868  0.88888878  0.38970400
   0.38888918  0.22222203  0.38970400
   0.38888905  0.55555574  0.38970400
   0.83333307  0.00000000  0.46643533
   0.83333328  0.33333304  0.46643533
   0.83333315  0.66666675  0.46643533
   0.16666673  0.00000000  0.46643533
   0.16666694  0.33333304  0.46643533
   0.16666681  0.66666675  0.46643533
   0.50000019  0.00000000  0.46643533
   0.50000040  0.33333304  0.46643533
   0.49999969  0.66666675  0.46643533
   0.94444429  0.11111101  0.54472667
   0.94444417  0.44444473  0.54472667
   0.94444438  0.77777777  0.54472667
   0.27777795  0.11111101  0.54472667
   0.27777783  0.44444473  0.54472667
   0.27777804  0.77777777  0.54472667
   0.61111141  0.11111101  0.54472667
   0.61111071  0.44444473  0.54472667
   0.61111092  0.77777777  0.54472667
   0.44444450  0.27777753  0.07873467
   0.44444437  0.61111125  0.07873467
   0.44444458  0.94444429  0.07873467
   0.77777796  0.27777753  0.07873467
   0.77777783  0.61111125  0.07873467
   0.77777804  0.94444429  0.07873467
   0.11111104  0.27777753  0.07873467
   0.11111091  0.61111125  0.07873467
   0.11111112  0.94444429  0.07873467
   0.55555538  0.38888922  0.15702600
   0.55555559  0.72222226  0.15702600
   0.55555551  0.05555551  0.15702600
   0.88888884  0.38888922  0.15702600
   0.88888905  0.72222226  0.15702600
   0.88888897  0.05555551  0.15702600
   0.22222192  0.38888922  0.15702600
   0.22222213  0.72222226  0.15702600
   0.22222205  0.05555551  0.15702600
   0.66666661  0.50000023  0.23375733
   0.66666682  0.83333327  0.23375733
   0.66666673  0.16666652  0.23375733
   0.99999969  0.50000023  0.23375733
   0.99999990  0.83333327  0.23375733
   0.99999981  0.16666652  0.23375733
   0.33333315  0.50000023  0.23375733
   0.33333336  0.83333327  0.23375733
   0.33333327  0.16666652  0.23375733
   0.77777783  0.61111125  0.31173067
   0.77777804  0.94444429  0.31173067
   0.77777796  0.27777753  0.31173067
   0.11111091  0.61111125  0.31173067
   0.11111112  0.94444429  0.31173067
   0.11111104  0.27777753  0.31173067
   0.44444437  0.61111125  0.31173067
   0.44444458  0.94444429  0.31173067
   0.44444450  0.27777753  0.31173067
   0.88888905  0.72222226  0.38970400
   0.88888897  0.05555551  0.38970400
   0.88888884  0.38888922  0.38970400
   0.22222213  0.72222226  0.38970400
   0.22222205  0.05555551  0.38970400
   0.22222192  0.38888922  0.38970400
   0.55555559  0.72222226  0.38970400
   0.55555551  0.05555551  0.38970400
   0.55555538  0.38888922  0.38970400
   0.99999990  0.83333327  0.46643533
   0.99999981  0.16666652  0.46643533
   0.99999969  0.50000023  0.46643533
   0.33333336  0.83333327  0.46643533
   0.33333327  0.16666652  0.46643533
   0.33333315  0.50000023  0.46643533
   0.66666682  0.83333327  0.46643533
   0.66666673  0.16666652  0.46643533
   0.66666661  0.50000023  0.46643533
   0.11111112  0.94444429  0.54472667
   0.11111104  0.27777753  0.54472667
   0.11111091  0.61111125  0.54472667
   0.44444458  0.94444429  0.54472667
   0.44444450  0.27777753  0.54472667
   0.44444437  0.61111125  0.54472667
   0.77777804  0.94444429  0.54472667
   0.77777796  0.27777753  0.54472667
   0.77777783  0.61111125  0.54472667
   0.33333315  0.50000023  0.66800000
   0.38888907  0.38888877  0.66800000
 
 position of ions in cartesian coordinates  (Angst):
   2.36204000-11.45372000 -6.61281000
   2.36204000-14.31714000-11.57241000
   2.36204000 -8.59029000 -1.65320000
   2.36204000-17.18057000 -6.61281000
   2.36204000-20.04400000-11.57241000
   2.36204000-14.31714000 -1.65320000
   2.36204000 -5.72686000 -6.61281000
   2.36204000 -8.59029000-11.57241000
   2.36204000 -2.86343000 -1.65320000
   4.71078000-14.31714000 -8.26601000
   4.71078000-17.18057000-13.22561000
   4.71078000-11.45372000 -3.30640000
   4.71078000-20.04400000 -8.26601000
   4.71078000-22.90743000-13.22561000
   4.71078000-17.18057000 -3.30640000
   4.71078000 -8.59029000 -8.26601000
   4.71078000-11.45372000-13.22561000
   4.71078000 -5.72686000 -3.30640000
   7.01272000-17.18057000 -9.91921000
   7.01272000-11.45372000  0.00000000
   7.01272000-14.31714000 -4.95960000
   7.01272000 -5.72686000 -9.91921000
   7.01272000  0.00000000  0.00000000
   7.01272000 -2.86343000 -4.95960000
   7.01272000-11.45372000 -9.91921000
   7.01272000 -5.72686000  0.00000000
   7.01272000 -8.59029000 -4.95960000
   9.35192000-20.04400000-11.57241000
   9.35192000-14.31714000 -1.65320000
   9.35192000-17.18057000 -6.61281000
   9.35192000 -8.59029000-11.57241000
   9.35192000 -2.86343000 -1.65320000
   9.35192000 -5.72686000 -6.61281000
   9.35192000-14.31714000-11.57241000
   9.35192000 -8.59029000 -1.65320000
   9.35192000-11.45372000 -6.61281000
  11.69112000-22.90743000-13.22561000
  11.69112000-17.18057000 -3.30640000
  11.69112000-20.04400000 -8.26601000
  11.69112000-11.45372000-13.22561000
  11.69112000 -5.72686000 -3.30640000
  11.69112000 -8.59029000 -8.26601000
  11.69112000-17.18057000-13.22561000
  11.69112000-11.45372000 -3.30640000
  11.69112000-14.31714000 -8.26601000
  13.99306000  0.00000000  0.00000000
  13.99306000 -2.86343000 -4.95960000
  13.99306000 -5.72686000 -9.91921000
  13.99306000 -5.72686000  0.00000000
  13.99306000 -8.59029000 -4.95960000
  13.99306000-11.45372000 -9.91921000
  13.99306000-11.45372000  0.00000000
  13.99306000-14.31714000 -4.95960000
  13.99306000-17.18057000 -9.91921000
  16.34180000 -2.86343000 -1.65320000
  16.34180000 -5.72686000 -6.61281000
  16.34180000 -8.59029000-11.57241000
  16.34180000 -8.59029000 -1.65320000
  16.34180000-11.45372000 -6.61281000
  16.34180000-14.31714000-11.57241000
  16.34180000-14.31714000 -1.65320000
  16.34180000-17.18057000 -6.61281000
  16.34180000-20.04400000-11.57241000
   2.36204000 -7.15857000 -4.13300000
   2.36204000-10.02200000 -9.09261000
   2.36204000-12.88543000-14.05221000
   2.36204000-12.88543000 -4.13300000
   2.36204000-15.74886000 -9.09261000
   2.36204000-18.61229000-14.05221000
   2.36204000-18.61229000 -4.13300000
   2.36204000-21.47572000 -9.09261000
   2.36204000-24.33915000-14.05221000
   4.71078000-10.02200000 -5.78621000
   4.71078000-12.88543000-10.74581000
   4.71078000 -7.15857000 -0.82660000
   4.71078000-15.74886000 -5.78621000
   4.71078000-18.61229000-10.74581000
   4.71078000-12.88543000 -0.82660000
   4.71078000 -4.29514000 -5.78621000
   4.71078000 -7.15857000-10.74581000
   4.71078000 -1.43171000 -0.82660000
   7.01272000-12.88543000 -7.43941000
   7.01272000-15.74886000-12.39901000
   7.01272000-10.02200000 -2.47980000
   7.01272000-18.61229000 -7.43941000
   7.01272000-21.47572000-12.39901000
   7.01272000-15.74886000 -2.47980000
   7.01272000 -7.15857000 -7.43941000
   7.01272000-10.02200000-12.39901000
   7.01272000 -4.29514000 -2.47980000
   9.35192000-15.74886000 -9.09261000
   9.35192000-18.61229000-14.05221000
   9.35192000-12.88543000 -4.13300000
   9.35192000-21.47572000 -9.09261000
   9.35192000-24.33915000-14.05221000
   9.35192000-18.61229000 -4.13300000
   9.35192000-10.02200000 -9.09261000
   9.35192000-12.88543000-14.05221000
   9.35192000 -7.15857000 -4.13300000
  11.69112000-18.61229000-10.74581000
  11.69112000-12.88543000 -0.82660000
  11.69112000-15.74886000 -5.78621000
  11.69112000 -7.15857000-10.74581000
  11.69112000 -1.43171000 -0.82660000
  11.69112000 -4.29514000 -5.78621000
  11.69112000-12.88543000-10.74581000
  11.69112000 -7.15857000 -0.82660000
  11.69112000-10.02200000 -5.78621000
  13.99306000-21.47572000-12.39901000
  13.99306000-15.74886000 -2.47980000
  13.99306000-18.61229000 -7.43941000
  13.99306000-10.02200000-12.39901000
  13.99306000 -4.29514000 -2.47980000
  13.99306000 -7.15857000 -7.43941000
  13.99306000-15.74886000-12.39901000
  13.99306000-10.02200000 -2.47980000
  13.99306000-12.88543000 -7.43941000
  16.34180000-24.33915000-14.05221000
  16.34180000-18.61229000 -4.13300000
  16.34180000-21.47572000 -9.09261000
  16.34180000-12.88543000-14.05221000
  16.34180000 -7.15857000 -4.13300000
  16.34180000-10.02200000 -9.09261000
  16.34180000-18.61229000-14.05221000
  16.34180000-12.88543000 -4.13300000
  16.34180000-15.74886000 -9.09261000
   2.36204000 -8.59029000 -6.61281000
   2.36204000-11.45372000-11.57241000
   2.36204000 -5.72686000 -1.65320000
   2.36204000-14.31714000 -6.61281000
   2.36204000-17.18057000-11.57241000
   2.36204000-11.45372000 -1.65320000
   2.36204000-20.04400000 -6.61281000
   2.36204000-22.90743000-11.57241000
   2.36204000-17.18057000 -1.65320000
   4.71078000-11.45372000 -8.26601000
   4.71078000-14.31714000-13.22561000
   4.71078000 -8.59029000 -3.30640000
   4.71078000-17.18057000 -8.26601000
   4.71078000-20.04400000-13.22561000
   4.71078000-14.31714000 -3.30640000
   4.71078000 -5.72686000 -8.26601000
   4.71078000 -8.59029000-13.22561000
   4.71078000 -2.86343000 -3.30640000
   7.01272000-14.31714000 -9.91921000
   7.01272000 -8.59029000  0.00000000
   7.01272000-11.45372000 -4.95960000
   7.01272000-20.04400000 -9.91921000
   7.01272000-14.31714000  0.00000000
   7.01272000-17.18057000 -4.95960000
   7.01272000 -8.59029000 -9.91921000
   7.01272000 -2.86343000  0.00000000
   7.01272000 -5.72686000 -4.95960000
   9.35192000-17.18057000-11.57241000
   9.35192000-11.45372000 -1.65320000
   9.35192000-14.31714000 -6.61281000
   9.35192000-22.90743000-11.57241000
   9.35192000-17.18057000 -1.65320000
   9.35192000-20.04400000 -6.61281000
   9.35192000-11.45372000-11.57241000
   9.35192000 -5.72686000 -1.65320000
   9.35192000 -8.59029000 -6.61281000
  11.69112000-20.04400000-13.22561000
  11.69112000-14.31714000 -3.30640000
  11.69112000-17.18057000 -8.26601000
  11.69112000 -8.59029000-13.22561000
  11.69112000 -2.86343000 -3.30640000
  11.69112000 -5.72686000 -8.26601000
  11.69112000-14.31714000-13.22561000
  11.69112000 -8.59029000 -3.30640000
  11.69112000-11.45372000 -8.26601000
  13.99306000-14.31714000  0.00000000
  13.99306000-17.18057000 -4.95960000
  13.99306000-20.04400000 -9.91921000
  13.99306000 -2.86343000  0.00000000
  13.99306000 -5.72686000 -4.95960000
  13.99306000 -8.59029000 -9.91921000
  13.99306000 -8.59029000  0.00000000
  13.99306000-11.45372000 -4.95960000
  13.99306000-14.31714000 -9.91921000
  16.34180000-17.18057000 -1.65320000
  16.34180000-20.04400000 -6.61281000
  16.34180000-22.90743000-11.57241000
  16.34180000 -5.72686000 -1.65320000
  16.34180000 -8.59029000 -6.61281000
  16.34180000-11.45372000-11.57241000
  16.34180000-11.45372000 -1.65320000
  16.34180000-14.31714000 -6.61281000
  16.34180000-17.18057000-11.57241000
   2.36204000-10.02200000 -4.13300000
   2.36204000-12.88543000 -9.09261000
   2.36204000-15.74886000-14.05221000
   2.36204000-15.74886000 -4.13300000
   2.36204000-18.61229000 -9.09261000
   2.36204000-21.47572000-14.05221000
   2.36204000 -4.29514000 -4.13300000
   2.36204000 -7.15857000 -9.09261000
   2.36204000-10.02200000-14.05221000
   4.71078000-12.88543000 -5.78621000
   4.71078000-15.74886000-10.74581000
   4.71078000-10.02200000 -0.82660000
   4.71078000-18.61229000 -5.78621000
   4.71078000-21.47572000-10.74581000
   4.71078000-15.74886000 -0.82660000
   4.71078000 -7.15857000 -5.78621000
   4.71078000-10.02200000-10.74581000
   4.71078000 -4.29514000 -0.82660000
   7.01272000-15.74886000 -7.43941000
   7.01272000-18.61229000-12.39901000
   7.01272000-12.88543000 -2.47980000
   7.01272000-21.47571346 -7.43941000
   7.01272000-24.33914346-12.39901000
   7.01272000-18.61228346 -2.47980000
   7.01272000-10.02200000 -7.43941000
   7.01272000-12.88543000-12.39901000
   7.01272000 -7.15857000 -2.47980000
   9.35192000-18.61229000 -9.09261000
   9.35192000-21.47572000-14.05221000
   9.35192000-15.74886000 -4.13300000
   9.35192000 -7.15857000 -9.09261000
   9.35192000-10.02200000-14.05221000
   9.35192000 -4.29514000 -4.13300000
   9.35192000-12.88543000 -9.09261000
   9.35192000-15.74886000-14.05221000
   9.35192000-10.02200000 -4.13300000
  11.69112000-21.47572000-10.74581000
  11.69112000-15.74886000 -0.82660000
  11.69112000-18.61229000 -5.78621000
  11.69112000-10.02200000-10.74581000
  11.69112000 -4.29514000 -0.82660000
  11.69112000 -7.15857000 -5.78621000
  11.69112000-15.74886000-10.74581000
  11.69112000-10.02200000 -0.82660000
  11.69112000-12.88543000 -5.78621000
  13.99306000-24.33914346-12.39901000
  13.99306000-18.61228346 -2.47980000
  13.99306000-21.47571346 -7.43941000
  13.99306000-12.88543000-12.39901000
  13.99306000 -7.15857000 -2.47980000
  13.99306000-10.02200000 -7.43941000
  13.99306000-18.61229000-12.39901000
  13.99306000-12.88543000 -2.47980000
  13.99306000-15.74886000 -7.43941000
  16.34180000-10.02200000-14.05221000
  16.34180000 -4.29514000 -4.13300000
  16.34180000 -7.15857000 -9.09261000
  16.34180000-15.74886000-14.05221000
  16.34180000-10.02200000 -4.13300000
  16.34180000-12.88543000 -9.09261000
  16.34180000-21.47572000-14.05221000
  16.34180000-15.74886000 -4.13300000
  16.34180000-18.61229000 -9.09261000
  20.04000000-10.02200000 -7.43941000
  20.04000000-10.02200333 -5.78620333
 


--------------------------------------------------------------------------------------------------------


 k-point  1 :   0.0000 0.0000 0.0000  plane waves:   90499
 k-point  2 :   0.5000 0.0000 0.0000  plane waves:   90530
 k-point  3 :   0.0000 0.5000 0.0000  plane waves:   90530

 maximum and minimum number of plane-waves per node :     90530    90499

 maximum number of plane-waves:     90530
 maximum index in each direction: 
   IXMAX=   24   IYMAX=   24   IZMAX=   42
   IXMIN=  -24   IYMIN=  -24   IZMIN=  -42


 serial   3D FFT for wavefunctions
 parallel 3D FFT for charge:
    minimum data exchange during FFTs selected (reduces bandwidth)


 total amount of memory used by VASP MPI-rank0   652219. kBytes
=======================================================================

   base      :      30000. kBytes
   nonlr-proj:      89998. kBytes
   fftplans  :      40601. kBytes
   grid      :      95147. kBytes
   one-center:       3950. kBytes
   wavefun   :     392523. kBytes
 
     INWAV:  cpu time    0.0001: real time    0.0001
 Broyden mixing: mesh for mixing (old mesh)
   NGX = 49   NGY = 49   NGZ = 85
  (NGX  =160   NGY  =160   NGZ  =256)
  gives a total of 204085 points

 initial charge density was supplied:
 charge density of overlapping atoms calculated
 number of electron     766.0000000 magnetization 
 keeping initial charge density in first step


--------------------------------------------------------------------------------------------------------


 Maximum index for non-local projection operator         4292
 Maximum index for augmentation-charges          758 (set IRDMAX)


--------------------------------------------------------------------------------------------------------


 First call to EWALD:  gamma=   0.090
 Maximum number of real-space cells 3x 3x 2
 Maximum number of reciprocal cells 2x 2x 4

    FEWALD:  cpu time    0.0276: real time    0.0341


----------------------------------------- Iteration    1(   1)  ---------------------------------------


    POTLOK:  cpu time    0.7566: real time    0.7702
    SETDIJ:  cpu time    0.0878: real time    0.0878
     EDDAV:  cpu time   18.6110: real time   20.9492
       DOS:  cpu time    0.0014: real time    0.0014
    --------------------------------------------
      LOOP:  cpu time   19.4590: real time   21.8271

 eigenvalue-minimisations  :  3120
 total energy-change (2. order) : 0.2119681E+04  (-0.1839092E+05)
 number of electron     766.0000000 magnetization 
 augmentation part      766.0000000 magnetization 

 Free energy of the ion-electron system (eV)
  ---------------------------------------------------
  alpha Z        PSCENC =       505.22967617
  Ewald energy   TEWEN  =     86627.42532656
  -Hartree energ DENC   =   -100718.42332248
  -exchange      EXHF   =         0.00000000
  -V(xc)+E(xc)   XCENC  =     -6607.73018737
  PAW double counting   =     17092.30507181    -9042.14386232
  entropy T*S    EENTRO =        -0.05734451
  eigenvalues    EBANDS =       243.87348063
  atomic energy  EATOM  =     14019.20197576
  Solvation  Ediel_sol  =         0.00000000
  ---------------------------------------------------
  free energy    TOTEN  =      2119.68081424 eV

  energy without entropy =     2119.73815875  energy(sigma->0) =     2119.70948650


--------------------------------------------------------------------------------------------------------




----------------------------------------- Iteration    1(   2)  ---------------------------------------


     EDDAV:  cpu time   23.3286: real time   26.1165
       DOS:  cpu time    0.0209: real time    0.0209
    --------------------------------------------
      LOOP:  cpu time   23.3508: real time   26.1401

 eigenvalue-minimisations  :  4224
 total energy-change (2. order) :-0.2859529E+04  (-0.2698679E+04)
 number of electron     766.0000000 magnetization 
 augmentation part      766.0000000 magnetization 

 Free energy of the ion-electron system (eV)
  ---------------------------------------------------
  alpha Z        PSCENC =       505.22967617
  Ewald energy   TEWEN  =     86627.42532656
  -Hartree energ DENC   =   -100718.42332248
  -exchange      EXHF   =         0.00000000
  -V(xc)+E(xc)   XCENC  =     -6607.73018737
  PAW double counting   =     17092.30507181    -9042.14386232
  entropy T*S    EENTRO =        -0.11316969
  eigenvalues    EBANDS =     -2615.59963253
  atomic energy  EATOM  =     14019.20197576
  Solvation  Ediel_sol  =         0.00000000
  ---------------------------------------------------
  free energy    TOTEN  =      -739.84812410 eV

  energy without entropy =     -739.73495441  energy(sigma->0) =     -739.79153925


--------------------------------------------------------------------------------------------------------




----------------------------------------- Iteration    1(   3)  ---------------------------------------


     EDDAV:  cpu time   23.5974: real time   26.4134
       DOS:  cpu time    0.0012: real time    0.0012
    --------------------------------------------
      LOOP:  cpu time   23.5998: real time   26.4176

 eigenvalue-minimisations  :  4284
 total energy-change (2. order) :-0.2071841E+03  (-0.1953588E+03)
 number of electron     766.0000000 magnetization 
 augmentation part      766.0000000 magnetization 

 Free energy of the ion-electron system (eV)
  ---------------------------------------------------
  alpha Z        PSCENC =       505.22967617
  Ewald energy   TEWEN  =     86627.42532656
  -Hartree energ DENC   =   -100718.42332248
  -exchange      EXHF   =         0.00000000
  -V(xc)+E(xc)   XCENC  =     -6607.73018737
  PAW double counting   =     17092.30507181    -9042.14386232
  entropy T*S    EENTRO =        -0.23301159
  eigenvalues    EBANDS =     -2822.66385422
  atomic energy  EATOM  =     14019.20197576
  Solvation  Ediel_sol  =         0.00000000
  ---------------------------------------------------
  free energy    TOTEN  =      -947.03218769 eV

  energy without entropy =     -946.79917610  energy(sigma->0) =     -946.91568189


--------------------------------------------------------------------------------------------------------




----------------------------------------- Iteration    1(   4)  ---------------------------------------


     EDDAV:  cpu time   24.2590: real time   27.1360
       DOS:  cpu time    0.0011: real time    0.0011
    --------------------------------------------
      LOOP:  cpu time   24.2613: real time   27.1398

 eigenvalue-minimisations  :  4428
 total energy-change (2. order) :-0.9363845E+01  (-0.9194257E+01)
 number of electron     766.0000000 magnetization 
 augmentation part      766.0000000 magnetization 

 Free energy of the ion-electron system (eV)
  ---------------------------------------------------
  alpha Z        PSCENC =       505.22967617
  Ewald energy   TEWEN  =     86627.42532656
  -Hartree energ DENC   =   -100718.42332248
  -exchange      EXHF   =         0.00000000
  -V(xc)+E(xc)   XCENC  =     -6607.73018737
  PAW double counting   =     17092.30507181    -9042.14386232
  entropy T*S    EENTRO =        -0.25798067
  eigenvalues    EBANDS =     -2832.00273042
  atomic energy  EATOM  =     14019.20197576
  Solvation  Ediel_sol  =         0.00000000
  ---------------------------------------------------
  free energy    TOTEN  =      -956.39603298 eV

  energy without entropy =     -956.13805230  energy(sigma->0) =     -956.26704264


--------------------------------------------------------------------------------------------------------




----------------------------------------- Iteration    1(   5)  ---------------------------------------


     EDDAV:  cpu time   27.3952: real time   30.5265
       DOS:  cpu time    0.0011: real time    0.0011
    CHARGE:  cpu time    1.7155: real time    1.7995
    MIXING:  cpu time    0.0238: real time    0.0239
    --------------------------------------------
      LOOP:  cpu time   29.1371: real time   32.3538

 eigenvalue-minimisations  :  5160
 total energy-change (2. order) :-0.5031482E+00  (-0.5001633E+00)
 number of electron     765.9999997 magnetization 
 augmentation part      -10.1274011 magnetization 

 Broyden mixing:
  rms(total) = 0.18038E+01    rms(broyden)= 0.18032E+01
  rms(prec ) = 0.25760E+01
  weight for this iteration     100.00

 Free energy of the ion-electron system (eV)
  ---------------------------------------------------
  alpha Z        PSCENC =       505.22967617
  Ewald energy   TEWEN  =     86627.42532656
  -Hartree energ DENC   =   -100718.42332248
  -exchange      EXHF   =         0.00000000
  -V(xc)+E(xc)   XCENC  =     -6607.73018737
  PAW double counting   =     17092.30507181    -9042.14386232
  entropy T*S    EENTRO =        -0.25963769
  eigenvalues    EBANDS =     -2832.50422165
  atomic energy  EATOM  =     14019.20197576
  Solvation  Ediel_sol  =         0.00000000
  ---------------------------------------------------
  free energy    TOTEN  =      -956.89918122 eV

  energy without entropy =     -956.63954353  energy(sigma->0) =     -956.76936238


--------------------------------------------------------------------------------------------------------




----------------------------------------- Iteration    1(   6)  ---------------------------------------


    POTLOK:  cpu time    0.7411: real time    0.7411
    SETDIJ:  cpu time    0.0862: real time    0.0862
     EDDAV:  cpu time   25.2731: real time   28.1749
       DOS:  cpu time    0.0020: real time    0.0020
    CHARGE:  cpu time    1.7048: real time    1.7357
    MIXING:  cpu time    0.0251: real time    0.0254
    --------------------------------------------
      LOOP:  cpu time   27.8338: real time   30.7679

 eigenvalue-minimisations  :  4656
 total energy-change (2. order) :-0.1904294E+02  (-0.1929516E+02)
 number of electron     766.0000045 magnetization 
 augmentation part       -9.6641373 magnetization 

 Broyden mixing:
  rms(total) = 0.22084E+01    rms(broyden)= 0.22058E+01
  rms(prec ) = 0.45591E+01
  weight for this iteration     100.00

 eigenvalues of (default mixing * dielectric matrix)
  average eigenvalue GAMMA=   0.4756
  0.4756

 Free energy of the ion-electron system (eV)
  ---------------------------------------------------
  alpha Z        PSCENC =       505.22967617
  Ewald energy   TEWEN  =     86627.42532656
  -Hartree energ DENC   =   -101633.82340074
  -exchange      EXHF   =         0.00000000
  -V(xc)+E(xc)   XCENC  =     -6598.19938811
  PAW double counting   =     18940.05154768   -10891.10043826
  entropy T*S    EENTRO =        -0.24685911
  eigenvalues    EBANDS =     -1944.48055882
  atomic energy  EATOM  =     14019.20197576
  Solvation  Ediel_sol  =         0.00000000
  ---------------------------------------------------
  free energy    TOTEN  =      -975.94211887 eV

  energy without entropy =     -975.69525976  energy(sigma->0) =     -975.81868931


--------------------------------------------------------------------------------------------------------




----------------------------------------- Iteration    1(   7)  ---------------------------------------


    POTLOK:  cpu time    0.7412: real time    0.7417
    SETDIJ:  cpu time    0.0879: real time    0.0879
     EDDAV:  cpu time   22.2448: real time   24.8441
       DOS:  cpu time    0.0011: real time    0.0011
    CHARGE:  cpu time    1.7244: real time    1.7558
    MIXING:  cpu time    0.0262: real time    0.0262
    --------------------------------------------
      LOOP:  cpu time   24.8272: real time   27.4595

 eigenvalue-minimisations  :  3936
 total energy-change (2. order) : 0.4393585E+02  (-0.1327102E+02)
 number of electron     765.9999999 magnetization 
 augmentation part      -10.1299915 magnetization 

 Broyden mixing:
  rms(total) = 0.98770E+00    rms(broyden)= 0.98337E+00
  rms(prec ) = 0.12157E+01
  weight for this iteration     100.00

 eigenvalues of (default mixing * dielectric matrix)
  average eigenvalue GAMMA=   1.0184
  1.7788  0.2580

 Free energy of the ion-electron system (eV)
  ---------------------------------------------------
  alpha Z        PSCENC =       505.22967617
  Ewald energy   TEWEN  =     86627.42532656
  -Hartree energ DENC   =   -101113.66616927
  -exchange      EXHF   =         0.00000000
  -V(xc)+E(xc)   XCENC  =     -6595.35656341
  PAW double counting   =     19285.94399415   -11237.16801022
  entropy T*S    EENTRO =        -0.05953063
  eigenvalues    EBANDS =     -2423.55696729
  atomic energy  EATOM  =     14019.20197576
  Solvation  Ediel_sol  =         0.00000000
  ---------------------------------------------------
  free energy    TOTEN  =      -932.00626819 eV

  energy without entropy =     -931.94673756  energy(sigma->0) =     -931.97650287


--------------------------------------------------------------------------------------------------------




----------------------------------------- Iteration    1(   8)  ---------------------------------------


    POTLOK:  cpu time    0.7414: real time    0.7419
    SETDIJ:  cpu time    0.0876: real time    0.0876
     EDDAV:  cpu time   23.3993: real time   26.1958
       DOS:  cpu time    0.0011: real time    0.0011
    CHARGE:  cpu time    1.7126: real time    1.7442
    MIXING:  cpu time    0.0274: real time    0.0274
    --------------------------------------------
      LOOP:  cpu time   25.9710: real time   28.8008

 eigenvalue-minimisations  :  4224
 total energy-change (2. order) :-0.6895174E+01  (-0.4121326E+01)
 number of electron     765.9999992 magnetization 
 augmentation part      -10.2493907 magnetization 

 Broyden mixing:
  rms(total) = 0.80944E+00    rms(broyden)= 0.80919E+00
  rms(prec ) = 0.22945E+01
  weight for this iteration     100.00

 eigenvalues of (default mixing * dielectric matrix)
  average eigenvalue GAMMA=   0.9833
  2.1522  0.4891  0.3085

 Free energy of the ion-electron system (eV)
  ---------------------------------------------------
  alpha Z        PSCENC =       505.22967617
  Ewald energy   TEWEN  =     86627.42532656
  -Hartree energ DENC   =   -101205.71793426
  -exchange      EXHF   =         0.00000000
  -V(xc)+E(xc)   XCENC  =     -6588.07897401
  PAW double counting   =     20484.76635849   -12436.61681427
  entropy T*S    EENTRO =        -0.07510049
  eigenvalues    EBANDS =     -2345.03595616
  atomic energy  EATOM  =     14019.20197576
  Solvation  Ediel_sol  =         0.00000000
  ---------------------------------------------------
  free energy    TOTEN  =      -938.90144220 eV

  energy without entropy =     -938.82634172  energy(sigma->0) =     -938.86389196


--------------------------------------------------------------------------------------------------------




----------------------------------------- Iteration    1(   9)  ---------------------------------------


    POTLOK:  cpu time    0.7447: real time    0.7451
    SETDIJ:  cpu time    0.0879: real time    0.0880
     EDDAV:  cpu time   22.5696: real time   25.2302
       DOS:  cpu time    0.0021: real time    0.0021
    CHARGE:  cpu time    1.7242: real time    1.7558
    MIXING:  cpu time    0.0280: real time    0.0280
    --------------------------------------------
      LOOP:  cpu time   25.1580: real time   27.8520

 eigenvalue-minimisations  :  4032
 total energy-change (2. order) : 0.5722182E+01  (-0.7641451E+00)
 number of electron     765.9999999 magnetization 
 augmentation part      -10.2732700 magnetization 

 Broyden mixing:
  rms(total) = 0.51508E+00    rms(broyden)= 0.51508E+00
  rms(prec ) = 0.12354E+01
  weight for this iteration     100.00

 eigenvalues of (default mixing * dielectric matrix)
  average eigenvalue GAMMA=   0.9128
  2.4550  0.7558  0.2960  0.1443

 Free energy of the ion-electron system (eV)
  ---------------------------------------------------
  alpha Z        PSCENC =       505.22967617
  Ewald energy   TEWEN  =     86627.42532656
  -Hartree energ DENC   =   -101257.88644453
  -exchange      EXHF   =         0.00000000
  -V(xc)+E(xc)   XCENC  =     -6585.54561700
  PAW double counting   =     20885.79358712   -12837.89744690
  entropy T*S    EENTRO =        -0.04949128
  eigenvalues    EBANDS =     -2289.45082638
  atomic energy  EATOM  =     14019.20197576
  Solvation  Ediel_sol  =         0.00000000
  ---------------------------------------------------
  free energy    TOTEN  =      -933.17926049 eV

  energy without entropy =     -933.12976921  energy(sigma->0) =     -933.15451485


--------------------------------------------------------------------------------------------------------




----------------------------------------- Iteration    1(  10)  ---------------------------------------


    POTLOK:  cpu time    0.7462: real time    0.7466
    SETDIJ:  cpu time    0.0881: real time    0.0881
     EDDAV:  cpu time   21.9560: real time   24.5695
       DOS:  cpu time    0.0015: real time    0.0015
    CHARGE:  cpu time    1.7159: real time    1.7474
    MIXING:  cpu time    0.0298: real time    0.0299
    --------------------------------------------
      LOOP:  cpu time   24.5390: real time   27.1857

 eigenvalue-minimisations  :  3876
 total energy-change (2. order) : 0.3294694E+01  (-0.6093875E+00)
 number of electron     766.0000001 magnetization 
 augmentation part      -10.2980837 magnetization 

 Broyden mixing:
  rms(total) = 0.13886E+00    rms(broyden)= 0.13842E+00
  rms(prec ) = 0.30573E+00
  weight for this iteration     100.00

 eigenvalues of (default mixing * dielectric matrix)
  average eigenvalue GAMMA=   0.8753
  2.4839  0.8434  0.6220  0.2850  0.1421

 Free energy of the ion-electron system (eV)
  ---------------------------------------------------
  alpha Z        PSCENC =       505.22967617
  Ewald energy   TEWEN  =     86627.42532656
  -Hartree energ DENC   =   -101389.93045639
  -exchange      EXHF   =         0.00000000
  -V(xc)+E(xc)   XCENC  =     -6579.59168875
  PAW double counting   =     21790.06733887   -13742.88135965
  entropy T*S    EENTRO =        -0.05229646
  eigenvalues    EBANDS =     -2159.35308295
  atomic energy  EATOM  =     14019.20197576
  Solvation  Ediel_sol  =         0.00000000
  ---------------------------------------------------
  free energy    TOTEN  =      -929.88456686 eV

  energy without entropy =     -929.83227039  energy(sigma->0) =     -929.85841862


--------------------------------------------------------------------------------------------------------




----------------------------------------- Iteration    1(  11)  ---------------------------------------


    POTLOK:  cpu time    0.7492: real time    0.7496
    SETDIJ:  cpu time    0.0879: real time    0.0880
     EDDAV:  cpu time   21.8281: real time   24.5181
       DOS:  cpu time    0.0024: real time    0.0024
    CHARGE:  cpu time    1.7245: real time    1.7557
    MIXING:  cpu time    0.0321: real time    0.0398
    --------------------------------------------
      LOOP:  cpu time   24.4258: real time   27.1563

 eigenvalue-minimisations  :  3876
 total energy-change (2. order) : 0.1822873E+00  (-0.1749029E+00)
 number of electron     766.0000003 magnetization 
 augmentation part      -10.3282966 magnetization 

 Broyden mixing:
  rms(total) = 0.93696E-01    rms(broyden)= 0.93355E-01
  rms(prec ) = 0.11914E+00
  weight for this iteration     100.00

 eigenvalues of (default mixing * dielectric matrix)
  average eigenvalue GAMMA=   0.9622
  2.2956  1.5561  0.7481  0.7481  0.2835  0.1420

 Free energy of the ion-electron system (eV)
  ---------------------------------------------------
  alpha Z        PSCENC =       505.22967617
  Ewald energy   TEWEN  =     86627.42532656
  -Hartree energ DENC   =   -101461.52581105
  -exchange      EXHF   =         0.00000000
  -V(xc)+E(xc)   XCENC  =     -6578.09585222
  PAW double counting   =     21932.36901419   -13885.46608725
  entropy T*S    EENTRO =        -0.05450943
  eigenvalues    EBANDS =     -2088.78601224
  atomic energy  EATOM  =     14019.20197576
  Solvation  Ediel_sol  =         0.00000000
  ---------------------------------------------------
  free energy    TOTEN  =      -929.70227951 eV

  energy without entropy =     -929.64777009  energy(sigma->0) =     -929.67502480


--------------------------------------------------------------------------------------------------------




----------------------------------------- Iteration    1(  12)  ---------------------------------------


    POTLOK:  cpu time    0.7461: real time    0.7468
    SETDIJ:  cpu time    0.0876: real time    0.0877
     EDDAV:  cpu time   23.4248: real time   26.1958
       DOS:  cpu time    0.0023: real time    0.0023
    CHARGE:  cpu time    1.7209: real time    1.7520
    MIXING:  cpu time    0.0323: real time    0.0324
    --------------------------------------------
      LOOP:  cpu time   26.0156: real time   28.8197

 eigenvalue-minimisations  :  4236
 total energy-change (2. order) : 0.7257765E-02  (-0.2750834E-01)
 number of electron     766.0000007 magnetization 
 augmentation part      -10.3066010 magnetization 

 Broyden mixing:
  rms(total) = 0.11059E+00    rms(broyden)= 0.11009E+00
  rms(prec ) = 0.13523E+00
  weight for this iteration     100.00

 eigenvalues of (default mixing * dielectric matrix)
  average eigenvalue GAMMA=   1.0029
  2.3309  1.7914  1.1570  0.2838  0.1420  0.7452  0.5703

 Free energy of the ion-electron system (eV)
  ---------------------------------------------------
  alpha Z        PSCENC =       505.22967617
  Ewald energy   TEWEN  =     86627.42532656
  -Hartree energ DENC   =   -101498.81934862
  -exchange      EXHF   =         0.00000000
  -V(xc)+E(xc)   XCENC  =     -6577.74791908
  PAW double counting   =     21910.34776904   -13863.72253535
  entropy T*S    EENTRO =        -0.06400217
  eigenvalues    EBANDS =     -2051.54596405
  atomic energy  EATOM  =     14019.20197576
  Solvation  Ediel_sol  =         0.00000000
  ---------------------------------------------------
  free energy    TOTEN  =      -929.69502175 eV

  energy without entropy =     -929.63101957  energy(sigma->0) =     -929.66302066


--------------------------------------------------------------------------------------------------------




----------------------------------------- Iteration    1(  13)  ---------------------------------------


    POTLOK:  cpu time    0.7414: real time    0.7418
    SETDIJ:  cpu time    0.0875: real time    0.0875
     EDDAV:  cpu time   21.7170: real time   24.3255
       DOS:  cpu time    0.0169: real time    0.0173
    CHARGE:  cpu time    1.7050: real time    1.7361
    MIXING:  cpu time    0.0333: real time    0.0333
    --------------------------------------------
      LOOP:  cpu time   24.3028: real time   26.9665

 eigenvalue-minimisations  :  3840
 total energy-change (2. order) :-0.9086731E-03  (-0.3349763E-01)
 number of electron     766.0000000 magnetization 
 augmentation part      -10.3556788 magnetization 

 Broyden mixing:
  rms(total) = 0.12850E+00    rms(broyden)= 0.12737E+00
  rms(prec ) = 0.14936E+00
  weight for this iteration     100.00

 eigenvalues of (default mixing * dielectric matrix)
  average eigenvalue GAMMA=   1.0055
  2.4327  2.4327  0.8876  0.8876  0.6681  0.1420  0.2835  0.3094

 Free energy of the ion-electron system (eV)
  ---------------------------------------------------
  alpha Z        PSCENC =       505.22967617
  Ewald energy   TEWEN  =     86627.42532656
  -Hartree energ DENC   =   -101531.95509286
  -exchange      EXHF   =         0.00000000
  -V(xc)+E(xc)   XCENC  =     -6577.00455829
  PAW double counting   =     21942.59522790   -13896.23217753
  entropy T*S    EENTRO =        -0.05481228
  eigenvalues    EBANDS =     -2018.90149584
  atomic energy  EATOM  =     14019.20197576
  Solvation  Ediel_sol  =         0.00000000
  ---------------------------------------------------
  free energy    TOTEN  =      -929.69593042 eV

  energy without entropy =     -929.64111814  energy(sigma->0) =     -929.66852428


--------------------------------------------------------------------------------------------------------




----------------------------------------- Iteration    1(  14)  ---------------------------------------


    POTLOK:  cpu time    0.7502: real time    0.7512
    SETDIJ:  cpu time    0.0881: real time    0.0881
     EDDAV:  cpu time   21.3346: real time   23.9669
       DOS:  cpu time    0.0012: real time    0.0012
    CHARGE:  cpu time    1.7198: real time    1.7513
    MIXING:  cpu time    0.0363: real time    0.0363
    --------------------------------------------
      LOOP:  cpu time   23.9318: real time   26.5983

 eigenvalue-minimisations  :  3744
 total energy-change (2. order) : 0.5526503E-01  (-0.5548225E-02)
 number of electron     766.0000003 magnetization 
 augmentation part      -10.3279613 magnetization 

 Broyden mixing:
  rms(total) = 0.49316E-01    rms(broyden)= 0.48707E-01
  rms(prec ) = 0.64140E-01
  weight for this iteration     100.00

 eigenvalues of (default mixing * dielectric matrix)
  average eigenvalue GAMMA=   0.9433
  2.4889  2.4889  0.8877  0.8877  0.6393  0.1420  0.3893  0.2827  0.2827

 Free energy of the ion-electron system (eV)
  ---------------------------------------------------
  alpha Z        PSCENC =       505.22967617
  Ewald energy   TEWEN  =     86627.42532656
  -Hartree energ DENC   =   -101556.34846513
  -exchange      EXHF   =         0.00000000
  -V(xc)+E(xc)   XCENC  =     -6576.71798958
  PAW double counting   =     21950.87113809   -13904.60998402
  entropy T*S    EENTRO =        -0.05713105
  eigenvalues    EBANDS =     -1994.63521219
  atomic energy  EATOM  =     14019.20197576
  Solvation  Ediel_sol  =         0.00000000
  ---------------------------------------------------
  free energy    TOTEN  =      -929.64066539 eV

  energy without entropy =     -929.58353434  energy(sigma->0) =     -929.61209986


--------------------------------------------------------------------------------------------------------




----------------------------------------- Iteration    1(  15)  ---------------------------------------


    POTLOK:  cpu time    0.7491: real time    0.7495
    SETDIJ:  cpu time    0.0874: real time    0.0874
     EDDAV:  cpu time   21.3400: real time   23.9523
       DOS:  cpu time    0.0021: real time    0.0021
    CHARGE:  cpu time    1.7117: real time    1.7431
    MIXING:  cpu time    0.0385: real time    0.0385
    --------------------------------------------
      LOOP:  cpu time   23.9306: real time   26.5761

 eigenvalue-minimisations  :  3744
 total energy-change (2. order) :-0.2031882E-01  (-0.4319140E-02)
 number of electron     766.0000012 magnetization 
 augmentation part      -10.2321494 magnetization 

 Broyden mixing:
  rms(total) = 0.30490E+00    rms(broyden)= 0.30303E+00
  rms(prec ) = 0.34981E+00
  weight for this iteration     100.00

 eigenvalues of (default mixing * dielectric matrix)
  average eigenvalue GAMMA=   0.8548
  2.5071  2.5071  0.8884  0.8884  0.6440  0.1420  0.3794  0.2829  0.2829  0.0256

 Free energy of the ion-electron system (eV)
  ---------------------------------------------------
  alpha Z        PSCENC =       505.22967617
  Ewald energy   TEWEN  =     86627.42532656
  -Hartree energ DENC   =   -101565.64592101
  -exchange      EXHF   =         0.00000000
  -V(xc)+E(xc)   XCENC  =     -6576.62446892
  PAW double counting   =     21955.76950679   -13909.50316137
  entropy T*S    EENTRO =        -0.09546705
  eigenvalues    EBANDS =     -1985.41845113
  atomic energy  EATOM  =     14019.20197576
  Solvation  Ediel_sol  =         0.00000000
  ---------------------------------------------------
  free energy    TOTEN  =      -929.66098421 eV

  energy without entropy =     -929.56551715  energy(sigma->0) =     -929.61325068


--------------------------------------------------------------------------------------------------------




----------------------------------------- Iteration    1(  16)  ---------------------------------------


    POTLOK:  cpu time    0.7491: real time    0.7496
    SETDIJ:  cpu time    0.0876: real time    0.0876
     EDDAV:  cpu time   21.3091: real time   23.8187
       DOS:  cpu time    0.0020: real time    0.0020
    CHARGE:  cpu time    1.7040: real time    1.7358
    MIXING:  cpu time    0.0402: real time    0.0402
    --------------------------------------------
      LOOP:  cpu time   23.8942: real time   26.4398

 eigenvalue-minimisations  :  3720
 total energy-change (2. order) : 0.3748224E-01  (-0.6367033E-03)
 number of electron     766.0000010 magnetization 
 augmentation part      -10.2574749 magnetization 

 Broyden mixing:
  rms(total) = 0.21937E+00    rms(broyden)= 0.21931E+00
  rms(prec ) = 0.25430E+00
  weight for this iteration     100.00

 eigenvalues of (default mixing * dielectric matrix)
  average eigenvalue GAMMA=   0.8506
  2.5408  2.5408  0.9785  0.9785  0.6430  0.6430  0.1420  0.2843  0.3372  0.2391
  0.0291

 Free energy of the ion-electron system (eV)
  ---------------------------------------------------
  alpha Z        PSCENC =       505.22967617
  Ewald energy   TEWEN  =     86627.42532656
  -Hartree energ DENC   =   -101565.39493353
  -exchange      EXHF   =         0.00000000
  -V(xc)+E(xc)   XCENC  =     -6576.60437875
  PAW double counting   =     21956.16155749   -13909.89375591
  entropy T*S    EENTRO =        -0.08646052
  eigenvalues    EBANDS =     -1985.66250924
  atomic energy  EATOM  =     14019.20197576
  Solvation  Ediel_sol  =         0.00000000
  ---------------------------------------------------
  free energy    TOTEN  =      -929.62350197 eV

  energy without entropy =     -929.53704145  energy(sigma->0) =     -929.58027171


--------------------------------------------------------------------------------------------------------




----------------------------------------- Iteration    1(  17)  ---------------------------------------


    POTLOK:  cpu time    0.7502: real time    0.7507
    SETDIJ:  cpu time    0.0877: real time    0.0877
     EDDAV:  cpu time   21.1253: real time   23.6905
       DOS:  cpu time    0.0023: real time    0.0023
    CHARGE:  cpu time    1.7117: real time    1.7429
    MIXING:  cpu time    0.0413: real time    0.0413
    --------------------------------------------
[...]
     11.69112     -8.59029     -8.26601        -0.000264     -0.004112      0.003602
     11.69112    -17.18057    -13.22561         0.002626      0.001419     -0.000032
     11.69112    -11.45372     -3.30640        -0.002645     -0.000015     -0.003299
     11.69112    -14.31714     -8.26601         0.000529     -0.001249      0.002405
     13.99306      0.00000      0.00000        -0.000943     -0.000749     -0.001837
     13.99306     -2.86343     -4.95960        -0.002881     -0.001537     -0.000057
     13.99306     -5.72686     -9.91921        -0.002042     -0.001883     -0.000362
     13.99306     -5.72686      0.00000        -0.001695     -0.000669     -0.002343
     13.99306     -8.59029     -4.95960        -0.013598      0.000733     -0.006031
     13.99306    -11.45372     -9.91921        -0.006533     -0.001791      0.002647
     13.99306    -11.45372      0.00000        -0.003795     -0.000199     -0.002507
     13.99306    -14.31714     -4.95960        -0.005985     -0.002123     -0.002037
     13.99306    -17.18057     -9.91921        -0.002479      0.000258     -0.000891
     16.34180     -2.86343     -1.65320        -0.000665      0.000160      0.000339
     16.34180     -5.72686     -6.61281         0.004727     -0.000854      0.000517
     16.34180     -8.59029    -11.57241         0.003476     -0.001055      0.001653
     16.34180     -8.59029     -1.65320         0.000573      0.001524     -0.002546
     16.34180    -11.45372     -6.61281         0.051671      0.006963      0.003596
     16.34180    -14.31714    -11.57241         0.000623      0.000265      0.001647
     16.34180    -14.31714     -1.65320        -0.000525      0.000343     -0.001905
     16.34180    -17.18057     -6.61281         0.000023      0.004289      0.000264
     16.34180    -20.04400    -11.57241        -0.000095     -0.000295     -0.001056
      2.36204     -7.15857     -4.13300         0.000527      0.002184     -0.005997
      2.36204    -10.02200     -9.09261        -0.002700      0.000000      0.002024
      2.36204    -12.88543    -14.05221        -0.002659     -0.000458      0.000816
      2.36204    -12.88543     -4.13300         0.000527     -0.002184     -0.005997
      2.36204    -15.74886     -9.09261         0.002424     -0.000982     -0.002803
      2.36204    -18.61229    -14.05221         0.001048      0.000000     -0.004064
      2.36204    -18.61229     -4.13300        -0.000030      0.000000      0.000966
      2.36204    -21.47572     -9.09261         0.002424      0.000982     -0.002803
      2.36204    -24.33915    -14.05221        -0.002659      0.000458      0.000816
      4.71078    -10.02200     -5.78621        -0.007525      0.000000     -0.004258
      4.71078    -12.88543    -10.74581         0.000963     -0.001491     -0.002518
      4.71078     -7.15857     -0.82660        -0.003446     -0.000290      0.002720
      4.71078    -15.74886     -5.78621         0.000458     -0.001663      0.001210
      4.71078    -18.61229    -10.74581        -0.002081      0.000000     -0.002494
      4.71078    -12.88543     -0.82660        -0.003446      0.000290      0.002720
      4.71078     -4.29514     -5.78621         0.000458      0.001663      0.001210
      4.71078     -7.15857    -10.74581         0.000963      0.001491     -0.002518
      4.71078     -1.43171     -0.82660        -0.000179      0.000000     -0.000614
      7.01272    -12.88543     -7.43941         0.001148      0.003730      0.002816
      7.01272    -15.74886    -12.39901         0.001534     -0.001748      0.002996
      7.01272    -10.02200     -2.47980         0.000254      0.000000      0.001008
      7.01272    -18.61229     -7.43941         0.001613      0.000000      0.004006
      7.01272    -21.47572    -12.39901         0.001534      0.001748      0.002996
      7.01272    -15.74886     -2.47980         0.001943     -0.000645      0.002034
      7.01272     -7.15857     -7.43941         0.001148     -0.003730      0.002816
      7.01272    -10.02200    -12.39901         0.002364      0.000000      0.001537
      7.01272     -4.29514     -2.47980         0.001943      0.000645      0.002034
      9.35192    -15.74886     -9.09261        -0.000014     -0.000187      0.000208
      9.35192    -18.61229    -14.05221        -0.001447      0.000000     -0.001446
      9.35192    -12.88543     -4.13300        -0.001349      0.003129     -0.004042
      9.35192    -21.47572     -9.09261        -0.000014      0.000187      0.000208
      9.35192    -24.33915    -14.05221         0.001125     -0.000371      0.001159
      9.35192    -18.61229     -4.13300         0.002576      0.000000     -0.000581
      9.35192    -10.02200     -9.09261         0.003339      0.000000      0.007329
      9.35192    -12.88543    -14.05221         0.001125      0.000371      0.001159
      9.35192     -7.15857     -4.13300        -0.001349     -0.003129     -0.004042
     11.69112    -18.61229    -10.74581         0.001510      0.000000     -0.001856
     11.69112    -12.88543     -0.82660         0.002342      0.002095     -0.003322
     11.69112    -15.74886     -5.78621         0.001112      0.000250     -0.000997
     11.69112     -7.15857    -10.74581         0.003114     -0.000109     -0.001721
     11.69112     -1.43171     -0.82660         0.002391      0.000000     -0.002857
     11.69112     -4.29514     -5.78621         0.001112     -0.000250     -0.000997
     11.69112    -12.88543    -10.74581         0.003114      0.000109     -0.001721
     11.69112     -7.15857     -0.82660         0.002342     -0.002095     -0.003322
     11.69112    -10.02200     -5.78621        -0.005593      0.000000     -0.002622
     13.99306    -21.47572    -12.39901        -0.001771     -0.000263      0.000720
     13.99306    -15.74886     -2.47980        -0.001714     -0.000449      0.000926
     13.99306    -18.61229     -7.43941        -0.002572      0.000000      0.001768
     13.99306    -10.02200    -12.39901         0.001121      0.000000      0.000662
     13.99306     -4.29514     -2.47980        -0.001714      0.000449      0.000926
     13.99306     -7.15857     -7.43941        -0.007911     -0.004157      0.005779
     13.99306    -15.74886    -12.39901        -0.001771      0.000263      0.000720
     13.99306    -10.02200     -2.47980        -0.005921      0.000000      0.008410
     13.99306    -12.88543     -7.43941        -0.007911      0.004157      0.005779
     16.34180    -24.33915    -14.05221        -0.000515     -0.000664     -0.000683
     16.34180    -18.61229     -4.13300        -0.002434      0.000000      0.000391
     16.34180    -21.47572     -9.09261         0.001524     -0.002038      0.001055
     16.34180    -12.88543    -14.05221        -0.000515      0.000664     -0.000683
     16.34180     -7.15857     -4.13300         0.011526     -0.000994     -0.001599
     16.34180    -10.02200     -9.09261         0.084531      0.000000      0.021718
     16.34180    -18.61229    -14.05221         0.001210      0.000000      0.001182
     16.34180    -12.88543     -4.13300         0.011526      0.000994     -0.001599
     16.34180    -15.74886     -9.09261         0.001524      0.002038      0.001055
      2.36204     -8.59029     -6.61281        -0.006872     -0.003305      0.001311
      2.36204    -11.45372    -11.57241         0.000058     -0.000874     -0.003756
      2.36204     -5.72686     -1.65320        -0.001156      0.000708      0.003748
      2.36204    -14.31714     -6.61281         0.000495      0.002685      0.003473
      2.36204    -17.18057    -11.57241        -0.000681      0.000085      0.002532
      2.36204    -11.45372     -1.65320         0.001474     -0.002198      0.007427
      2.36204    -20.04400     -6.61281        -0.000491      0.002242      0.000766
      2.36204    -22.90743    -11.57241         0.000067     -0.000070     -0.003376
      2.36204    -17.18057     -1.65320        -0.000809      0.000599      0.000238
      4.71078    -11.45372     -8.26601        -0.001280      0.001417      0.006010
      4.71078    -14.31714    -13.22561        -0.003046      0.000846     -0.000064
      4.71078     -8.59029     -3.30640         0.003070      0.000499     -0.002770
      4.71078    -17.18057     -8.26601         0.000355     -0.001060      0.001931
      4.71078    -20.04400    -13.22561        -0.001078     -0.000325     -0.000350
      4.71078    -14.31714     -3.30640         0.000410     -0.002111     -0.000003
      4.71078     -5.72686     -8.26601         0.001115     -0.001413      0.001348
      4.71078     -8.59029    -13.22561        -0.001497      0.000254      0.000021
      4.71078     -2.86343     -3.30640        -0.001370     -0.000359      0.002236
      7.01272    -14.31714     -9.91921         0.003765     -0.001409     -0.000557
      7.01272     -8.59029      0.00000        -0.000097     -0.000076     -0.001390
      7.01272    -11.45372     -4.95960         0.001753      0.002722     -0.007583
      7.01272    -20.04400     -9.91921         0.001794     -0.002308     -0.003633
      7.01272    -14.31714      0.00000         0.001020      0.001361     -0.001119
      7.01272    -17.18057     -4.95960         0.001402      0.000063     -0.002356
      7.01272     -8.59029     -9.91921         0.003361     -0.001264      0.002380
      7.01272     -2.86343      0.00000         0.000658      0.000719     -0.002126
      7.01272     -5.72686     -4.95960         0.000700     -0.002365     -0.002923
      9.35192    -17.18057    -11.57241        -0.000104      0.000101      0.000686
      9.35192    -11.45372     -1.65320         0.000621     -0.000817      0.002569
      9.35192    -14.31714     -6.61281         0.004469      0.002298     -0.000232
      9.35192    -22.90743    -11.57241         0.001771     -0.000705      0.001204
      9.35192    -17.18057     -1.65320        -0.000636      0.000227     -0.001755
      9.35192    -20.04400     -6.61281         0.001684      0.000358      0.000213
      9.35192    -11.45372    -11.57241        -0.000097     -0.000917     -0.001711
      9.35192     -5.72686     -1.65320         0.001162      0.000062     -0.000307
      9.35192     -8.59029     -6.61281         0.011185     -0.001615      0.000005
     11.69112    -20.04400    -13.22561         0.002626     -0.001419     -0.000032
     11.69112    -14.31714     -3.30640         0.001927     -0.000663      0.000450
     11.69112    -17.18057     -8.26601        -0.000406      0.002088      0.002472
     11.69112     -8.59029    -13.22561         0.000659      0.001052      0.004459
     11.69112     -2.86343     -3.30640         0.001232     -0.001499      0.000019
     11.69112     -5.72686     -8.26601         0.000529      0.001249      0.002405
     11.69112    -14.31714    -13.22561         0.000543      0.002156      0.002447
     11.69112     -8.59029     -3.30640        -0.002645      0.000015     -0.003299
     11.69112    -11.45372     -8.26601        -0.000264      0.004112      0.003602
     13.99306    -14.31714      0.00000        -0.001695      0.000669     -0.002343
     13.99306    -17.18057     -4.95960        -0.002881      0.001537     -0.000057
     13.99306    -20.04400     -9.91921        -0.002479     -0.000258     -0.000891
     13.99306     -2.86343      0.00000        -0.000943      0.000749     -0.001837
     13.99306     -5.72686     -4.95960        -0.005985      0.002123     -0.002037
     13.99306     -8.59029     -9.91921        -0.006533      0.001791      0.002647
     13.99306     -8.59029      0.00000        -0.003795      0.000199     -0.002507
     13.99306    -11.45372     -4.95960        -0.013598     -0.000733     -0.006031
     13.99306    -14.31714     -9.91921        -0.002042      0.001883     -0.000362
     16.34180    -17.18057     -1.65320        -0.000665     -0.000160      0.000339
     16.34180    -20.04400     -6.61281         0.000023     -0.004289      0.000264
     16.34180    -22.90743    -11.57241         0.000623     -0.000265      0.001647
     16.34180     -5.72686     -1.65320        -0.000525     -0.000343     -0.001905
     16.34180     -8.59029     -6.61281         0.051671     -0.006963      0.003596
     16.34180    -11.45372    -11.57241         0.003476      0.001055      0.001653
     16.34180    -11.45372     -1.65320         0.000573     -0.001524     -0.002546
     16.34180    -14.31714     -6.61281         0.004727      0.000854      0.000517
     16.34180    -17.18057    -11.57241        -0.000095      0.000295     -0.001056
      2.36204    -10.02200     -4.13300         0.003089      0.000000     -0.008879
      2.36204    -12.88543     -9.09261         0.001615      0.002639      0.002158
      2.36204    -15.74886    -14.05221        -0.002751      0.002542     -0.004106
      2.36204    -15.74886     -4.13300         0.000179     -0.000166      0.002114
      2.36204    -18.61229     -9.09261         0.002254      0.000000     -0.000029
      2.36204    -21.47572    -14.05221        -0.002751     -0.002542     -0.004106
      2.36204     -4.29514     -4.13300         0.000179      0.000166      0.002114
      2.36204     -7.15857     -9.09261         0.001615     -0.002639      0.002158
      2.36204    -10.02200    -14.05221        -0.002735      0.000000      0.000081
      4.71078    -12.88543     -5.78621        -0.003063      0.004317     -0.000234
      4.71078    -15.74886    -10.74581        -0.001322     -0.001280     -0.002606
      4.71078    -10.02200     -0.82660         0.001108      0.000000      0.002543
      4.71078    -18.61229     -5.78621        -0.000175      0.000000     -0.002596
      4.71078    -21.47572    -10.74581        -0.001322      0.001280     -0.002606
      4.71078    -15.74886     -0.82660        -0.001724     -0.000212     -0.000128
      4.71078     -7.15857     -5.78621        -0.003063     -0.004317     -0.000234
      4.71078    -10.02200    -10.74581         0.000947      0.000000     -0.001459
      4.71078     -4.29514     -0.82660        -0.001724      0.000212     -0.000128
      7.01272    -15.74886     -7.43941         0.001022     -0.000132     -0.001185
      7.01272    -18.61229    -12.39901         0.001589      0.000000      0.001651
      7.01272    -12.88543     -2.47980         0.003536     -0.001162      0.002654
      7.01272    -21.47571     -7.43941         0.001022      0.000132     -0.001185
      7.01272    -24.33914    -12.39901        -0.000680     -0.001614      0.001157
      7.01272    -18.61228     -2.47980        -0.000250      0.000000      0.003045
      7.01272    -10.02200     -7.43941         0.003603      0.000000      0.002875
      7.01272    -12.88543    -12.39901        -0.000680      0.001614      0.001157
      7.01272     -7.15857     -2.47980         0.003536      0.001162      0.002654
      9.35192    -18.61229     -9.09261         0.003869      0.000000      0.000903
      9.35192    -21.47572    -14.05221         0.000486      0.000135     -0.002360
      9.35192    -15.74886     -4.13300         0.000951     -0.000661     -0.000520
      9.35192     -7.15857     -9.09261        -0.002666     -0.001285      0.003224
      9.35192    -10.02200    -14.05221        -0.000105      0.000000      0.001453
      9.35192     -4.29514     -4.13300         0.000951      0.000661     -0.000520
      9.35192    -12.88543     -9.09261        -0.002666      0.001285      0.003224
      9.35192    -15.74886    -14.05221         0.000486     -0.000135     -0.002360
      9.35192    -10.02200     -4.13300         0.001063      0.000000     -0.007349
     11.69112    -21.47572    -10.74581         0.001389     -0.000877      0.000607
     11.69112    -15.74886     -0.82660         0.001600     -0.000685     -0.001908
     11.69112    -18.61229     -5.78621         0.000626      0.000000     -0.001783
     11.69112    -10.02200    -10.74581        -0.004200      0.000000     -0.001465
     11.69112     -4.29514     -0.82660         0.001600      0.000685     -0.001908
     11.69112     -7.15857     -5.78621         0.001588     -0.002798     -0.002967
     11.69112    -15.74886    -10.74581         0.001389      0.000877      0.000607
     11.69112    -10.02200     -0.82660         0.003846      0.000000     -0.003022
     11.69112    -12.88543     -5.78621         0.001588      0.002798     -0.002967
     13.99306    -24.33914    -12.39901        -0.002000     -0.000432      0.002581
     13.99306    -18.61228     -2.47980        -0.001940      0.000000      0.001386
     13.99306    -21.47571     -7.43941        -0.000072     -0.001745      0.001847
     13.99306    -12.88543    -12.39901        -0.002000      0.000432      0.002581
     13.99306     -7.15857     -2.47980        -0.000391      0.002481      0.002032
     13.99306    -10.02200     -7.43941        -0.034686      0.000000     -0.000212
     13.99306    -18.61229    -12.39901        -0.002037      0.000000      0.001661
     13.99306    -12.88543     -2.47980        -0.000391     -0.002481      0.002032
     13.99306    -15.74886     -7.43941        -0.000072      0.001745      0.001847
     16.34180    -10.02200    -14.05221        -0.000682      0.000000     -0.001087
     16.34180     -4.29514     -4.13300         0.002372     -0.001305     -0.000662
     16.34180     -7.15857     -9.09261         0.007809      0.000549      0.001437
     16.34180    -15.74886    -14.05221        -0.000531     -0.000352      0.001075
     16.34180    -10.02200     -4.13300         0.086160      0.000000     -0.026519
     16.34180    -12.88543     -9.09261         0.007809     -0.000549      0.001437
     16.34180    -21.47572    -14.05221        -0.000531      0.000352      0.001075
     16.34180    -15.74886     -4.13300         0.002372      0.001305     -0.000662
     16.34180    -18.61229     -9.09261        -0.001741      0.000000      0.000503
     20.04000    -10.02200     -7.43941        -0.126164      0.000000     12.435280
     20.04000    -10.02200     -5.78620        -0.134790     -0.000000    -12.440528
 -----------------------------------------------------------------------------------
    total drift:                                0.112165      0.002125     -0.000390


--------------------------------------------------------------------------------------------------------



  FREE ENERGIE OF THE ION-ELECTRON SYSTEM (eV)
  ---------------------------------------------------
  free  energy   TOTEN  =      -929.67070804 eV

  energy  without entropy=     -929.61256905  energy(sigma->0) =     -929.64163855
 


--------------------------------------------------------------------------------------------------------


    POTLOK:  cpu time    0.8616: real time    0.8677


--------------------------------------------------------------------------------------------------------


     LOOP+:  cpu time  799.3071: real time  888.3198
    4ORBIT:  cpu time    0.0000: real time    0.0000

 total amount of memory used by VASP MPI-rank0   652219. kBytes
=======================================================================

   base      :      30000. kBytes
   nonlr-proj:      89998. kBytes
   fftplans  :      40601. kBytes
   grid      :      95147. kBytes
   one-center:       3950. kBytes
   wavefun   :     392523. kBytes
 
  
  
 General timing and accounting informations for this job:
 ========================================================
  
                  Total CPU time used (sec):      814.618
                            User time (sec):       86.487
                          System time (sec):      728.131
                         Elapsed time (sec):      905.908
  
                   Maximum memory used (kb):     1009708.
                   Average memory used (kb):           0.
  
                          Minor page faults:     30373239
                          Major page faults:           68
                 Voluntary context switches:        20771
