 254 254   0   0
  0.2268316E+02  0.1514622E-08  0.1514622E-08  0.2900000E-08  0.5000000E-15
  1.000000000000000E-004
  CAR 
 NiAl                                    
      6.14969208    -26.04151909  301     -0.56952124      1.00000000
    -26.042  0.0000E+00  0.0000E+00
    -25.934  0.0000E+00  0.0000E+00
    -25.827  0.0000E+00  0.0000E+00
    -25.720  0.0000E+00  0.0000E+00
    -25.612  0.0000E+00  0.0000E+00
    -25.505  0.0000E+00  0.0000E+00
    -25.398  0.0000E+00  0.0000E+00
    -25.290  0.0000E+00  0.0000E+00
    -25.183  0.0000E+00  0.0000E+00
    -25.076  0.0000E+00  0.0000E+00
    -24.968  0.0000E+00  0.0000E+00
    -24.861  0.1086E-13  0.1166E-14
    -24.754  0.6167E-05  0.6618E-06
    -24.647  0.4912E+00  0.5271E-01
    -24.539  0.1561E+02  0.1728E+01
    -24.432  0.2538E+01  0.2000E+01
    -24.325  0.3342E-03  0.2000E+01
    -24.217  0.7114E-11  0.2000E+01
    -24.110  0.0000E+00  0.2000E+01
    -24.003  0.0000E+00  0.2000E+01
    -23.895  0.0000E+00  0.2000E+01
    -23.788  0.0000E+00  0.2000E+01
    -23.681  0.0000E+00  0.2000E+01
    -23.574  0.0000E+00  0.2000E+01
    -23.466  0.0000E+00  0.2000E+01
    -23.359  0.0000E+00  0.2000E+01
    -23.252  0.0000E+00  0.2000E+01
    -23.144  0.0000E+00  0.2000E+01
    -23.037  0.0000E+00  0.2000E+01
    -22.930  0.0000E+00  0.2000E+01
    -22.822  0.0000E+00  0.2000E+01
    -22.715  0.0000E+00  0.2000E+01
    -22.608  0.0000E+00  0.2000E+01
    -22.500  0.0000E+00  0.2000E+01
    -22.393  0.0000E+00  0.2000E+01
    -22.286  0.0000E+00  0.2000E+01
    -22.179  0.0000E+00  0.2000E+01
    -22.071  0.0000E+00  0.2000E+01
    -21.964  0.0000E+00  0.2000E+01
    -21.857  0.0000E+00  0.2000E+01
    -21.749  0.0000E+00  0.2000E+01
    -21.642  0.0000E+00  0.2000E+01
    -21.535  0.0000E+00  0.2000E+01
    -21.427  0.0000E+00  0.2000E+01
    -21.320  0.0000E+00  0.2000E+01
    -21.213  0.0000E+00  0.2000E+01
    -21.106  0.0000E+00  0.2000E+01
    -20.998  0.0000E+00  0.2000E+01
    -20.891  0.0000E+00  0.2000E+01
    -20.784  0.0000E+00  0.2000E+01
    -20.676  0.0000E+00  0.2000E+01
    -20.569  0.0000E+00  0.2000E+01
    -20.462  0.0000E+00  0.2000E+01
    -20.354  0.0000E+00  0.2000E+01
    -20.247  0.0000E+00  0.2000E+01
    -20.140  0.0000E+00  0.2000E+01
    -20.032  0.0000E+00  0.2000E+01
    -19.925  0.0000E+00  0.2000E+01
    -19.818  0.0000E+00  0.2000E+01
    -19.711  0.0000E+00  0.2000E+01
    -19.603  0.0000E+00  0.2000E+01
    -19.496  0.0000E+00  0.2000E+01
    -19.389  0.0000E+00  0.2000E+01
    -19.281  0.0000E+00  0.2000E+01
    -19.174  0.0000E+00  0.2000E+01
    -19.067  0.0000E+00  0.2000E+01
    -18.959  0.0000E+00  0.2000E+01
    -18.852  0.0000E+00  0.2000E+01
    -18.745  0.0000E+00  0.2000E+01
    -18.638  0.0000E+00  0.2000E+01
    -18.530  0.0000E+00  0.2000E+01
    -18.423  0.0000E+00  0.2000E+01
    -18.316  0.0000E+00  0.2000E+01
    -18.208  0.0000E+00  0.2000E+01
    -18.101  0.0000E+00  0.2000E+01
    -17.994  0.0000E+00  0.2000E+01
    -17.886  0.0000E+00  0.2000E+01
    -17.779  0.0000E+00  0.2000E+01
    -17.672  0.0000E+00  0.2000E+01
    -17.565  0.0000E+00  0.2000E+01
    -17.457  0.0000E+00  0.2000E+01
    -17.350  0.0000E+00  0.2000E+01
    -17.243  0.0000E+00  0.2000E+01
    -17.135  0.0000E+00  0.2000E+01
    -17.028  0.0000E+00  0.2000E+01
    -16.921  0.0000E+00  0.2000E+01
    -16.813  0.0000E+00  0.2000E+01
    -16.706  0.0000E+00  0.2000E+01
    -16.599  0.0000E+00  0.2000E+01
    -16.491  0.0000E+00  0.2000E+01
    -16.384  0.0000E+00  0.2000E+01
    -16.277  0.0000E+00  0.2000E+01
    -16.170  0.0000E+00  0.2000E+01
    -16.062  0.0000E+00  0.2000E+01
    -15.955  0.0000E+00  0.2000E+01
    -15.848  0.0000E+00  0.2000E+01
    -15.740  0.0000E+00  0.2000E+01
    -15.633  0.0000E+00  0.2000E+01
    -15.526  0.0000E+00  0.2000E+01
    -15.418  0.0000E+00  0.2000E+01
    -15.311  0.0000E+00  0.2000E+01
    -15.204  0.0000E+00  0.2000E+01
    -15.097  0.0000E+00  0.2000E+01
    -14.989  0.0000E+00  0.2000E+01
    -14.882  0.0000E+00  0.2000E+01
    -14.775  0.0000E+00  0.2000E+01
    -14.667  0.0000E+00  0.2000E+01
    -14.560  0.0000E+00  0.2000E+01
    -14.453  0.0000E+00  0.2000E+01
    -14.345  0.0000E+00  0.2000E+01
    -14.238  0.0000E+00  0.2000E+01
    -14.131  0.0000E+00  0.2000E+01
    -14.023  0.0000E+00  0.2000E+01
    -13.916  0.0000E+00  0.2000E+01
    -13.809  0.0000E+00  0.2000E+01
    -13.702  0.0000E+00  0.2000E+01
    -13.594  0.0000E+00  0.2000E+01
    -13.487  0.0000E+00  0.2000E+01
    -13.380  0.0000E+00  0.2000E+01
    -13.272  0.0000E+00  0.2000E+01
    -13.165  0.0000E+00  0.2000E+01
    -13.058  0.0000E+00  0.2000E+01
    -12.950  0.0000E+00  0.2000E+01
    -12.843  0.0000E+00  0.2000E+01
    -12.736  0.0000E+00  0.2000E+01
    -12.629  0.0000E+00  0.2000E+01
    -12.521  0.0000E+00  0.2000E+01
    -12.414  0.0000E+00  0.2000E+01
    -12.307  0.0000E+00  0.2000E+01
    -12.199  0.0000E+00  0.2000E+01
    -12.092  0.0000E+00  0.2000E+01
    -11.985  0.0000E+00  0.2000E+01
    -11.877  0.0000E+00  0.2000E+01
    -11.770  0.0000E+00  0.2000E+01
    -11.663  0.0000E+00  0.2000E+01
    -11.555  0.0000E+00  0.2000E+01
    -11.448  0.0000E+00  0.2000E+01
    -11.341  0.0000E+00  0.2000E+01
    -11.234  0.0000E+00  0.2000E+01
    -11.126  0.0000E+00  0.2000E+01
    -11.019  0.0000E+00  0.2000E+01
    -10.912  0.0000E+00  0.2000E+01
    -10.804  0.0000E+00  0.2000E+01
    -10.697  0.0000E+00  0.2000E+01
    -10.590  0.0000E+00  0.2000E+01
    -10.482  0.0000E+00  0.2000E+01
    -10.375  0.0000E+00  0.2000E+01
    -10.268  0.0000E+00  0.2000E+01
    -10.161  0.0000E+00  0.2000E+01
    -10.053  0.0000E+00  0.2000E+01
     -9.946  0.0000E+00  0.2000E+01
     -9.839  0.3052E-08  0.2000E+01
     -9.731  0.1075E-01  0.2001E+01
     -9.624  0.7721E+01  0.2830E+01
     -9.517  0.1086E+02  0.3995E+01
     -9.409  0.4477E-01  0.4000E+01
     -9.302  0.4449E-07  0.4000E+01
     -9.195  0.1879E-03  0.4000E+01
     -9.087  0.8483E+00  0.4091E+01
     -8.980  0.3734E+01  0.4492E+01
     -8.873  0.2394E+01  0.4749E+01
     -8.766  0.2425E+02  0.7351E+01
     -8.658  0.1390E+01  0.7500E+01
     -8.551  0.1325E+01  0.7642E+01
     -8.444  0.3868E+01  0.8057E+01
     -8.336  0.2867E+02  0.1113E+02
     -8.229  0.2673E+02  0.1400E+02
     -8.122  0.2227E+02  0.1639E+02
     -8.014  0.1793E+02  0.1832E+02
     -7.907  0.7778E+01  0.1915E+02
     -7.800  0.2376E+02  0.2170E+02
     -7.693  0.2017E+02  0.2386E+02
     -7.585  0.3197E+02  0.2729E+02
     -7.478  0.5660E+02  0.3337E+02
     -7.371  0.2911E+02  0.3649E+02
     -7.263  0.8661E-01  0.3650E+02
     -7.156  0.2027E+01  0.3672E+02
     -7.049  0.5287E+02  0.4239E+02
     -6.941  0.5649E+02  0.4845E+02
     -6.834  0.2048E+02  0.5065E+02
     -6.727  0.8586E+01  0.5157E+02
     -6.619  0.2582E+02  0.5434E+02
     -6.512  0.2367E+02  0.5688E+02
     -6.405  0.4092E+02  0.6127E+02
     -6.298  0.7202E+02  0.6900E+02
     -6.190  0.4589E+02  0.7393E+02
     -6.083  0.3297E+02  0.7746E+02
     -5.976  0.5404E+02  0.8326E+02
     -5.868  0.1008E+03  0.9408E+02
     -5.761  0.1779E+02  0.9599E+02
     -5.654  0.2287E+01  0.9624E+02
     -5.546  0.2099E+02  0.9849E+02
     -5.439  0.5843E+02  0.1048E+03
     -5.332  0.1543E+03  0.1213E+03
     -5.225  0.5145E+02  0.1268E+03
     -5.117  0.7699E+02  0.1351E+03
     -5.010  0.1151E+03  0.1475E+03
     -4.903  0.8808E+02  0.1569E+03
     -4.795  0.4777E+02  0.1620E+03
     -4.688  0.2654E+03  0.1905E+03
     -4.581  0.1487E+03  0.2065E+03
     -4.473  0.2477E+03  0.2330E+03
     -4.366  0.2574E+03  0.2607E+03
     -4.259  0.2948E+03  0.2923E+03
     -4.151  0.2653E+03  0.3208E+03
     -4.044  0.2415E+03  0.3467E+03
     -3.937  0.4366E+03  0.3935E+03
     -3.830  0.5264E+03  0.4500E+03
     -3.722  0.4488E+03  0.4982E+03
     -3.615  0.4530E+03  0.5468E+03
     -3.508  0.4322E+03  0.5931E+03
     -3.400  0.3777E+03  0.6337E+03
     -3.293  0.3355E+03  0.6697E+03
     -3.186  0.4684E+03  0.7199E+03
     -3.078  0.5292E+03  0.7767E+03
     -2.971  0.3473E+03  0.8140E+03
     -2.864  0.5996E+03  0.8783E+03
     -2.757  0.4988E+03  0.9318E+03
     -2.649  0.5395E+03  0.9897E+03
     -2.542  0.5585E+03  0.1050E+04
     -2.435  0.6905E+03  0.1124E+04
     -2.327  0.7836E+03  0.1208E+04
     -2.220  0.9342E+03  0.1308E+04
     -2.113  0.7830E+03  0.1392E+04
     -2.005  0.9018E+03  0.1489E+04
     -1.898  0.7204E+03  0.1566E+04
     -1.791  0.5698E+03  0.1627E+04
     -1.684  0.5860E+03  0.1690E+04
     -1.576  0.5268E+03  0.1747E+04
     -1.469  0.6396E+03  0.1815E+04
     -1.362  0.8170E+03  0.1903E+04
     -1.254  0.5807E+03  0.1965E+04
     -1.147  0.5606E+03  0.2025E+04
     -1.040  0.7731E+03  0.2108E+04
     -0.932  0.8768E+03  0.2203E+04
     -0.825  0.6470E+03  0.2272E+04
     -0.718  0.7809E+03  0.2356E+04
     -0.610  0.1147E+04  0.2479E+04
     -0.503  0.1023E+04  0.2589E+04
     -0.396  0.5103E+03  0.2643E+04
     -0.289  0.2113E+03  0.2666E+04
     -0.181  0.1181E+03  0.2679E+04
     -0.074  0.1612E+03  0.2696E+04
      0.033  0.1559E+03  0.2713E+04
      0.141  0.3673E+02  0.2717E+04
      0.248  0.6503E+02  0.2724E+04
      0.355  0.1515E+02  0.2725E+04
      0.463  0.1314E+03  0.2739E+04
      0.570  0.8125E+02  0.2748E+04
      0.677  0.1015E+03  0.2759E+04
      0.784  0.6316E+02  0.2766E+04
      0.892  0.1155E+03  0.2778E+04
      0.999  0.1430E+03  0.2794E+04
      1.106  0.4332E+02  0.2798E+04
      1.214  0.2435E+02  0.2801E+04
      1.321  0.1164E+03  0.2813E+04
      1.428  0.6029E+02  0.2820E+04
      1.536  0.4181E+02  0.2824E+04
      1.643  0.1003E+03  0.2835E+04
      1.750  0.9139E+02  0.2845E+04
      1.858  0.7687E+02  0.2853E+04
      1.965  0.1056E+03  0.2864E+04
      2.072  0.5596E+02  0.2870E+04
      2.179  0.7175E+02  0.2878E+04
      2.287  0.9614E+02  0.2888E+04
      2.394  0.1167E+03  0.2901E+04
      2.501  0.4087E+02  0.2905E+04
      2.609  0.5925E+02  0.2912E+04
      2.716  0.5055E+02  0.2917E+04
      2.823  0.6646E+01  0.2918E+04
      2.931  0.4753E+02  0.2923E+04
      3.038  0.1074E+03  0.2934E+04
      3.145  0.2082E+03  0.2957E+04
      3.252  0.7680E+02  0.2965E+04
      3.360  0.2547E+02  0.2968E+04
      3.467  0.3944E+02  0.2972E+04
      3.574  0.1037E+03  0.2983E+04
      3.682  0.1648E+02  0.2985E+04
      3.789  0.8940E+02  0.2994E+04
      3.896  0.1512E+02  0.2996E+04
      4.004  0.2474E+02  0.2999E+04
      4.111  0.2664E+02  0.3002E+04
      4.218  0.7744E+02  0.3010E+04
      4.326  0.2806E+02  0.3013E+04
      4.433  0.8560E+02  0.3022E+04
      4.540  0.7300E+02  0.3030E+04
      4.647  0.3703E+02  0.3034E+04
      4.755  0.1956E+02  0.3036E+04
      4.862  0.2325E+00  0.3036E+04
      4.969  0.2438E-05  0.3036E+04
      5.077  0.4139E-14  0.3036E+04
      5.184  0.0000E+00  0.3036E+04
      5.291  0.0000E+00  0.3036E+04
      5.399  0.0000E+00  0.3036E+04
      5.506  0.0000E+00  0.3036E+04
      5.613  0.0000E+00  0.3036E+04
      5.720  0.0000E+00  0.3036E+04
      5.828  0.0000E+00  0.3036E+04
      5.935  0.0000E+00  0.3036E+04
      6.042  0.0000E+00  0.3036E+04
      6.150  0.0000E+00  0.3036E+04
