  254  254    1    1
  0.2268316E+02  0.1514622E-08  0.1514622E-08  0.2900000E-08  0.5000000E-15
  1.000000000000000E-004
  CAR 
 NiAl                                    
   2530      4   1518
 
  0.0000000E+00  0.0000000E+00  0.0000000E+00  0.2500000E+00
    1      -24.577932   1.000000
    2       -9.616334   1.000000
    3       -9.055399   1.000000
    4       -8.530829   1.000000
    5       -8.169450   1.000000
    6       -8.148324   1.000000
    7       -8.148016   1.000000
    8       -8.147957   1.000000
    9       -8.147805   1.000000
   10       -8.147683   1.000000
   11       -8.024247   1.000000
   12       -7.719723   1.000000
   13       -7.688708   1.000000
   14       -7.642198   1.000000
   15       -7.642136   1.000000
   16       -7.642031   1.000000
   17       -7.641687   1.000000
   18       -7.634102   1.000000
   19       -7.610050   1.000000
   20       -6.856748   1.000000
   21       -6.856697   1.000000
   22       -6.856565   1.000000
   23       -6.856126   1.000000
   24       -6.855394   1.000000
   25       -6.845401   1.000000
   26       -6.673787   1.000000
   27       -6.512520   1.000000
   28       -6.512401   1.000000
   29       -6.512369   1.000000
   30       -6.512224   1.000000
   31       -6.512170   1.000000
   32       -6.511978   1.000000
   33       -6.208153   1.000000
   34       -6.092142   1.000000
   35       -6.092110   1.000000
   36       -6.091879   1.000000
   37       -6.091819   1.000000
   38       -6.091594   1.000000
   39       -6.084723   1.000000
   40       -5.891321   1.000000
   41       -5.891280   1.000000
   42       -5.891250   1.000000
   43       -5.891228   1.000000
   44       -5.891206   1.000000
   45       -5.891165   1.000000
   46       -5.891009   1.000000
   47       -5.890894   1.000000
   48       -5.890805   1.000000
   49       -5.890468   1.000000
   50       -5.890272   1.000000
   51       -5.839958   1.000000
   52       -5.649726   1.000000
   53       -5.559709   1.000000
   54       -5.559680   1.000000
   55       -5.559658   1.000000
   56       -5.559614   1.000000
   57       -5.559460   1.000000
   58       -5.558237   1.000000
   59       -5.465134   1.000000
   60       -5.465042   1.000000
   61       -5.464855   1.000000
   62       -5.464816   1.000000
   63       -5.464454   1.000000
   64       -5.457828   1.000000
   65       -5.112122   1.000000
   66       -5.112084   1.000000
   67       -5.112063   1.000000
   68       -5.112027   1.000000
   69       -5.111784   1.000000
   70       -5.110590   1.000000
   71       -5.025413   1.000000
   72       -4.955023   1.000000
   73       -4.954917   1.000000
   74       -4.954851   1.000000
   75       -4.954818   1.000000
   76       -4.954750   1.000000
   77       -4.929066   1.000000
   78       -4.855108   1.000000
   79       -4.782396   1.000000
   80       -4.782379   1.000000
   81       -4.782324   1.000000
   82       -4.743169   1.000000
   83       -4.743008   1.000000
   84       -4.742963   1.000000
   85       -4.742862   1.000000
   86       -4.742582   1.000000
   87       -4.736158   1.000000
   88       -4.659584   1.000000
   89       -4.659473   1.000000
   90       -4.659414   1.000000
   91       -4.659370   1.000000
   92       -4.659186   1.000000
   93       -4.657254   1.000000
   94       -4.641485   1.000000
   95       -4.641433   1.000000
   96       -4.641320   1.000000
   97       -4.548592   1.000000
   98       -4.548572   1.000000
   99       -4.548546   1.000000
  100       -4.548517   1.000000
  101       -4.548483   1.000000
  102       -4.548420   1.000000
  103       -4.548413   1.000000
  104       -4.548398   1.000000
  105       -4.548373   1.000000
  106       -4.548332   1.000000
  107       -4.548289   1.000000
  108       -4.548246   1.000000
  109       -4.506495   1.000000
  110       -4.506392   1.000000
  111       -4.506296   1.000000
  112       -4.436120   1.000000
  113       -4.436064   1.000000
  114       -4.435973   1.000000
  115       -4.401311   1.000000
  116       -4.401122   1.000000
  117       -4.401071   1.000000
  118       -4.401017   1.000000
  119       -4.400917   1.000000
  120       -4.387391   1.000000
  121       -4.345066   1.000000
  122       -4.344991   1.000000
  123       -4.344908   1.000000
  124       -4.344895   1.000000
  125       -4.344866   1.000000
  126       -4.344852   1.000000
  127       -4.344832   1.000000
  128       -4.344813   1.000000
  129       -4.344755   1.000000
  130       -4.344723   1.000000
  131       -4.344664   1.000000
  132       -4.344621   1.000000
  133       -4.334268   1.000000
  134       -4.334225   1.000000
  135       -4.334163   1.000000
  136       -4.334143   1.000000
  137       -4.334109   1.000000
  138       -4.334074   1.000000
  139       -4.334011   1.000000
  140       -4.333990   1.000000
  141       -4.333966   1.000000
  142       -4.333924   1.000000
  143       -4.333864   1.000000
  144       -4.333788   1.000000
  145       -4.287993   1.000000
  146       -4.287914   1.000000
  147       -4.287842   1.000000
  148       -4.287728   1.000000
  149       -4.287698   1.000000
  150       -4.282281   1.000000
  151       -4.252159   1.000000
  152       -4.251847   1.000000
  153       -4.251823   1.000000
  154       -4.251792   1.000000
  155       -4.251630   1.000000
  156       -4.249096   1.000000
  157       -4.230931   1.000000
  158       -4.230897   1.000000
  159       -4.230675   1.000000
  160       -4.193052   1.000000
  161       -4.192988   1.000000
  162       -4.192950   1.000000
  163       -4.192942   1.000000
  164       -4.192890   1.000000
  165       -4.192840   1.000000
  166       -4.192824   1.000000
  167       -4.192806   1.000000
  168       -4.192773   1.000000
  169       -4.192706   1.000000
  170       -4.192643   1.000000
  171       -4.192631   1.000000
  172       -4.130376   1.000000
  173       -4.130332   1.000000
  174       -4.130169   1.000000
  175       -4.101773   1.000000
  176       -4.101736   1.000000
  177       -4.101574   1.000000
  178       -4.101485   1.000000
  179       -4.101445   1.000000
  180       -4.096901   1.000000
  181       -4.023734   1.000000
  182       -4.023099   1.000000
  183       -4.022964   1.000000
  184       -3.995732   1.000000
  185       -3.995295   1.000000
  186       -3.995208   1.000000
  187       -3.995154   1.000000
  188       -3.995054   1.000000
  189       -3.995013   1.000000
  190       -3.994977   1.000000
  191       -3.994923   1.000000
  192       -3.994890   1.000000
  193       -3.994845   1.000000
  194       -3.994755   1.000000
  195       -3.994748   1.000000
  196       -3.961380   1.000000
  197       -3.961256   1.000000
  198       -3.961117   1.000000
  199       -3.898549   1.000000
  200       -3.897851   1.000000
  201       -3.897728   1.000000
  202       -3.896222   1.000000
  203       -3.896175   1.000000
  204       -3.896124   1.000000
  205       -3.896106   1.000000
  206       -3.895947   1.000000
  207       -3.894478   1.000000
  208       -3.850761   1.000000
  209       -3.850641   1.000000
  210       -3.850573   1.000000
  211       -3.850555   1.000000
  212       -3.850460   1.000000
  213       -3.850446   1.000000
  214       -3.850426   1.000000
  215       -3.850387   1.000000
  216       -3.850375   1.000000
  217       -3.850344   1.000000
  218       -3.850311   1.000000
  219       -3.850099   1.000000
  220       -3.839380   1.000000
  221       -3.839164   1.000000
  222       -3.839105   1.000000
  223       -3.838954   1.000000
  224       -3.838863   1.000000
  225       -3.838404   1.000000
  226       -3.756897   1.000000
  227       -3.756211   1.000000
  228       -3.756115   1.000000
  229       -3.755932   1.000000
  230       -3.755826   1.000000
  231       -3.755789   1.000000
  232       -3.755705   1.000000
  233       -3.755686   1.000000
  234       -3.755638   1.000000
  235       -3.755613   1.000000
  236       -3.755562   1.000000
  237       -3.755255   1.000000
  238       -3.724517   1.000000
  239       -3.724382   1.000000
  240       -3.724357   1.000000
  241       -3.724255   1.000000
  242       -3.724211   1.000000
  243       -3.722550   1.000000
  244       -3.708619   1.000000
  245       -3.708530   1.000000
  246       -3.708248   1.000000
  247       -3.708169   1.000000
  248       -3.704720   1.000000
  249       -3.704648   1.000000
  250       -3.704511   1.000000
  251       -3.704505   1.000000
  252       -3.704464   1.000000
  253       -3.703670   1.000000
  254       -3.698893   1.000000
  255       -3.698817   1.000000
  256       -3.658929   1.000000
  257       -3.658737   1.000000
  258       -3.658528   1.000000
  259       -3.658502   1.000000
  260       -3.658442   1.000000
  261       -3.658419   1.000000
  262       -3.658381   1.000000
  263       -3.658333   1.000000
  264       -3.658272   1.000000
  265       -3.658224   1.000000
  266       -3.658205   1.000000
  267       -3.658079   1.000000
  268       -3.648070   1.000000
  269       -3.648048   1.000000
  270       -3.647865   1.000000
  271       -3.599801   1.000000
  272       -3.599460   1.000000
  273       -3.599377   1.000000
  274       -3.599217   1.000000
  275       -3.598982   1.000000
  276       -3.598674   1.000000
  277       -3.592228   1.000000
  278       -3.592181   1.000000
  279       -3.592021   1.000000
  280       -3.591907   1.000000
  281       -3.572574   1.000000
  282       -3.572570   1.000000
  283       -3.556652   1.000000
  284       -3.556579   1.000000
  285       -3.556506   1.000000
  286       -3.556430   1.000000
  287       -3.556329   1.000000
  288       -3.555390   1.000000
  289       -3.545301   1.000000
  290       -3.545257   1.000000
  291       -3.545112   1.000000
  292       -3.545004   1.000000
  293       -3.540627   1.000000
  294       -3.540607   1.000000
  295       -3.474856   1.000000
  296       -3.474553   1.000000
  297       -3.474055   1.000000
  298       -3.474018   1.000000
  299       -3.469611   1.000000
  300       -3.469351   1.000000
  301       -3.469209   1.000000
  302       -3.468965   1.000000
  303       -3.468947   1.000000
  304       -3.468837   1.000000
  305       -3.468804   1.000000
  306       -3.468776   1.000000
  307       -3.468710   1.000000
  308       -3.468632   1.000000
  309       -3.468577   1.000000
  310       -3.468267   1.000000
  311       -3.422397   1.000000
  312       -3.422382   1.000000
  313       -3.422318   1.000000
  314       -3.422272   1.000000
  315       -3.422207   1.000000
  316       -3.422099   1.000000
  317       -3.386879   1.000000
  318       -3.386795   1.000000
  319       -3.386711   1.000000
  320       -3.386615   1.000000
  321       -3.386547   1.000000
  322       -3.386474   1.000000
  323       -3.384913   1.000000
  324       -3.384163   1.000000
  325       -3.383927   1.000000
  326       -3.383065   1.000000
  327       -3.382981   1.000000
  328       -3.382849   1.000000
  329       -3.382835   1.000000
  330       -3.382801   1.000000
  331       -3.382755   1.000000
  332       -3.382688   1.000000
  333       -3.382672   1.000000
  334       -3.382531   1.000000
  335       -3.367246   1.000000
  336       -3.367042   1.000000
  337       -3.366891   1.000000
  338       -3.366604   1.000000
  339       -3.366402   1.000000
  340       -3.365273   1.000000
  341       -3.272143   1.000000
  342       -3.272132   1.000000
  343       -3.271359   1.000000
  344       -3.246985   1.000000
  345       -3.246664   1.000000
  346       -3.246515   1.000000
  347       -3.246410   1.000000
  348       -3.246317   1.000000
  349       -3.246262   1.000000
  350       -3.206987   1.000000
  351       -3.206966   1.000000
  352       -3.195174   1.000000
  353       -3.193992   1.000000
  354       -3.193826   1.000000
  355       -3.193278   1.000000
  356       -3.192959   1.000000
  357       -3.192926   1.000000
  358       -3.192873   1.000000
  359       -3.192860   1.000000
  360       -3.192784   1.000000
  361       -3.192751   1.000000
  362       -3.192586   1.000000
  363       -3.192019   1.000000
  364       -3.166458   1.000000
  365       -3.166437   1.000000
  366       -3.128968   1.000000
  367       -3.128918   1.000000
  368       -3.128696   1.000000
  369       -3.128578   1.000000
  370       -3.128318   1.000000
  371       -3.126876   1.000000
  372       -3.123159   1.000000
  373       -3.123137   1.000000
  374       -3.123026   1.000000
  375       -3.122979   1.000000
  376       -3.122904   1.000000
  377       -3.122313   1.000000
  378       -3.119511   1.000000
  379       -3.119203   1.000000
  380       -3.119132   1.000000
  381       -3.119074   1.000000
  382       -3.118982   1.000000
  383       -3.118930   1.000000
  384       -3.053412   1.000000
  385       -3.053288   1.000000
  386       -3.052520   1.000000
  387       -3.052478   1.000000
  388       -3.052412   1.000000
  389       -3.052385   1.000000
  390       -3.052329   1.000000
  391       -3.052300   1.000000
  392       -3.052246   1.000000
  393       -3.052155   1.000000
  394       -3.052118   1.000000
  395       -3.051524   1.000000
  396       -3.015823   1.000000
  397       -3.015487   1.000000
  398       -3.015444   1.000000
  399       -3.015422   1.000000
  400       -3.015324   1.000000
  401       -3.015274   1.000000
  402       -2.943699   1.000000
  403       -2.943659   1.000000
  404       -2.943521   1.000000
  405       -2.943463   1.000000
  406       -2.943447   1.000000
  407       -2.943422   1.000000
  408       -2.932733   1.000000
  409       -2.932441   1.000000
  410       -2.932068   1.000000
  411       -2.931955   1.000000
  412       -2.931884   1.000000
  413       -2.927972   1.000000
  414       -2.916090   1.000000
  415       -2.916012   1.000000
  416       -2.915920   1.000000
  417       -2.915860   1.000000
  418       -2.915836   1.000000
  419       -2.915402   1.000000
  420       -2.894089   1.000000
  421       -2.893780   1.000000
  422       -2.893351   1.000000
  423       -2.893141   1.000000
  424       -2.893101   1.000000
  425       -2.890868   1.000000
  426       -2.872199   1.000000
  427       -2.872126   1.000000
  428       -2.871524   1.000000
  429       -2.871479   1.000000
  430       -2.871420   1.000000
  431       -2.871375   1.000000
  432       -2.871350   1.000000
  433       -2.871297   1.000000
  434       -2.871252   1.000000
  435       -2.871176   1.000000
  436       -2.871041   1.000000
  437       -2.871023   1.000000
  438       -2.869052   1.000000
  439       -2.869029   1.000000
  440       -2.868586   1.000000
  441       -2.868411   1.000000
  442       -2.868336   1.000000
  443       -2.866266   1.000000
  444       -2.808399   1.000000
  445       -2.808281   1.000000
  446       -2.807501   1.000000
  447       -2.805339   1.000000
  448       -2.804904   1.000000
  449       -2.804828   1.000000
  450       -2.804681   1.000000
  451       -2.804639   1.000000
  452       -2.803697   1.000000
  453       -2.798808   1.000000
  454       -2.798718   1.000000
  455       -2.798672   1.000000
  456       -2.798662   1.000000
  457       -2.798599   1.000000
  458       -2.798563   1.000000
  459       -2.798372   1.000000
  460       -2.798314   1.000000
  461       -2.798232   1.000000
  462       -2.798199   1.000000
  463       -2.798138   1.000000
  464       -2.797913   1.000000
  465       -2.746962   1.000000
  466       -2.746885   1.000000
  467       -2.746795   1.000000
  468       -2.746721   1.000000
  469       -2.714593   1.000000
  470       -2.714211   1.000000
  471       -2.714101   1.000000
  472       -2.714027   1.000000
  473       -2.713942   1.000000
  474       -2.713902   1.000000
  475       -2.711379   1.000000
  476       -2.711337   1.000000
  477       -2.711296   1.000000
  478       -2.711066   1.000000
  479       -2.710904   1.000000
  480       -2.709949   1.000000
  481       -2.706561   1.000000
  482       -2.706369   1.000000
  483       -2.706138   1.000000
  484       -2.705873   1.000000
  485       -2.705696   1.000000
  486       -2.705557   1.000000
  487       -2.691606   1.000000
  488       -2.691465   1.000000
  489       -2.691117   1.000000
  490       -2.690803   1.000000
  491       -2.690732   1.000000
  492       -2.690675   1.000000
  493       -2.690629   1.000000
  494       -2.690615   1.000000
  495       -2.690575   1.000000
  496       -2.690529   1.000000
  497       -2.690494   1.000000
  498       -2.690389   1.000000
  499       -2.684227   1.000000
  500       -2.684198   1.000000
  501       -2.654729   1.000000
  502       -2.654714   1.000000
  503       -2.654592   1.000000
  504       -2.654553   1.000000
  505       -2.654450   1.000000
  506       -2.651145   1.000000
  507       -2.620833   1.000000
  508       -2.620802   1.000000
  509       -2.620559   1.000000
  510       -2.620519   1.000000
  511       -2.620435   1.000000
  512       -2.620073   1.000000
  513       -2.616475   1.000000
  514       -2.587083   1.000000
  515       -2.586857   1.000000
  516       -2.586473   1.000000
  517       -2.586464   1.000000
  518       -2.582677   1.000000
  519       -2.581934   1.000000
  520       -2.580921   1.000000
  521       -2.580398   1.000000
  522       -2.580298   1.000000
  523       -2.578723   1.000000
  524       -2.575115   1.000000
  525       -2.530641   1.000000
  526       -2.529931   1.000000
  527       -2.529199   1.000000
  528       -2.529044   1.000000
  529       -2.528919   1.000000
  530       -2.528856   1.000000
  531       -2.528814   1.000000
  532       -2.528810   1.000000
  533       -2.528704   1.000000
  534       -2.528646   1.000000
  535       -2.528608   1.000000
  536       -2.528482   1.000000
  537       -2.519773   1.000000
  538       -2.518700   1.000000
  539       -2.518239   1.000000
  540       -2.517338   1.000000
  541       -2.517182   1.000000
  542       -2.516332   1.000000
  543       -2.516281   1.000000
  544       -2.516164   1.000000
  545       -2.512019   1.000000
  546       -2.491378   1.000000
  547       -2.491300   1.000000
  548       -2.491221   1.000000
  549       -2.480950   1.000000
  550       -2.480899   1.000000
  551       -2.480709   1.000000
  552       -2.480661   1.000000
  553       -2.480521   1.000000
  554       -2.476415   1.000000
  555       -2.463821   1.000000
  556       -2.463434   1.000000
  557       -2.462769   1.000000
  558       -2.462490   1.000000
  559       -2.462431   1.000000
  560       -2.454646   1.000000
  561       -2.451975   1.000000
  562       -2.451903   1.000000
  563       -2.451841   1.000000
  564       -2.451685   1.000000
  565       -2.451603   1.000000
  566       -2.451552   1.000000
  567       -2.451503   1.000000
  568       -2.451398   1.000000
  569       -2.451363   1.000000
  570       -2.451308   1.000000
  571       -2.451208   1.000000
  572       -2.450512   1.000000
  573       -2.447595   1.000000
  574       -2.447373   1.000000
  575       -2.426949   1.000000
  576       -2.426813   1.000000
  577       -2.406326   1.000000
  578       -2.406191   1.000000
  579       -2.405842   1.000000
  580       -2.405747   1.000000
  581       -2.405622   1.000000
  582       -2.405567   1.000000
  583       -2.405260   1.000000
  584       -2.405078   1.000000
  585       -2.404989   1.000000
  586       -2.404885   1.000000
  587       -2.404820   1.000000
  588       -2.402210   1.000000
  589       -2.380670   1.000000
  590       -2.380509   1.000000
  591       -2.380302   1.000000
  592       -2.380271   1.000000
  593       -2.380213   1.000000
  594       -2.378895   1.000000
  595       -2.374366   1.000000
  596       -2.362874   1.000000
  597       -2.362814   1.000000
  598       -2.362549   1.000000
  599       -2.361104   1.000000
  600       -2.361020   1.000000
  601       -2.360994   1.000000
  602       -2.360887   1.000000
  603       -2.360817   1.000000
  604       -2.360654   1.000000
  605       -2.356699   1.000000
  606       -2.356598   1.000000
  607       -2.356543   1.000000
  608       -2.356385   1.000000
  609       -2.356350   1.000000
  610       -2.356261   1.000000
  611       -2.350804   1.000000
  612       -2.350584   1.000000
  613       -2.293237   1.000000
  614       -2.292877   1.000000
  615       -2.292852   1.000000
  616       -2.291724   1.000000
  617       -2.291650   1.000000
  618       -2.291572   1.000000
  619       -2.290503   1.000000
  620       -2.284885   1.000000
  621       -2.284728   1.000000
  622       -2.283948   1.000000
  623       -2.283928   1.000000
  624       -2.283553   1.000000
  625       -2.259139   1.000000
  626       -2.259085   1.000000
  627       -2.258918   1.000000
  628       -2.258837   1.000000
  629       -2.258792   1.000000
  630       -2.258616   1.000000
  631       -2.257433   1.000000
  632       -2.257268   1.000000
  633       -2.257215   1.000000
  634       -2.257093   1.000000
  635       -2.257040   1.000000
  636       -2.256948   1.000000
  637       -2.237593   1.000000
  638       -2.237269   1.000000
  639       -2.237077   1.000000
  640       -2.233630   1.000000
  641       -2.233476   1.000000
  642       -2.232633   1.000000
  643       -2.224076   1.000000
  644       -2.223858   1.000000
  645       -2.205736   1.000000
  646       -2.205072   1.000000
  647       -2.203650   1.000000
  648       -2.203106   1.000000
  649       -2.202851   1.000000
  650       -2.202656   1.000000
  651       -2.202577   1.000000
  652       -2.202512   1.000000
  653       -2.202442   1.000000
  654       -2.202359   1.000000
  655       -2.202320   1.000000
  656       -2.202139   1.000000
  657       -2.192522   1.000000
  658       -2.192341   1.000000
  659       -2.192125   1.000000
  660       -2.191769   1.000000
  661       -2.191301   1.000000
  662       -2.191084   1.000000
  663       -2.190101   1.000000
  664       -2.189526   1.000000
  665       -2.189453   1.000000
  666       -2.189095   1.000000
  667       -2.189051   1.000000
  668       -2.188994   1.000000
  669       -2.187285   1.000000
  670       -2.187071   1.000000
  671       -2.183511   1.000000
  672       -2.183444   1.000000
  673       -2.149458   1.000000
  674       -2.149290   1.000000
  675       -2.149212   1.000000
  676       -2.149071   1.000000
  677       -2.149027   1.000000
  678       -2.148238   1.000000
  679       -2.139427   1.000000
  680       -2.139099   1.000000
  681       -2.139035   1.000000
  682       -2.138998   1.000000
  683       -2.138818   1.000000
  684       -2.138745   1.000000
  685       -2.123257   1.000000
  686       -2.102212   1.000000
  687       -2.101197   1.000000
  688       -2.096109   1.000000
  689       -2.095616   1.000000
  690       -2.095381   1.000000
  691       -2.095280   1.000000
  692       -2.095212   1.000000
  693       -2.095060   1.000000
  694       -2.095014   1.000000
  695       -2.094907   1.000000
  696       -2.094708   1.000000
  697       -2.093890   1.000000
  698       -2.093729   1.000000
  699       -2.093604   1.000000
  700       -2.086936   1.000000
  701       -2.086767   1.000000
  702       -2.086305   1.000000
  703       -2.086208   1.000000
  704       -2.086129   1.000000
  705       -2.086083   1.000000
  706       -2.085608   1.000000
  707       -2.085521   1.000000
  708       -2.085264   1.000000
  709       -2.085047   1.000000
  710       -2.084481   1.000000
  711       -2.084446   1.000000
  712       -2.084314   1.000000
  713       -2.084264   1.000000
  714       -2.084198   1.000000
  715       -2.084079   1.000000
  716       -2.081652   1.000000
  717       -2.081639   1.000000
  718       -2.065558   1.000000
  719       -2.065494   1.000000
  720       -2.065360   1.000000
  721       -2.065336   1.000000
  722       -2.065305   1.000000
  723       -2.065201   1.000000
  724       -2.013243   1.000000
  725       -2.012626   1.000000
  726       -2.009402   1.000000
  727       -2.008665   1.000000
  728       -2.008523   1.000000
  729       -2.006684   1.000000
  730       -2.006593   1.000000
  731       -2.006171   1.000000
  732       -2.005034   1.000000
  733       -2.004828   1.000000
  734       -2.004703   1.000000
  735       -2.004616   1.000000
  736       -2.004550   1.000000
  737       -2.004502   1.000000
  738       -2.004450   1.000000
  739       -2.004419   1.000000
  740       -2.004373   1.000000
  741       -2.001582   1.000000
  742       -1.969692   1.000000
  743       -1.969610   1.000000
  744       -1.969550   1.000000
  745       -1.969451   1.000000
  746       -1.969395   1.000000
  747       -1.969344   1.000000
  748       -1.963515   1.000000
  749       -1.963432   1.000000
  750       -1.963258   1.000000
  751       -1.963059   1.000000
  752       -1.962998   1.000000
  753       -1.960876   1.000000
  754       -1.915194   1.000000
  755       -1.914307   1.000000
  756       -1.912828   1.000000
  757       -1.912496   1.000000
  758       -1.912407   1.000000
  759       -1.911599   1.000000
  760       -1.909605   1.000000
  761       -1.909050   1.000000
  762       -1.906540   1.000000
  763       -1.906464   1.000000
  764       -1.906175   1.000000
  765       -1.905876   1.000000
  766       -1.905773   1.000000
  767       -1.905747   1.000000
  768       -1.905697   1.000000
  769       -1.905674   1.000000
  770       -1.905580   1.000000
  771       -1.905478   1.000000
  772       -1.905061   1.000000
  773       -1.904872   1.000000
  774       -1.904822   1.000000
  775       -1.904681   1.000000
  776       -1.904627   1.000000
  777       -1.902684   1.000000
  778       -1.875368   1.000000
  779       -1.875002   1.000000
  780       -1.874956   1.000000
  781       -1.867769   1.000000
  782       -1.867563   1.000000
  783       -1.867532   1.000000
  784       -1.867454   1.000000
  785       -1.867327   1.000000
  786       -1.867276   1.000000
  787       -1.847436   1.000000
  788       -1.847332   1.000000
  789       -1.846904   1.000000
  790       -1.846858   1.000000
  791       -1.846697   1.000000
  792       -1.846549   1.000000
  793       -1.823890   1.000000
  794       -1.823468   1.000000
  795       -1.823373   1.000000
  796       -1.823209   1.000000
  797       -1.823117   1.000000
  798       -1.822927   1.000000
  799       -1.819383   1.000000
  800       -1.818158   1.000000
  801       -1.814320   1.000000
  802       -1.813458   1.000000
  803       -1.813151   1.000000
  804       -1.808371   1.000000
  805       -1.791200   1.000000
  806       -1.789302   1.000000
  807       -1.786326   1.000000
  808       -1.786054   1.000000
  809       -1.785671   1.000000
  810       -1.785554   1.000000
  811       -1.785476   1.000000
  812       -1.785319   1.000000
  813       -1.785252   1.000000
  814       -1.785189   1.000000
  815       -1.785166   1.000000
  816       -1.784367   1.000000
  817       -1.750167   1.000000
  818       -1.748485   1.000000
  819       -1.746891   1.000000
  820       -1.746128   1.000000
  821       -1.745131   1.000000
  822       -1.745000   1.000000
  823       -1.744825   1.000000
  824       -1.744739   1.000000
  825       -1.744673   1.000000
  826       -1.744629   1.000000
  827       -1.744505   1.000000
  828       -1.744489   1.000000
  829       -1.739350   1.000000
  830       -1.739173   1.000000
  831       -1.738522   1.000000
  832       -1.738439   1.000000
  833       -1.738275   1.000000
  834       -1.738137   1.000000
  835       -1.736264   1.000000
  836       -1.736196   1.000000
  837       -1.736142   1.000000
  838       -1.736004   1.000000
  839       -1.735973   1.000000
  840       -1.735779   1.000000
  841       -1.730716   1.000000
  842       -1.730637   1.000000
  843       -1.730551   1.000000
  844       -1.730471   1.000000
  845       -1.730434   1.000000
  846       -1.729634   1.000000
  847       -1.716490   1.000000
  848       -1.716427   1.000000
  849       -1.715861   1.000000
  850       -1.715740   1.000000
  851       -1.715615   1.000000
  852       -1.705036   1.000000
  853       -1.702817   1.000000
  854       -1.702806   1.000000
  855       -1.701147   1.000000
  856       -1.677515   1.000000
  857       -1.677046   1.000000
  858       -1.674742   1.000000
  859       -1.674390   1.000000
  860       -1.674057   1.000000
  861       -1.671036   1.000000
  862       -1.659767   1.000000
  863       -1.659580   1.000000
  864       -1.659202   1.000000
  865       -1.657651   1.000000
  866       -1.657576   1.000000
  867       -1.657495   1.000000
  868       -1.657468   1.000000
  869       -1.657313   1.000000
  870       -1.653412   1.000000
  871       -1.610654   1.000000
  872       -1.610632   1.000000
  873       -1.609375   1.000000
  874       -1.609268   1.000000
  875       -1.608921   1.000000
  876       -1.608552   1.000000
  877       -1.608543   1.000000
  878       -1.608398   1.000000
  879       -1.608297   1.000000
  880       -1.608197   1.000000
  881       -1.607969   1.000000
  882       -1.607826   1.000000
  883       -1.594386   1.000000
  884       -1.594283   1.000000
  885       -1.593325   1.000000
  886       -1.593208   1.000000
  887       -1.592989   1.000000
  888       -1.575136   1.000000
  889       -1.560543   1.000000
  890       -1.560463   1.000000
  891       -1.559775   1.000000
  892       -1.559709   1.000000
  893       -1.559563   1.000000
  894       -1.559522   1.000000
  895       -1.539566   1.000000
  896       -1.491250   1.000000
  897       -1.490770   1.000000
  898       -1.490621   1.000000
  899       -1.490528   1.000000
  900       -1.490335   1.000000
  901       -1.490154   1.000000