       N       E                     dE             d eps       ncg     rms          rms(c)
DAV:   1     0.182289871539E+05    0.18229E+05   -0.91717E+05 12216   0.112E+03
DAV:   2    -0.165691884799E+03   -0.18395E+05   -0.17404E+05 12864   0.400E+02
DAV:   3    -0.140780091730E+04   -0.12421E+04   -0.10285E+04 14208   0.103E+02
DAV:   4    -0.157396146072E+04   -0.16616E+03   -0.14732E+03 21756   0.376E+01
DAV:   5    -0.158017151543E+04   -0.62101E+01   -0.58849E+01 20136   0.710E+00    0.146E+02
DAV:   6    -0.184301582634E+04   -0.26284E+03   -0.32034E+03 13572   0.140E+02    0.245E+02
DAV:   7    -0.192557377550E+04   -0.82558E+02   -0.13321E+03 13224   0.149E+02    0.199E+02
DAV:   8    -0.167593807675E+04    0.24964E+03   -0.52366E+02 15384   0.814E+01    0.181E+02
DAV:   9    -0.193202418532E+04   -0.25609E+03   -0.18322E+02 13212   0.110E+02    0.217E+02
DAV:  10    -0.148207733218E+04    0.44995E+03   -0.35621E+02 14676   0.792E+01    0.181E+02
DAV:  11    -0.151002864400E+04   -0.27951E+02   -0.30671E+02 13200   0.733E+01    0.166E+02
DAV:  12    -0.146345387121E+04    0.46575E+02   -0.25260E+02 13008   0.658E+01    0.155E+02
DAV:  13    -0.136624583177E+04    0.97208E+02   -0.11714E+02 12960   0.510E+01    0.117E+02
DAV:  14    -0.134555543130E+04    0.20690E+02   -0.49614E+01 13056   0.323E+01    0.927E+01
DAV:  15    -0.134189467278E+04    0.36608E+01   -0.36982E+01 13008   0.323E+01    0.945E+01
DAV:  16    -0.135617876615E+04   -0.14284E+02   -0.31592E+01 13764   0.297E+01    0.115E+02
DAV:  17    -0.133220763838E+04    0.23971E+02   -0.28778E+01 13128   0.258E+01    0.828E+01
DAV:  18    -0.132252976277E+04    0.96779E+01   -0.15812E+01 13236   0.196E+01    0.673E+01
DAV:  19    -0.132076556772E+04    0.17642E+01   -0.11249E+01 13176   0.163E+01    0.697E+01
DAV:  20    -0.131852071839E+04    0.22448E+01   -0.79932E+00 13104   0.130E+01    0.626E+01
DAV:  21    -0.131462989463E+04    0.38908E+01   -0.57547E+00 13080   0.110E+01    0.553E+01
DAV:  22    -0.131119787000E+04    0.34320E+01   -0.42858E+00 12984   0.915E+00    0.438E+01
DAV:  23    -0.130920280125E+04    0.19951E+01   -0.19363E+00 13128   0.571E+00    0.365E+01
DAV:  24    -0.130854762973E+04    0.65517E+00   -0.19899E+00 13200   0.551E+00    0.340E+01
DAV:  25    -0.130803506643E+04    0.51256E+00   -0.21240E+00 13272   0.644E+00    0.309E+01
DAV:  26    -0.130819431351E+04   -0.15925E+00   -0.21462E+00 13272   0.661E+00    0.354E+01
DAV:  27    -0.130709032248E+04    0.11040E+01   -0.16211E+00 13272   0.538E+00    0.308E+01
DAV:  28    -0.130654090568E+04    0.54942E+00   -0.15827E+00 13272   0.564E+00    0.248E+01
DAV:  29    -0.130715808471E+04   -0.61718E+00   -0.18381E+00 13260   0.582E+00    0.287E+01
DAV:  30    -0.130787911602E+04   -0.72103E+00   -0.15544E+00 13272   0.547E+00    0.354E+01
DAV:  31    -0.130935482259E+04   -0.14757E+01   -0.16828E+00 13296   0.577E+00    0.440E+01
DAV:  32    -0.130834968354E+04    0.10051E+01   -0.18759E+00 13272   0.571E+00    0.397E+01
DAV:  33    -0.130611284451E+04    0.22368E+01   -0.14237E+00 13272   0.497E+00    0.266E+01
DAV:  34    -0.130530699523E+04    0.80585E+00   -0.62298E-01 13272   0.326E+00    0.194E+01
DAV:  35    -0.130533502186E+04   -0.28027E-01   -0.53505E-01 13260   0.296E+00    0.195E+01
DAV:  36    -0.130524187872E+04    0.93143E-01   -0.61947E-01 13272   0.314E+00    0.172E+01
DAV:  37    -0.130499577780E+04    0.24610E+00   -0.54144E-01 13272   0.301E+00    0.132E+01
DAV:  38    -0.130485561557E+04    0.14016E+00   -0.30072E-01 13272   0.232E+00    0.111E+01
DAV:  39    -0.130483172020E+04    0.23895E-01   -0.24583E-01 13272   0.211E+00    0.109E+01
DAV:  40    -0.130480269367E+04    0.29027E-01   -0.26605E-01 13272   0.215E+00    0.113E+01
DAV:  41    -0.130462021477E+04    0.18248E+00   -0.17510E-01 13272   0.177E+00    0.781E+00
DAV:  42    -0.130457234792E+04    0.47867E-01   -0.59478E-02 13224   0.915E-01    0.683E+00
DAV:  43    -0.130457683529E+04   -0.44874E-02   -0.49638E-02 13206   0.843E-01    0.698E+00
DAV:  44    -0.130453256785E+04    0.44267E-01   -0.45335E-02 13224   0.795E-01    0.537E+00
DAV:  45    -0.130452666708E+04    0.59008E-02   -0.30234E-02 13248   0.734E-01    0.492E+00
DAV:  46    -0.130453899401E+04   -0.12327E-01   -0.52583E-02 13332   0.103E+00    0.470E+00
DAV:  47    -0.130448960017E+04    0.49394E-01   -0.38365E-02 13272   0.900E-01    0.270E+00
DAV:  48    -0.130448457750E+04    0.50227E-02   -0.15178E-02 13320   0.457E-01    0.242E+00
DAV:  49    -0.130449018772E+04   -0.56102E-02   -0.15093E-02 13200   0.453E-01    0.272E+00
DAV:  50    -0.130448627045E+04    0.39173E-02   -0.18048E-02 13152   0.508E-01    0.212E+00
DAV:  51    -0.130448694911E+04   -0.67866E-03   -0.15961E-02 13320   0.556E-01    0.180E+00
DAV:  52    -0.130448726700E+04   -0.31789E-03   -0.10751E-02 13260   0.451E-01    0.186E+00
DAV:  53    -0.130448808988E+04   -0.82288E-03   -0.96440E-03 13128   0.432E-01    0.204E+00
DAV:  54    -0.130448639599E+04    0.16939E-02   -0.49629E-03 13128   0.306E-01    0.182E+00
DAV:  55    -0.130448499563E+04    0.14004E-02   -0.41907E-03 13272   0.264E-01    0.137E+00
DAV:  56    -0.130448288432E+04    0.21113E-02   -0.42408E-03 13176   0.278E-01    0.758E-01
DAV:  57    -0.130448215267E+04    0.73165E-03   -0.20063E-03 13200   0.173E-01    0.554E-01
DAV:  58    -0.130448319934E+04   -0.10467E-02   -0.13255E-03 13176   0.142E-01    0.624E-01
DAV:  59    -0.130448320706E+04   -0.77214E-05   -0.11303E-03 13152   0.136E-01    0.317E-01
DAV:  60    -0.130448366173E+04   -0.45467E-03   -0.63612E-04 13176   0.106E-01
   1 F= -.13044837E+04 E0= -.13037875E+04  d E =-.139230E+01
