 254 254   0   0
  0.3019211E+02  0.1718057E-08  0.1718057E-08  0.3000000E-08  0.5000000E-15
  1.000000000000000E-004
  CAR 
 NiAl                                    
      5.40348465    -21.61659218  301      1.81406509      1.00000000
    -21.617  0.0000E+00  0.0000E+00
    -21.527  0.0000E+00  0.0000E+00
    -21.436  0.0000E+00  0.0000E+00
    -21.346  0.0000E+00  0.0000E+00
    -21.256  0.0000E+00  0.0000E+00
    -21.166  0.0000E+00  0.0000E+00
    -21.076  0.0000E+00  0.0000E+00
    -20.986  0.0000E+00  0.0000E+00
    -20.896  0.0000E+00  0.0000E+00
    -20.806  0.0000E+00  0.0000E+00
    -20.716  0.0000E+00  0.0000E+00
    -20.626  0.2060E-09  0.1856E-10
    -20.536  0.3390E-03  0.3053E-04
    -20.446  0.1163E+01  0.1048E+00
    -20.356  0.1710E+02  0.1645E+01
    -20.266  0.3933E+01  0.1999E+01
    -20.176  0.5716E-02  0.2000E+01
    -20.085  0.1932E-07  0.2000E+01
    -19.995  0.0000E+00  0.2000E+01
    -19.905  0.0000E+00  0.2000E+01
    -19.815  0.0000E+00  0.2000E+01
    -19.725  0.0000E+00  0.2000E+01
    -19.635  0.0000E+00  0.2000E+01
    -19.545  0.0000E+00  0.2000E+01
    -19.455  0.0000E+00  0.2000E+01
    -19.365  0.0000E+00  0.2000E+01
    -19.275  0.0000E+00  0.2000E+01
    -19.185  0.0000E+00  0.2000E+01
    -19.095  0.0000E+00  0.2000E+01
    -19.005  0.0000E+00  0.2000E+01
    -18.915  0.0000E+00  0.2000E+01
    -18.825  0.0000E+00  0.2000E+01
    -18.734  0.0000E+00  0.2000E+01
    -18.644  0.0000E+00  0.2000E+01
    -18.554  0.0000E+00  0.2000E+01
    -18.464  0.0000E+00  0.2000E+01
    -18.374  0.0000E+00  0.2000E+01
    -18.284  0.0000E+00  0.2000E+01
    -18.194  0.0000E+00  0.2000E+01
    -18.104  0.0000E+00  0.2000E+01
    -18.014  0.0000E+00  0.2000E+01
    -17.924  0.0000E+00  0.2000E+01
    -17.834  0.0000E+00  0.2000E+01
    -17.744  0.0000E+00  0.2000E+01
    -17.654  0.0000E+00  0.2000E+01
    -17.564  0.0000E+00  0.2000E+01
    -17.474  0.0000E+00  0.2000E+01
    -17.383  0.0000E+00  0.2000E+01
    -17.293  0.0000E+00  0.2000E+01
    -17.203  0.0000E+00  0.2000E+01
    -17.113  0.0000E+00  0.2000E+01
    -17.023  0.0000E+00  0.2000E+01
    -16.933  0.0000E+00  0.2000E+01
    -16.843  0.0000E+00  0.2000E+01
    -16.753  0.0000E+00  0.2000E+01
    -16.663  0.0000E+00  0.2000E+01
    -16.573  0.0000E+00  0.2000E+01
    -16.483  0.0000E+00  0.2000E+01
    -16.393  0.0000E+00  0.2000E+01
    -16.303  0.0000E+00  0.2000E+01
    -16.213  0.0000E+00  0.2000E+01
    -16.123  0.0000E+00  0.2000E+01
    -16.032  0.0000E+00  0.2000E+01
    -15.942  0.0000E+00  0.2000E+01
    -15.852  0.0000E+00  0.2000E+01
    -15.762  0.0000E+00  0.2000E+01
    -15.672  0.0000E+00  0.2000E+01
    -15.582  0.0000E+00  0.2000E+01
    -15.492  0.0000E+00  0.2000E+01
    -15.402  0.0000E+00  0.2000E+01
    -15.312  0.0000E+00  0.2000E+01
    -15.222  0.0000E+00  0.2000E+01
    -15.132  0.0000E+00  0.2000E+01
    -15.042  0.0000E+00  0.2000E+01
    -14.952  0.0000E+00  0.2000E+01
    -14.862  0.0000E+00  0.2000E+01
    -14.772  0.0000E+00  0.2000E+01
    -14.681  0.0000E+00  0.2000E+01
    -14.591  0.0000E+00  0.2000E+01
    -14.501  0.0000E+00  0.2000E+01
    -14.411  0.0000E+00  0.2000E+01
    -14.321  0.0000E+00  0.2000E+01
    -14.231  0.0000E+00  0.2000E+01
    -14.141  0.0000E+00  0.2000E+01
    -14.051  0.0000E+00  0.2000E+01
    -13.961  0.0000E+00  0.2000E+01
    -13.871  0.0000E+00  0.2000E+01
    -13.781  0.0000E+00  0.2000E+01
    -13.691  0.0000E+00  0.2000E+01
    -13.601  0.0000E+00  0.2000E+01
    -13.511  0.0000E+00  0.2000E+01
    -13.421  0.0000E+00  0.2000E+01
    -13.330  0.0000E+00  0.2000E+01
    -13.240  0.0000E+00  0.2000E+01
    -13.150  0.0000E+00  0.2000E+01
    -13.060  0.0000E+00  0.2000E+01
    -12.970  0.0000E+00  0.2000E+01
    -12.880  0.0000E+00  0.2000E+01
    -12.790  0.0000E+00  0.2000E+01
    -12.700  0.0000E+00  0.2000E+01
    -12.610  0.0000E+00  0.2000E+01
    -12.520  0.0000E+00  0.2000E+01
    -12.430  0.0000E+00  0.2000E+01
    -12.340  0.0000E+00  0.2000E+01
    -12.250  0.0000E+00  0.2000E+01
    -12.160  0.0000E+00  0.2000E+01
    -12.069  0.0000E+00  0.2000E+01
    -11.979  0.0000E+00  0.2000E+01
    -11.889  0.0000E+00  0.2000E+01
    -11.799  0.0000E+00  0.2000E+01
    -11.709  0.0000E+00  0.2000E+01
    -11.619  0.0000E+00  0.2000E+01
    -11.529  0.0000E+00  0.2000E+01
    -11.439  0.0000E+00  0.2000E+01
    -11.349  0.0000E+00  0.2000E+01
    -11.259  0.0000E+00  0.2000E+01
    -11.169  0.0000E+00  0.2000E+01
    -11.079  0.0000E+00  0.2000E+01
    -10.989  0.0000E+00  0.2000E+01
    -10.899  0.0000E+00  0.2000E+01
    -10.809  0.0000E+00  0.2000E+01
    -10.718  0.0000E+00  0.2000E+01
    -10.628  0.0000E+00  0.2000E+01
    -10.538  0.0000E+00  0.2000E+01
    -10.448  0.0000E+00  0.2000E+01
    -10.358  0.0000E+00  0.2000E+01
    -10.268  0.0000E+00  0.2000E+01
    -10.178  0.0000E+00  0.2000E+01
    -10.088  0.0000E+00  0.2000E+01
     -9.998  0.0000E+00  0.2000E+01
     -9.908  0.0000E+00  0.2000E+01
     -9.818  0.0000E+00  0.2000E+01
     -9.728  0.0000E+00  0.2000E+01
     -9.638  0.0000E+00  0.2000E+01
     -9.548  0.0000E+00  0.2000E+01
     -9.458  0.0000E+00  0.2000E+01
     -9.367  0.1239E-12  0.2000E+01
     -9.277  0.1597E-05  0.2000E+01
     -9.187  0.3944E-01  0.2004E+01
     -9.097  0.2948E+01  0.2269E+01
     -9.007  0.3170E+01  0.2555E+01
     -8.917  0.2208E+02  0.4543E+01
     -8.827  0.1596E+02  0.5981E+01
     -8.737  0.1950E+02  0.7737E+01
     -8.647  0.7021E+01  0.8369E+01
     -8.557  0.5032E+02  0.1290E+02
     -8.467  0.1811E+02  0.1453E+02
     -8.377  0.2567E+02  0.1684E+02
     -8.287  0.6164E+01  0.1740E+02
     -8.197  0.2638E+02  0.1978E+02
     -8.107  0.1226E+02  0.2088E+02
     -8.016  0.2883E+02  0.2348E+02
     -7.926  0.5699E+02  0.2861E+02
     -7.836  0.4284E+02  0.3247E+02
     -7.746  0.3635E+00  0.3250E+02
     -7.656  0.5215E+01  0.3297E+02
     -7.566  0.9630E+02  0.4164E+02
     -7.476  0.3453E+02  0.4475E+02
     -7.386  0.2660E+02  0.4715E+02
     -7.296  0.9057E+01  0.4797E+02
     -7.206  0.3082E+02  0.5074E+02
     -7.116  0.2897E+02  0.5335E+02
     -7.026  0.4079E+02  0.5702E+02
     -6.936  0.7190E+02  0.6350E+02
     -6.846  0.6135E+02  0.6903E+02
     -6.756  0.4087E+02  0.7271E+02
     -6.665  0.3003E+02  0.7541E+02
     -6.575  0.9721E+02  0.8417E+02
     -6.485  0.3737E+02  0.8753E+02
     -6.395  0.2569E+02  0.8985E+02
     -6.305  0.1809E+01  0.9001E+02
     -6.215  0.3857E+01  0.9036E+02
     -6.125  0.5010E+02  0.9487E+02
     -6.035  0.1114E+03  0.1049E+03
     -5.945  0.8793E+02  0.1128E+03
     -5.855  0.5249E+02  0.1176E+03
     -5.765  0.3162E+02  0.1204E+03
     -5.675  0.4513E+02  0.1245E+03
     -5.585  0.1174E+03  0.1350E+03
     -5.495  0.4313E+02  0.1389E+03
     -5.405  0.2655E+02  0.1413E+03
     -5.314  0.2852E+02  0.1439E+03
     -5.224  0.7097E+02  0.1503E+03
     -5.134  0.4190E+02  0.1541E+03
     -5.044  0.8812E+02  0.1620E+03
     -4.954  0.7905E+02  0.1691E+03
     -4.864  0.3194E+02  0.1720E+03
     -4.774  0.2532E+02  0.1743E+03
     -4.684  0.8794E+02  0.1822E+03
     -4.594  0.1537E+03  0.1960E+03
     -4.504  0.4136E+02  0.1998E+03
     -4.414  0.6109E+02  0.2053E+03
     -4.324  0.2821E+02  0.2078E+03
     -4.234  0.7559E+02  0.2146E+03
     -4.144  0.1256E+03  0.2259E+03
     -4.054  0.1091E+03  0.2357E+03
     -3.963  0.8215E+02  0.2431E+03
     -3.873  0.2254E+02  0.2452E+03
     -3.783  0.8951E+02  0.2532E+03
     -3.693  0.6286E+02  0.2589E+03
     -3.603  0.9233E+02  0.2672E+03
     -3.513  0.4991E+02  0.2717E+03
     -3.423  0.5775E+02  0.2769E+03
     -3.333  0.7017E+01  0.2775E+03
     -3.243  0.3194E+02  0.2804E+03
     -3.153  0.9453E+02  0.2889E+03
     -3.063  0.8319E+02  0.2964E+03
     -2.973  0.1133E+03  0.3066E+03
     -2.883  0.8028E+02  0.3139E+03
     -2.793  0.1563E+03  0.3279E+03
     -2.703  0.1834E+03  0.3445E+03
     -2.612  0.5586E+02  0.3495E+03
     -2.522  0.3312E+00  0.3495E+03
     -2.432  0.1664E+02  0.3510E+03
     -2.342  0.6781E+02  0.3571E+03
     -2.252  0.1326E+03  0.3691E+03
     -2.162  0.8113E+02  0.3764E+03
     -2.072  0.9368E+02  0.3848E+03
     -1.982  0.5173E+02  0.3895E+03
     -1.892  0.6462E+02  0.3953E+03
     -1.802  0.1049E+03  0.4047E+03
     -1.712  0.1643E+03  0.4195E+03
     -1.622  0.3349E+02  0.4225E+03
     -1.532  0.6366E+02  0.4283E+03
     -1.442  0.8281E+02  0.4357E+03
     -1.352  0.6397E+02  0.4415E+03
     -1.261  0.1996E+03  0.4595E+03
     -1.171  0.8535E+02  0.4672E+03
     -1.081  0.1013E+03  0.4763E+03
     -0.991  0.6952E+02  0.4826E+03
     -0.901  0.7224E+02  0.4891E+03
     -0.811  0.1488E+03  0.5025E+03
     -0.721  0.7885E+02  0.5096E+03
     -0.631  0.6509E+02  0.5154E+03
     -0.541  0.3067E+02  0.5182E+03
     -0.451  0.1039E+03  0.5276E+03
     -0.361  0.2227E+03  0.5476E+03
     -0.271  0.6979E+02  0.5539E+03
     -0.181  0.1571E+03  0.5680E+03
     -0.091  0.5202E+02  0.5727E+03
     -0.001  0.3267E+02  0.5757E+03
      0.090  0.9169E+02  0.5839E+03
      0.180  0.8368E+02  0.5915E+03
      0.270  0.9935E+02  0.6004E+03
      0.360  0.7960E+02  0.6076E+03
      0.450  0.7023E+02  0.6139E+03
      0.540  0.1604E+03  0.6284E+03
      0.630  0.7176E+02  0.6348E+03
      0.720  0.6384E+02  0.6406E+03
      0.810  0.3025E+02  0.6433E+03
      0.900  0.6556E+02  0.6492E+03
      0.990  0.1876E+03  0.6661E+03
      1.080  0.2201E+03  0.6859E+03
      1.170  0.1110E+03  0.6959E+03
      1.260  0.7874E+02  0.7030E+03
      1.350  0.6391E+02  0.7088E+03
      1.441  0.8199E+02  0.7161E+03
      1.531  0.9827E+02  0.7250E+03
      1.621  0.1509E+03  0.7386E+03
      1.711  0.1922E+03  0.7559E+03
      1.801  0.1044E+03  0.7653E+03
      1.891  0.2751E+02  0.7678E+03
      1.981  0.1070E+03  0.7774E+03
      2.071  0.1714E+03  0.7929E+03
      2.161  0.7041E+02  0.7992E+03
      2.251  0.8285E+02  0.8067E+03
      2.341  0.5666E+02  0.8118E+03
      2.431  0.1264E+03  0.8231E+03
      2.521  0.1102E+03  0.8331E+03
      2.611  0.1010E+03  0.8422E+03
      2.701  0.1377E+03  0.8546E+03
      2.792  0.6584E+02  0.8605E+03
      2.882  0.7454E+02  0.8672E+03
      2.972  0.2967E+03  0.8939E+03
      3.062  0.2187E+03  0.9136E+03
      3.152  0.6184E+02  0.9192E+03
      3.242  0.6813E+02  0.9253E+03
      3.332  0.1096E+03  0.9352E+03
      3.422  0.1337E+03  0.9473E+03
      3.512  0.1499E+03  0.9608E+03
      3.602  0.7793E+02  0.9678E+03
      3.692  0.9747E+02  0.9766E+03
      3.782  0.9634E+02  0.9852E+03
      3.872  0.6601E+02  0.9912E+03
      3.962  0.1472E+03  0.1004E+04
      4.052  0.1716E+03  0.1020E+04
      4.143  0.1065E+03  0.1029E+04
      4.233  0.2721E+02  0.1032E+04
      4.323  0.7111E+00  0.1032E+04
      4.413  0.1499E-03  0.1032E+04
      4.503  0.7635E-10  0.1032E+04
      4.593  0.0000E+00  0.1032E+04
      4.683  0.0000E+00  0.1032E+04
      4.773  0.0000E+00  0.1032E+04
      4.863  0.0000E+00  0.1032E+04
      4.953  0.0000E+00  0.1032E+04
      5.043  0.0000E+00  0.1032E+04
      5.133  0.0000E+00  0.1032E+04
      5.223  0.0000E+00  0.1032E+04
      5.313  0.0000E+00  0.1032E+04
      5.403  0.0000E+00  0.1032E+04
