       N       E                     dE             d eps       ncg     rms          rms(c)
DAV:   1     0.212831772502E+04    0.21283E+04   -0.18390E+05  3120   0.734E+02
DAV:   2    -0.745141118082E+03   -0.28735E+04   -0.27080E+04  4212   0.192E+02
DAV:   3    -0.954742803327E+03   -0.20960E+03   -0.20141E+03  4440   0.403E+01
DAV:   4    -0.962244834869E+03   -0.75020E+01   -0.73316E+01  4368   0.804E+00
DAV:   5    -0.962658823758E+03   -0.41399E+00   -0.41264E+00  5100   0.199E+00    0.186E+01
DAV:   6    -0.977846693245E+03   -0.15188E+02   -0.18940E+02  4464   0.161E+01    0.186E+01
DAV:   7    -0.937469069464E+03    0.40378E+02   -0.13216E+02  3996   0.151E+01    0.961E+00
DAV:   8    -0.937124397278E+03    0.34467E+00   -0.45289E+01  3804   0.544E+00    0.457E+00
DAV:   9    -0.935088482098E+03    0.20359E+01   -0.51053E+00  3648   0.240E+00    0.115E+00
DAV:  10    -0.935334038483E+03   -0.24556E+00   -0.10105E+00  4092   0.171E+00    0.151E+00
DAV:  11    -0.934970073938E+03    0.36396E+00   -0.29975E-01  4044   0.145E+00    0.612E-01
DAV:  12    -0.934929896378E+03    0.40178E-01   -0.14735E-01  3768   0.427E-01    0.402E-01
DAV:  13    -0.934906502908E+03    0.23393E-01   -0.52844E-02  3984   0.242E-01    0.192E-01
DAV:  14    -0.934906778650E+03   -0.27574E-03   -0.20580E-02  3864   0.154E-01    0.142E-01
DAV:  15    -0.934912752110E+03   -0.59735E-02   -0.69065E-03  3828   0.991E-02    0.110E-01
DAV:  16    -0.934921383881E+03   -0.86318E-02   -0.39614E-03  3504   0.664E-02    0.600E-02
DAV:  17    -0.934927262717E+03   -0.58788E-02   -0.14769E-03  3816   0.382E-02    0.315E-02
DAV:  18    -0.934929238976E+03   -0.19763E-02   -0.30022E-04  3672   0.178E-02    0.199E-02
DAV:  19    -0.934930513274E+03   -0.12743E-02   -0.23760E-04  3480   0.120E-02    0.131E-02
DAV:  20    -0.934931005976E+03   -0.49270E-03   -0.21278E-04  3288   0.860E-03    0.892E-03
DAV:  21    -0.934932473897E+03   -0.14679E-02   -0.94651E-05  3156   0.652E-03    0.626E-03
DAV:  22    -0.934933350978E+03   -0.87708E-03   -0.50700E-05  3156   0.486E-03    0.501E-03
DAV:  23    -0.934934093655E+03   -0.74268E-03   -0.60924E-05  2928   0.425E-03    0.267E-03
DAV:  24    -0.934934357612E+03   -0.26396E-03   -0.18072E-05  2892   0.262E-03    0.140E-03
DAV:  25    -0.934934435385E+03   -0.77773E-04   -0.32777E-06  2508   0.144E-03    0.105E-03
DAV:  26    -0.934934487197E+03   -0.51812E-04   -0.33016E-06  2292   0.113E-03    0.603E-04
DAV:  27    -0.934934490430E+03   -0.32337E-05   -0.20930E-07  2064   0.538E-04
   1 F= -.93493449E+03 E0= -.93490665E+03  d E =-.556779E-01
