 vasp.5.4.4.18Apr17-6-g9f103f2a35 (build May 02 2017 15:33:50) complex          
  
 executed on Intel-16.0.3.210-OMP date 2018.08.08  20:08:36
 running on    6 total cores
 distrk:  each k-point on    6 cores,    1 groups
 distr:  one band on NCORES_PER_BAND=   1 cores,    6 groups


--------------------------------------------------------------------------------------------------------


 INCAR:
 POTCAR:    PAW Al_GW 19Mar2012                   
 POTCAR:    PAW_PBE N 08Apr2002                   

 ----------------------------------------------------------------------------- 
|                                                                             |
|           W    W    AA    RRRRR   N    N  II  N    N   GGGG   !!!           |
|           W    W   A  A   R    R  NN   N  II  NN   N  G    G  !!!           |
|           W    W  A    A  R    R  N N  N  II  N N  N  G       !!!           |
|           W WW W  AAAAAA  RRRRR   N  N N  II  N  N N  G  GGG   !            |
|           WW  WW  A    A  R   R   N   NN  II  N   NN  G    G                |
|           W    W  A    A  R    R  N    N  II  N    N   GGGG   !!!           |
|                                                                             |
|      For optimal performance we recommend to set                            |
|        NCORE= 4 - approx SQRT( number of cores)                             |
|      NCORE specifies how many cores store one orbital (NPAR=cpu/NCORE).     |
|      This setting can  greatly improve the performance of VASP for DFT.     |
|      The default,   NCORE=1            might be grossly inefficient         |
|      on modern multi-core architectures or massively parallel machines.     |
|      Do your own testing !!!!                                               |
|      Unfortunately you need to use the default for GW and RPA calculations. |
|      (for HF NCORE is supported but not extensively tested yet)             |
|                                                                             |
 ----------------------------------------------------------------------------- 

 POTCAR:    PAW Al_GW 19Mar2012                   
   VRHFIN =Al: s2p1                                                             
   LEXCH  = PE                                                                  
   EATOM  =    53.5387 eV,    3.9350 Ry                                         
                                                                                
   TITEL  = PAW Al_GW 19Mar2012                                                 
   LULTRA =        F    use ultrasoft PP ?                                      
   IUNSCR =        1    unscreen: 0-lin 1-nonlin 2-no                           
   RPACOR =    1.500    partial core radius                                     
   POMASS =   26.982; ZVAL   =    3.000    mass and valenz                      
   RCORE  =    2.000    outmost cutoff radius                                   
   RWIGS  =    2.000; RWIGS  =    1.058    wigner-seitz radius (au A)           
   ENMAX  =  240.300; ENMIN  =  180.225 eV                                      
   ICORE  =        3    local potential                                         
   LCOR   =        T    correct aug charges                                     
   LPAW   =        T    paw PP                                                  
   EAUG   =  482.059                                                            
   DEXC   =    0.000                                                            
   RMAX   =    2.051    core radius for proj-oper                               
   RAUG   =    1.300    factor for augmentation sphere                          
   RDEP   =    2.096    radius for radial grids                                 
   RDEPT  =    1.856    core radius for aug-charge                              
                                                                                
   Atomic configuration                                                         
    7 entries                                                                   
     n  l   j            E        occ.                                          
     1  0  0.50     -1511.1048   2.0000                                         
     2  0  0.50      -108.1629   2.0000                                         
     2  1  1.50       -69.6402   6.0000                                         
     3  0  0.50        -7.7528   2.0000                                         
     3  1  1.50        -2.7121   1.0000                                         
     3  2  2.50        -2.7212   0.0000                                         
     4  3  2.50        -2.7212   0.0000                                         
   Description                                                                  
     l       E           TYP  RCUT    TYP  RCUT                                 
     0     -7.7528455     23  1.900                                             
     0     68.0291300     23  1.900                                             
     1     -2.7120682     23  1.900                                             
     1     68.0291300     23  1.900                                             
     2     -1.3605826     23  1.900                                             
     2     81.6349560     23  1.900                                             
     3     74.8320430     23  2.000                                             
  local pseudopotential read in
  partial core-charges read in
  partial kinetic energy density read in
  kinetic energy density of atom read in
  atomic valenz-charges read in
  non local Contribution for L=           0  read in
    real space projection operators read in
  non local Contribution for L=           0  read in
    real space projection operators read in
  non local Contribution for L=           1  read in
    real space projection operators read in
  non local Contribution for L=           1  read in
    real space projection operators read in
  non local Contribution for L=           2  read in
    real space projection operators read in
  non local Contribution for L=           2  read in
    real space projection operators read in
    PAW grid and wavefunctions read in
 
   number of l-projection  operators is LMAX  =           6
   number of lm-projection operators is LMMAX =          18
 
 POTCAR:    PAW_PBE N 08Apr2002                   
   VRHFIN =N: s2p3                                                              
   LEXCH  = PE                                                                  
   EATOM  =   264.5486 eV,   19.4438 Ry                                         
                                                                                
   TITEL  = PAW_PBE N 08Apr2002                                                 
   LULTRA =        F    use ultrasoft PP ?                                      
   IUNSCR =        1    unscreen: 0-lin 1-nonlin 2-no                           
   RPACOR =    1.200    partial core radius                                     
   POMASS =   14.001; ZVAL   =    5.000    mass and valenz                      
   RCORE  =    1.500    outmost cutoff radius                                   
   RWIGS  =    1.400; RWIGS  =    0.741    wigner-seitz radius (au A)           
   ENMAX  =  400.000; ENMIN  =  300.000 eV                                      
   ICORE  =        2    local potential                                         
   LCOR   =        T    correct aug charges                                     
   LPAW   =        T    paw PP                                                  
   EAUG   =  627.112                                                            
   DEXC   =    0.000                                                            
   RMAX   =    1.529    core radius for proj-oper                               
   RAUG   =    1.300    factor for augmentation sphere                          
   RDEP   =    1.514    radius for radial grids                                 
   RDEPT  =    1.338    core radius for aug-charge                              
                                                                                
   Atomic configuration                                                         
    4 entries                                                                   
     n  l   j            E        occ.                                          
     1  0  0.50      -384.7179   2.0000                                         
     2  0  0.50       -18.5828   2.0000                                         
     2  1  0.50        -7.0898   3.0000                                         
     3  2  1.50        -6.8029   0.0000                                         
   Description                                                                  
     l       E           TYP  RCUT    TYP  RCUT                                 
     0    -18.5828119     23  1.200                                             
     0    -13.5018863     23  1.200                                             
     1     -7.0897853     23  1.500                                             
     1      9.5240782     23  1.500                                             
     2     -6.8029130      7  1.500                                             
  local pseudopotential read in
  partial core-charges read in
  partial kinetic energy density read in
  atomic valenz-charges read in
  non local Contribution for L=           0  read in
    real space projection operators read in
  non local Contribution for L=           0  read in
    real space projection operators read in
  non local Contribution for L=           1  read in
    real space projection operators read in
  non local Contribution for L=           1  read in
    real space projection operators read in
    PAW grid and wavefunctions read in
 
   number of l-projection  operators is LMAX  =           4
   number of lm-projection operators is LMMAX =           8
 
 Optimization of the real space projectors (new method)

 maximal supplied QI-value         = 18.90
 optimisation between [QCUT,QGAM] = [  8.69, 17.57] = [ 21.16, 86.49] Ry 
 Optimized for a Real-space Cutoff    1.59 Angstroem

   l    n(q)    QCUT    max X(q) W(low)/X(q) W(high)/X(q)  e(spline) 
   0      8     8.693    11.519    0.12E-03    0.31E-04    0.21E-06
   0      8     8.693     5.834    0.89E-04    0.32E-04    0.16E-06
   1      8     8.693    10.132    0.25E-03    0.39E-03    0.25E-06
   1      8     8.693     3.004    0.16E-03    0.27E-03    0.22E-06
   2      7     8.693     3.169    0.39E-03    0.93E-03    0.44E-06
   2      7     8.693     1.605    0.70E-04    0.91E-04    0.19E-06
 Optimization of the real space projectors (new method)

 maximal supplied QI-value         = 25.13
 optimisation between [QCUT,QGAM] = [  8.80, 17.59] = [ 21.67, 86.68] Ry 
 Optimized for a Real-space Cutoff    2.14 Angstroem

   l    n(q)    QCUT    max X(q) W(low)/X(q) W(high)/X(q)  e(spline) 
   0     11     8.797    79.467    0.70E-04    0.19E-04    0.19E-05
   0     11     8.797    66.151    0.68E-04    0.18E-04    0.19E-05
   1     11     8.797     6.738    0.26E-03    0.11E-02    0.73E-05
   1     11     8.797     5.013    0.25E-03    0.11E-02    0.72E-05
  PAW Al_GW 19Mar2012                   :
 energy of atom  1       EATOM=  -53.5387
 kinetic energy error for atom=    0.0011 (will be added to EATOM!!)
  PAW_PBE N 08Apr2002                   :
 energy of atom  2       EATOM= -264.5486
 kinetic energy error for atom=    0.6882 (will be added to EATOM!!)
 
 
 POSCAR: New structure                           
  positions in cartesian coordinates
  No initial velocities read in
 exchange correlation table for  LEXCH =        8
   RHO(1)=    0.500       N(1)  =     2000
   RHO(2)=  100.500       N(2)  =     4000
 


--------------------------------------------------------------------------------------------------------


 ion  position               nearest neighbor table
   1  0.444  0.444  0.079-
   2  0.444  0.778  0.079-
   3  0.444  0.111  0.079-
   4  0.778  0.444  0.079-
   5  0.778  0.778  0.079-
   6  0.778  0.111  0.079-
   7  0.111  0.444  0.079-
   8  0.111  0.778  0.079-
   9  0.111  0.111  0.079-
  10  0.556  0.556  0.157-
  11  0.556  0.889  0.157-
  12  0.556  0.222  0.157-
  13  0.889  0.556  0.157-
  14  0.889  0.889  0.157-
  15  0.889  0.222  0.157-
  16  0.222  0.556  0.157-
  17  0.222  0.889  0.157-
  18  0.222  0.222  0.157-
  19  0.667  0.667  0.234-
  20  0.667  0.000  0.234-
  21  0.667  0.333  0.234-
  22  0.000  0.667  0.234-
  23  0.000  0.000  0.234-
  24  0.000  0.333  0.234-
  25  0.333  0.667  0.234-
  26  0.333  0.000  0.234-
  27  0.333  0.333  0.234-
  28  0.778  0.778  0.312-
  29  0.778  0.111  0.312-
  30  0.778  0.444  0.312-
  31  0.111  0.778  0.312-
  32  0.111  0.111  0.312-
  33  0.111  0.444  0.312-
  34  0.444  0.778  0.312-
  35  0.444  0.111  0.312-
  36  0.444  0.444  0.312-
  37  0.889  0.889  0.390-
  38  0.889  0.222  0.390-
  39  0.889  0.556  0.390-
  40  0.222  0.889  0.390-
  41  0.222  0.222  0.390-
  42  0.222  0.556  0.390-
  43  0.556  0.889  0.390-
  44  0.556  0.222  0.390-
  45  0.556  0.556  0.390-
  46  0.000  0.000  0.466-
  47  0.000  0.333  0.466-
  48  0.000  0.667  0.466-
  49  0.333  0.000  0.466-
  50  0.333  0.333  0.466-
  51  0.333  0.667  0.466-
  52  0.667  0.000  0.466-
  53  0.667  0.333  0.466-
  54  0.667  0.667  0.466-
  55  0.111  0.111  0.545-
  56  0.111  0.444  0.545-
  57  0.111  0.778  0.545-
  58  0.444  0.111  0.545-
  59  0.444  0.444  0.545-
  60  0.444  0.778  0.545-
  61  0.778  0.111  0.545-
  62  0.778  0.444  0.545-
  63  0.778  0.778  0.545-
  64  0.278  0.278  0.079-
  65  0.278  0.611  0.079-
  66  0.278  0.944  0.079-
  67  0.611  0.278  0.079-
  68  0.611  0.611  0.079-
  69  0.611  0.944  0.079-
  70  0.944  0.278  0.079-
  71  0.944  0.611  0.079-
  72  0.944  0.944  0.079-
  73  0.389  0.389  0.157-
  74  0.389  0.722  0.157-
  75  0.389  0.056  0.157-
  76  0.722  0.389  0.157-
  77  0.722  0.722  0.157-
  78  0.722  0.056  0.157-
  79  0.056  0.389  0.157-
  80  0.056  0.722  0.157-
  81  0.056  0.056  0.157-
  82  0.500  0.500  0.234-
  83  0.500  0.833  0.234-
  84  0.500  0.167  0.234-
  85  0.833  0.500  0.234-
  86  0.833  0.833  0.234-
  87  0.833  0.167  0.234-
  88  0.167  0.500  0.234-
  89  0.167  0.833  0.234-
  90  0.167  0.167  0.234-
  91  0.611  0.611  0.312-
  92  0.611  0.944  0.312-
  93  0.611  0.278  0.312-
  94  0.944  0.611  0.312-
  95  0.944  0.944  0.312-
  96  0.944  0.278  0.312-
  97  0.278  0.611  0.312-
  98  0.278  0.944  0.312-
  99  0.278  0.278  0.312-
 100  0.722  0.722  0.390-
 101  0.722  0.056  0.390-
 102  0.722  0.389  0.390-
 103  0.056  0.722  0.390-
 104  0.056  0.056  0.390-
 105  0.056  0.389  0.390-
 106  0.389  0.722  0.390-
 107  0.389  0.056  0.390-
 108  0.389  0.389  0.390-
 109  0.833  0.833  0.466-
 110  0.833  0.167  0.466-
 111  0.833  0.500  0.466-
 112  0.167  0.833  0.466-
 113  0.167  0.167  0.466-
 114  0.167  0.500  0.466-
 115  0.500  0.833  0.466-
 116  0.500  0.167  0.466-
 117  0.500  0.500  0.466-
 118  0.944  0.944  0.545-
 119  0.944  0.278  0.545-
 120  0.944  0.611  0.545-
 121  0.278  0.944  0.545-
 122  0.278  0.278  0.545-
 123  0.278  0.611  0.545-
 124  0.611  0.944  0.545-
 125  0.611  0.278  0.545-
 126  0.611  0.611  0.545-
 127  0.278  0.444  0.079-
 128  0.278  0.778  0.079-
 129  0.278  0.111  0.079-
 130  0.611  0.444  0.079-
 131  0.611  0.778  0.079-
 132  0.611  0.111  0.079-
 133  0.944  0.444  0.079-
 134  0.944  0.778  0.079-
 135  0.944  0.111  0.079-
 136  0.389  0.556  0.157-
 137  0.389  0.889  0.157-
 138  0.389  0.222  0.157-
 139  0.722  0.556  0.157-
 140  0.722  0.889  0.157-
 141  0.722  0.222  0.157-
 142  0.056  0.556  0.157-
 143  0.056  0.889  0.157-
 144  0.056  0.222  0.157-
 145  0.500  0.667  0.234-
 146  0.500  0.000  0.234-
 147  0.500  0.333  0.234-
 148  0.833  0.667  0.234-
 149  0.833  0.000  0.234-
 150  0.833  0.333  0.234-
 151  0.167  0.667  0.234-
 152  0.167  0.000  0.234-
 153  0.167  0.333  0.234-
 154  0.611  0.778  0.312-
 155  0.611  0.111  0.312-
 156  0.611  0.444  0.312-
 157  0.944  0.778  0.312-
 158  0.944  0.111  0.312-
 159  0.944  0.444  0.312-
 160  0.278  0.778  0.312-
 161  0.278  0.111  0.312-
 162  0.278  0.444  0.312-
 163  0.722  0.889  0.390-
 164  0.722  0.222  0.390-
 165  0.722  0.556  0.390-
 166  0.056  0.889  0.390-
 167  0.056  0.222  0.390-
 168  0.056  0.556  0.390-
 169  0.389  0.889  0.390-
 170  0.389  0.222  0.390-
 171  0.389  0.556  0.390-
 172  0.833  0.000  0.466-
 173  0.833  0.333  0.466-
 174  0.833  0.667  0.466-
 175  0.167  0.000  0.466-
 176  0.167  0.333  0.466-
 177  0.167  0.667  0.466-
 178  0.500  0.000  0.466-
 179  0.500  0.333  0.466-
 180  0.500  0.667  0.466-
 181  0.944  0.111  0.545-
 182  0.944  0.444  0.545-
 183  0.944  0.778  0.545-
 184  0.278  0.111  0.545-
 185  0.278  0.444  0.545-
 186  0.278  0.778  0.545-
 187  0.611  0.111  0.545-
 188  0.611  0.444  0.545-
 189  0.611  0.778  0.545-
 190  0.444  0.278  0.079-
 191  0.444  0.611  0.079-
 192  0.444  0.944  0.079-
 193  0.778  0.278  0.079-
 194  0.778  0.611  0.079-
 195  0.778  0.944  0.079-
 196  0.111  0.278  0.079-
 197  0.111  0.611  0.079-
 198  0.111  0.944  0.079-
 199  0.556  0.389  0.157-
 200  0.556  0.722  0.157-
 201  0.556  0.056  0.157-
 202  0.889  0.389  0.157-
 203  0.889  0.722  0.157-
 204  0.889  0.056  0.157-
 205  0.222  0.389  0.157-
 206  0.222  0.722  0.157-
 207  0.222  0.056  0.157-
 208  0.667  0.500  0.234-
 209  0.667  0.833  0.234-
 210  0.667  0.167  0.234-
 211  1.000  0.500  0.234-
 212  1.000  0.833  0.234-
 213  1.000  0.167  0.234-
 214  0.333  0.500  0.234-
 215  0.333  0.833  0.234-
 216  0.333  0.167  0.234-
 217  0.778  0.611  0.312-
 218  0.778  0.944  0.312-
 219  0.778  0.278  0.312-
 220  0.111  0.611  0.312-
 221  0.111  0.944  0.312-
 222  0.111  0.278  0.312-
 223  0.444  0.611  0.312-
 224  0.444  0.944  0.312-
 225  0.444  0.278  0.312-
 226  0.889  0.722  0.390-
 227  0.889  0.056  0.390-
 228  0.889  0.389  0.390-
 229  0.222  0.722  0.390-
 230  0.222  0.056  0.390-
 231  0.222  0.389  0.390-
 232  0.556  0.722  0.390-
 233  0.556  0.056  0.390-
 234  0.556  0.389  0.390-
 235  1.000  0.833  0.466-
 236  1.000  0.167  0.466-
 237  1.000  0.500  0.466-
 238  0.333  0.833  0.466-
 239  0.333  0.167  0.466-
 240  0.333  0.500  0.466-
 241  0.667  0.833  0.466-
 242  0.667  0.167  0.466-
 243  0.667  0.500  0.466-
 244  0.111  0.944  0.545-
 245  0.111  0.278  0.545-
 246  0.111  0.611  0.545-
 247  0.444  0.944  0.545-
 248  0.444  0.278  0.545-
 249  0.444  0.611  0.545-
 250  0.778  0.944  0.545-
 251  0.778  0.278  0.545-
 252  0.778  0.611  0.545-
 253  0.340  0.487  0.735- 254 1.25
 254  0.382  0.402  0.735- 253 1.25
 
  LATTYP: Found a hexagonal cell.
 ALAT       =    17.1805734625
 C/A-ratio  =     1.7461582447
  
  Lattice vectors:
  
 A1 = (   0.0000000000,  -8.5902867312,  14.8788130701)
 A2 = (   0.0000000000,  17.1805734625,   0.0000000000)
 A3 = ( -30.0000000000,   0.0000000000,   0.0000000000)


Analysis of symmetry for initial positions (statically):
=====================================================================
 Subroutine PRICEL returns:
 Original cell was already a primitive cell.
 

 Routine SETGRP: Setting up the symmetry group for a 
 hexagonal supercell.


 Subroutine GETGRP returns: Found  2 space group operations
 (whereof  1 operations were pure point group operations)
 out of a pool of 24 trial point group operations.


The static configuration has the point symmetry C_1 .
 The point group associated with its full space group is C_1h.


Analysis of symmetry for dynamics (positions and initial velocities):
=====================================================================
 Subroutine PRICEL returns:
 Original cell was already a primitive cell.
 

 Routine SETGRP: Setting up the symmetry group for a 
 hexagonal supercell.


 Subroutine GETGRP returns: Found  2 space group operations
 (whereof  1 operations were pure point group operations)
 out of a pool of 24 trial point group operations.


The dynamic configuration has the point symmetry C_1 .
 The point group associated with its full space group is C_1h.


 Subroutine INISYM returns: Found  2 space group operations
 (whereof  1 operations are pure point group operations),
 and found     1 'primitive' translations

 
 
 KPOINTS: Automatic generation                    

Automatic generation of k-mesh.
Space group operators:
 irot       det(A)        alpha          n_x          n_y          n_z        tau_x        tau_y        tau_z
    1     1.000000     0.000000     1.000000     0.000000     0.000000     0.000000     0.000000     0.000000
    2    -1.000000   180.000000     0.000000     1.000000     0.000000    -0.833333     0.000000     0.000000
 
 Subroutine IBZKPT returns following result:
 ===========================================
 
 Found      3 irreducible k-points:
 
 Following reciprocal coordinates:
            Coordinates               Weight
  0.000000  0.000000  0.000000      1.000000
  0.500000  0.000000  0.000000      2.000000
  0.000000  0.500000  0.000000      1.000000
 
 Following cartesian coordinates:
            Coordinates               Weight
  0.000000  0.000000  0.000000      1.000000
  0.000000 -0.029103  0.016802      2.000000
  0.000000  0.000000 -0.033605      1.000000
 


--------------------------------------------------------------------------------------------------------




 Dimension of arrays:
   k-points           NKPTS =      3   k-points in BZ     NKDIM =      3   number of bands    NBANDS=    516
   number of dos      NEDOS =    301   number of ions     NIONS =    254
   non local maximal  LDIM  =      6   non local SUM 2l+1 LMDIM =     18
   total plane-waves  NPLWV = 819200
   max r-space proj   IRMAX =   4449   max aug-charges    IRDMAX=   4357
   dimension x,y,z NGX =    80 NGY =   80 NGZ =  128
   dimension x,y,z NGXF=   160 NGYF=  160 NGZF=  256
   support grid    NGXF=   160 NGYF=  160 NGZF=  256
   ions per type =             252   2
   NGX,Y,Z   is equivalent  to a cutoff of   7.74,  7.74,  7.09 a.u.
   NGXF,Y,Z  is equivalent  to a cutoff of  15.48, 15.48, 14.19 a.u.

 SYSTEM =  NiAl                                    
 POSCAR =  New structure                           

 Startparameter for this run:
   NWRITE =      2    write-flag & timer
   PREC   = normal    normal or accurate (medium, high low for compatibility)
   ISTART =      0    job   : 0-new  1-cont  2-samecut
   ICHARG =      2    charge: 1-file 2-atom 10-const
   ISPIN  =      1    spin polarized calculation?
   LNONCOLLINEAR =      F non collinear calculations
   LSORBIT =      F    spin-orbit coupling
   INIWAV =      1    electr: 0-lowe 1-rand  2-diag
   LASPH  =      F    aspherical Exc in radial PAW
   METAGGA=      F    non-selfconsistent MetaGGA calc.

 Electronic Relaxation 1
   ENCUT  =  300.0 eV  22.05 Ry    4.70 a.u.  24.26 24.26 42.37*2*pi/ulx,y,z
   ENINI  =  300.0     initial cutoff
   ENAUG  =  627.1 eV  augmentation charge cutoff
   NELM   =     60;   NELMIN=  6; NELMDL= -5     # of ELM steps 
   EDIFF  = 0.5E-05   stopping-criterion for ELM
   LREAL  =      T    real-space projection
   NLSPLINE    = F    spline interpolate recip. space projectors
   LCOMPAT=      F    compatible to vasp.4.4
   GGA_COMPAT  = T    GGA compatible to vasp.4.4-vasp.4.6
   LMAXPAW     = -100 max onsite density
   LMAXMIX     =    2 max onsite mixed and CHGCAR
   VOSKOWN=      0    Vosko Wilk Nusair interpolation
   ROPT   =   -0.00050  -0.00050
 Ionic relaxation
   EDIFFG = 0.5E-04   stopping-criterion for IOM
   NSW    =      0    number of steps for IOM
   NBLOCK =      1;   KBLOCK =      1    inner block; outer block 
   IBRION =     -1    ionic relax: 0-MD 1-quasi-New 2-CG
   NFREE  =      0    steps in history (QN), initial steepest desc. (CG)
   ISIF   =      0    stress and relaxation
   IWAVPR =     10    prediction:  0-non 1-charg 2-wave 3-comb
   ISYM   =      2    0-nonsym 1-usesym 2-fastsym
   LCORR  =      T    Harris-Foulkes like correction to forces

   POTIM  = 0.5000    time-step for ionic-motion
   TEIN   =    0.0    initial temperature
   TEBEG  =    0.0;   TEEND  =   0.0 temperature during run
   SMASS  =  -3.00    Nose mass-parameter (am)
   estimated Nose-frequenzy (Omega)   =  0.10E-29 period in steps =****** mass=  -0.675E-26a.u.
   SCALEE = 1.0000    scale energy and forces
   NPACO  =    256;   APACO  = 16.0  distance and # of slots for P.C.
   PSTRESS=    0.0 pullay stress

  Mass of Ions in am
   POMASS =  26.98 14.00
  Ionic Valenz
   ZVAL   =   3.00  5.00
  Atomic Wigner-Seitz radii
   RWIGS  =  -1.00 -1.00
  virtual crystal weights 
   VCA    =   1.00  1.00
   NELECT =     766.0000    total number of electrons
   NUPDOWN=      -1.0000    fix difference up-down

 DOS related values:
   EMIN   =  10.00;   EMAX   =-10.00  energy-range for DOS
   EFERMI =   0.00
   ISMEAR =     0;   SIGMA  =   0.05  broadening in eV -4-tet -1-fermi 0-gaus

 Electronic relaxation 2 (details)
   IALGO  =     38    algorithm
   LDIAG  =      T    sub-space diagonalisation (order eigenvalues)
   LSUBROT=      F    optimize rotation matrix (better conditioning)
   TURBO    =      0    0=normal 1=particle mesh
   IRESTART =      0    0=no restart 2=restart with 2 vectors
   NREBOOT  =      0    no. of reboots
   NMIN     =      0    reboot dimension
   EREF     =   0.00    reference energy to select bands
   IMIX   =      4    mixing-type and parameters
     AMIX     =   0.40;   BMIX     =  1.00
     AMIX_MAG =   1.60;   BMIX_MAG =  1.00
     AMIN     =   0.10
     WC   =   100.;   INIMIX=   1;  MIXPRE=   1;  MAXMIX= -45

 Intra band minimization:
   WEIMIN = 0.0000     energy-eigenvalue tresh-hold
   EBREAK =  0.24E-08  absolut break condition
   DEPER  =   0.30     relativ break condition  

   TIME   =   0.40     timestep for ELM

  volume/ion in A,a.u.               =      30.19       203.75
  Fermi-wavevector in a.u.,A,eV,Ry     =   0.759583  1.435404  7.850108  0.576967
  Thomas-Fermi vector in A             =   1.858410
 
 Write flags
   LWAVE        =      F    write WAVECAR
   LDOWNSAMPLE  =      F    k-point downsampling of WAVECAR
   LCHARG       =      F    write CHGCAR
   LVTOT        =      F    write LOCPOT, total local potential
   LVHAR        =      F    write LOCPOT, Hartree potential only
   LELF         =      F    write electronic localiz. function (ELF)
   LORBIT       =      0    0 simple, 1 ext, 2 COOP (PROOUT), +10 PAW based schemes


 Dipole corrections
   LMONO  =      F    monopole corrections only (constant potential shift)
   LDIPOL =      F    correct potential (dipole corrections)
   IDIPOL =      0    1-x, 2-y, 3-z, 4-all directions 
   EPSILON=  1.0000000 bulk dielectric constant

 Exchange correlation treatment:
   GGA     =    --    GGA type
   LEXCH   =     8    internal setting for exchange type
   VOSKOWN=      0    Vosko Wilk Nusair interpolation
   LHFCALC =     F    Hartree Fock is set to
   LHFONE  =     F    Hartree Fock one center treatment
   AEXX    =    0.0000 exact exchange contribution

 Linear response parameters
   LEPSILON=     F    determine dielectric tensor
   LRPA    =     F    only Hartree local field effects (RPA)
   LNABLA  =     F    use nabla operator in PAW spheres
   LVEL    =     F    velocity operator in full k-point grid
   LINTERFAST=   F  fast interpolation
   KINTER  =     0    interpolate to denser k-point grid
   CSHIFT  =0.1000    complex shift for real part using Kramers Kronig
   OMEGAMAX=  -1.0    maximum frequency
   DEG_THRESHOLD= 0.2000000E-02 threshold for treating states as degnerate
   RTIME   =   -0.100 relaxation time in fs
  (WPLASMAI=    0.000 imaginary part of plasma frequency in eV, 0.658/RTIME)
   DFIELD  = 0.0000000 0.0000000 0.0000000 field for delta impulse in time
 
 Orbital magnetization related:
   ORBITALMAG=     F  switch on orbital magnetization
   LCHIMAG   =     F  perturbation theory with respect to B field
   DQ        =  0.001000  dq finite difference perturbation B field
   LLRAUG    =     F  two centre corrections for induced B field



--------------------------------------------------------------------------------------------------------


 Static calculation
 charge density and potential will be updated during run
 non-spin polarized calculation
 Variant of blocked Davidson
 Davidson routine will perform the subspace rotation
 perform sub-space diagonalisation
    after iterative eigenvector-optimisation
 modified Broyden-mixing scheme, WC =      100.0
 initial mixing is a Kerker type mixing with AMIX =  0.4000 and BMIX =      1.0000
 Hartree-type preconditioning will be used
 using additional bands          133
 real space projection scheme for non local part
 use partial core corrections
 calculate Harris-corrections to forces 
   (improved forces if not selfconsistent)
 use gradient corrections 
 use of overlap-Matrix (Vanderbilt PP)
 Gauss-broadening in eV      SIGMA  =   0.05


--------------------------------------------------------------------------------------------------------


  energy-cutoff  :      300.00
  volume of cell :     7668.80
      direct lattice vectors                 reciprocal lattice vectors
     0.000000000-17.180573462  0.000000000     0.000000000 -0.058205275  0.033604831
     0.000000000 -8.590286731-14.878813070     0.000000000  0.000000000 -0.067209662
    30.000000000  0.000000000  0.000000000     0.033333333  0.000000000  0.000000000

  length of vectors
    17.180573462 17.180573462 30.000000000     0.067209662  0.067209662  0.033333333


 
 k-points in units of 2pi/SCALE and weight: Automatic generation                    
   0.00000000  0.00000000  0.00000000       0.250
   0.00000000 -0.02910264  0.01680242       0.500
   0.00000000  0.00000000 -0.03360483       0.250
 
 k-points in reciprocal lattice and weights: Automatic generation                    
   0.00000000  0.00000000  0.00000000       0.250
   0.50000000  0.00000000  0.00000000       0.500
   0.00000000  0.50000000  0.00000000       0.250
 
 position of ions in fractional coordinates (direct lattice) 
   0.44444456  0.44444473  0.07873467
   0.44444419  0.77777777  0.07873467
   0.44444468  0.11111101  0.07873467
   0.77777744  0.44444473  0.07873467
   0.77777765  0.77777777  0.07873467
   0.77777756  0.11111101  0.07873467
   0.11111110  0.44444473  0.07873467
   0.11111131  0.77777777  0.07873467
   0.11111122  0.11111101  0.07873467
   0.55555520  0.55555574  0.15702600
   0.55555541  0.88888878  0.15702600
   0.55555591  0.22222203  0.15702600
   0.88888866  0.55555574  0.15702600
   0.88888887  0.88888878  0.15702600
   0.88888878  0.22222203  0.15702600
   0.22222232  0.55555574  0.15702600
   0.22222253  0.88888878  0.15702600
   0.22222245  0.22222203  0.15702600
   0.66666642  0.66666675  0.23375733
   0.66666692  0.00000000  0.23375733
   0.66666655  0.33333304  0.23375733
   0.00000008  0.66666675  0.23375733
   0.00000000  0.00000000  0.23375733
   0.00000021  0.33333304  0.23375733
   0.33333354  0.66666675  0.23375733
   0.33333346  0.00000000  0.23375733
   0.33333367  0.33333304  0.23375733
   0.77777765  0.77777777  0.31173067
   0.77777756  0.11111101  0.31173067
   0.77777744  0.44444473  0.31173067
   0.11111131  0.77777777  0.31173067
   0.11111122  0.11111101  0.31173067
   0.11111110  0.44444473  0.31173067
   0.44444419  0.77777777  0.31173067
   0.44444468  0.11111101  0.31173067
   0.44444456  0.44444473  0.31173067
   0.88888887  0.88888878  0.38970400
   0.88888878  0.22222203  0.38970400
   0.88888866  0.55555574  0.38970400
   0.22222253  0.88888878  0.38970400
   0.22222245  0.22222203  0.38970400
   0.22222232  0.55555574  0.38970400
   0.55555541  0.88888878  0.38970400
   0.55555591  0.22222203  0.38970400
   0.55555520  0.55555574  0.38970400
   0.00000000  0.00000000  0.46643533
   0.00000021  0.33333304  0.46643533
   0.00000008  0.66666675  0.46643533
   0.33333346  0.00000000  0.46643533
   0.33333367  0.33333304  0.46643533
   0.33333354  0.66666675  0.46643533
   0.66666692  0.00000000  0.46643533
   0.66666655  0.33333304  0.46643533
   0.66666642  0.66666675  0.46643533
   0.11111122  0.11111101  0.54472667
   0.11111110  0.44444473  0.54472667
   0.11111131  0.77777777  0.54472667
   0.44444468  0.11111101  0.54472667
   0.44444456  0.44444473  0.54472667
   0.44444419  0.77777777  0.54472667
   0.77777756  0.11111101  0.54472667
   0.77777744  0.44444473  0.54472667
   0.77777765  0.77777777  0.54472667
   0.27777777  0.27777753  0.07873467
   0.27777764  0.61111125  0.07873467
   0.27777785  0.94444429  0.07873467
   0.61111123  0.27777753  0.07873467
   0.61111110  0.61111125  0.07873467
   0.61111131  0.94444429  0.07873467
   0.94444469  0.27777753  0.07873467
   0.94444456  0.61111125  0.07873467
   0.94444477  0.94444429  0.07873467
   0.38888865  0.38888922  0.15702600
   0.38888886  0.72222226  0.15702600
   0.38888878  0.05555551  0.15702600
   0.72222211  0.38888922  0.15702600
   0.72222232  0.72222226  0.15702600
   0.72222224  0.05555551  0.15702600
   0.05555519  0.38888922  0.15702600
   0.05555540  0.72222226  0.15702600
   0.05555532  0.05555551  0.15702600
   0.49999988  0.50000023  0.23375733
   0.50000009  0.83333327  0.23375733
   0.50000000  0.16666652  0.23375733
   0.83333334  0.50000023  0.23375733
   0.83333355  0.83333327  0.23375733
   0.83333346  0.16666652  0.23375733
   0.16666642  0.50000023  0.23375733
   0.16666663  0.83333327  0.23375733
   0.16666654  0.16666652  0.23375733
   0.61111110  0.61111125  0.31173067
   0.61111131  0.94444429  0.31173067
   0.61111123  0.27777753  0.31173067
   0.94444456  0.61111125  0.31173067
   0.94444477  0.94444429  0.31173067
   0.94444469  0.27777753  0.31173067
   0.27777764  0.61111125  0.31173067
   0.27777785  0.94444429  0.31173067
   0.27777777  0.27777753  0.31173067
   0.72222232  0.72222226  0.38970400
   0.72222224  0.05555551  0.38970400
   0.72222211  0.38888922  0.38970400
   0.05555540  0.72222226  0.38970400
   0.05555532  0.05555551  0.38970400
   0.05555519  0.38888922  0.38970400
   0.38888886  0.72222226  0.38970400
   0.38888878  0.05555551  0.38970400
   0.38888865  0.38888922  0.38970400
   0.83333355  0.83333327  0.46643533
   0.83333346  0.16666652  0.46643533
   0.83333334  0.50000023  0.46643533
   0.16666663  0.83333327  0.46643533
   0.16666654  0.16666652  0.46643533
   0.16666642  0.50000023  0.46643533
   0.50000009  0.83333327  0.46643533
   0.50000000  0.16666652  0.46643533
   0.49999988  0.50000023  0.46643533
   0.94444477  0.94444429  0.54472667
   0.94444469  0.27777753  0.54472667
   0.94444456  0.61111125  0.54472667
   0.27777785  0.94444429  0.54472667
   0.27777777  0.27777753  0.54472667
   0.27777764  0.61111125  0.54472667
   0.61111131  0.94444429  0.54472667
   0.61111123  0.27777753  0.54472667
   0.61111110  0.61111125  0.54472667
   0.27777783  0.44444473  0.07873467
   0.27777804  0.77777777  0.07873467
   0.27777795  0.11111101  0.07873467
   0.61111071  0.44444473  0.07873467
   0.61111092  0.77777777  0.07873467
   0.61111141  0.11111101  0.07873467
   0.94444417  0.44444473  0.07873467
   0.94444438  0.77777777  0.07873467
   0.94444429  0.11111101  0.07873467
   0.38888905  0.55555574  0.15702600
   0.38888868  0.88888878  0.15702600
   0.38888918  0.22222203  0.15702600
   0.72222193  0.55555574  0.15702600
   0.72222214  0.88888878  0.15702600
   0.72222205  0.22222203  0.15702600
   0.05555559  0.55555574  0.15702600
   0.05555580  0.88888878  0.15702600
   0.05555572  0.22222203  0.15702600
   0.49999969  0.66666675  0.23375733
   0.50000019  0.00000000  0.23375733
   0.50000040  0.33333304  0.23375733
   0.83333315  0.66666675  0.23375733
   0.83333307  0.00000000  0.23375733
   0.83333328  0.33333304  0.23375733
   0.16666681  0.66666675  0.23375733
   0.16666673  0.00000000  0.23375733
   0.16666694  0.33333304  0.23375733
   0.61111092  0.77777777  0.31173067
   0.61111141  0.11111101  0.31173067
   0.61111071  0.44444473  0.31173067
   0.94444438  0.77777777  0.31173067
   0.94444429  0.11111101  0.31173067
   0.94444417  0.44444473  0.31173067
   0.27777804  0.77777777  0.31173067
   0.27777795  0.11111101  0.31173067
   0.27777783  0.44444473  0.31173067
   0.72222214  0.88888878  0.38970400
   0.72222205  0.22222203  0.38970400
   0.72222193  0.55555574  0.38970400
   0.05555580  0.88888878  0.38970400
   0.05555572  0.22222203  0.38970400
   0.05555559  0.55555574  0.38970400
   0.38888868  0.88888878  0.38970400
   0.38888918  0.22222203  0.38970400
   0.38888905  0.55555574  0.38970400
   0.83333307  0.00000000  0.46643533
   0.83333328  0.33333304  0.46643533
   0.83333315  0.66666675  0.46643533
   0.16666673  0.00000000  0.46643533
   0.16666694  0.33333304  0.46643533
   0.16666681  0.66666675  0.46643533
   0.50000019  0.00000000  0.46643533
   0.50000040  0.33333304  0.46643533
   0.49999969  0.66666675  0.46643533
   0.94444429  0.11111101  0.54472667
   0.94444417  0.44444473  0.54472667
   0.94444438  0.77777777  0.54472667
   0.27777795  0.11111101  0.54472667
   0.27777783  0.44444473  0.54472667
   0.27777804  0.77777777  0.54472667
   0.61111141  0.11111101  0.54472667
   0.61111071  0.44444473  0.54472667
   0.61111092  0.77777777  0.54472667
   0.44444450  0.27777753  0.07873467
   0.44444437  0.61111125  0.07873467
   0.44444458  0.94444429  0.07873467
   0.77777796  0.27777753  0.07873467
   0.77777783  0.61111125  0.07873467
   0.77777804  0.94444429  0.07873467
   0.11111104  0.27777753  0.07873467
   0.11111091  0.61111125  0.07873467
   0.11111112  0.94444429  0.07873467
   0.55555538  0.38888922  0.15702600
   0.55555559  0.72222226  0.15702600
   0.55555551  0.05555551  0.15702600
   0.88888884  0.38888922  0.15702600
   0.88888905  0.72222226  0.15702600
   0.88888897  0.05555551  0.15702600
   0.22222192  0.38888922  0.15702600
   0.22222213  0.72222226  0.15702600
   0.22222205  0.05555551  0.15702600
   0.66666661  0.50000023  0.23375733
   0.66666682  0.83333327  0.23375733
   0.66666673  0.16666652  0.23375733
   0.99999969  0.50000023  0.23375733
   0.99999990  0.83333327  0.23375733
   0.99999981  0.16666652  0.23375733
   0.33333315  0.50000023  0.23375733
   0.33333336  0.83333327  0.23375733
   0.33333327  0.16666652  0.23375733
   0.77777783  0.61111125  0.31173067
   0.77777804  0.94444429  0.31173067
   0.77777796  0.27777753  0.31173067
   0.11111091  0.61111125  0.31173067
   0.11111112  0.94444429  0.31173067
   0.11111104  0.27777753  0.31173067
   0.44444437  0.61111125  0.31173067
   0.44444458  0.94444429  0.31173067
   0.44444450  0.27777753  0.31173067
   0.88888905  0.72222226  0.38970400
   0.88888897  0.05555551  0.38970400
   0.88888884  0.38888922  0.38970400
   0.22222213  0.72222226  0.38970400
   0.22222205  0.05555551  0.38970400
   0.22222192  0.38888922  0.38970400
   0.55555559  0.72222226  0.38970400
   0.55555551  0.05555551  0.38970400
   0.55555538  0.38888922  0.38970400
   0.99999990  0.83333327  0.46643533
   0.99999981  0.16666652  0.46643533
   0.99999969  0.50000023  0.46643533
   0.33333336  0.83333327  0.46643533
   0.33333327  0.16666652  0.46643533
   0.33333315  0.50000023  0.46643533
   0.66666682  0.83333327  0.46643533
   0.66666673  0.16666652  0.46643533
   0.66666661  0.50000023  0.46643533
   0.11111112  0.94444429  0.54472667
   0.11111104  0.27777753  0.54472667
   0.11111091  0.61111125  0.54472667
   0.44444458  0.94444429  0.54472667
   0.44444450  0.27777753  0.54472667
   0.44444437  0.61111125  0.54472667
   0.77777804  0.94444429  0.54472667
   0.77777796  0.27777753  0.54472667
   0.77777783  0.61111125  0.54472667
   0.34003429  0.48659795  0.73466667
   0.38217494  0.40231704  0.73466667
 
 position of ions in cartesian coordinates  (Angst):
   2.36204000-11.45372000 -6.61281000
   2.36204000-14.31714000-11.57241000
   2.36204000 -8.59029000 -1.65320000
   2.36204000-17.18057000 -6.61281000
   2.36204000-20.04400000-11.57241000
   2.36204000-14.31714000 -1.65320000
   2.36204000 -5.72686000 -6.61281000
   2.36204000 -8.59029000-11.57241000
   2.36204000 -2.86343000 -1.65320000
   4.71078000-14.31714000 -8.26601000
   4.71078000-17.18057000-13.22561000
   4.71078000-11.45372000 -3.30640000
   4.71078000-20.04400000 -8.26601000
   4.71078000-22.90743000-13.22561000
   4.71078000-17.18057000 -3.30640000
   4.71078000 -8.59029000 -8.26601000
   4.71078000-11.45372000-13.22561000
   4.71078000 -5.72686000 -3.30640000
   7.01272000-17.18057000 -9.91921000
   7.01272000-11.45372000  0.00000000
   7.01272000-14.31714000 -4.95960000
   7.01272000 -5.72686000 -9.91921000
   7.01272000  0.00000000  0.00000000
   7.01272000 -2.86343000 -4.95960000
   7.01272000-11.45372000 -9.91921000
   7.01272000 -5.72686000  0.00000000
   7.01272000 -8.59029000 -4.95960000
   9.35192000-20.04400000-11.57241000
   9.35192000-14.31714000 -1.65320000
   9.35192000-17.18057000 -6.61281000
   9.35192000 -8.59029000-11.57241000
   9.35192000 -2.86343000 -1.65320000
   9.35192000 -5.72686000 -6.61281000
   9.35192000-14.31714000-11.57241000
   9.35192000 -8.59029000 -1.65320000
   9.35192000-11.45372000 -6.61281000
  11.69112000-22.90743000-13.22561000
  11.69112000-17.18057000 -3.30640000
  11.69112000-20.04400000 -8.26601000
  11.69112000-11.45372000-13.22561000
  11.69112000 -5.72686000 -3.30640000
  11.69112000 -8.59029000 -8.26601000
  11.69112000-17.18057000-13.22561000
  11.69112000-11.45372000 -3.30640000
  11.69112000-14.31714000 -8.26601000
  13.99306000  0.00000000  0.00000000
  13.99306000 -2.86343000 -4.95960000
  13.99306000 -5.72686000 -9.91921000
  13.99306000 -5.72686000  0.00000000
  13.99306000 -8.59029000 -4.95960000
  13.99306000-11.45372000 -9.91921000
  13.99306000-11.45372000  0.00000000
  13.99306000-14.31714000 -4.95960000
  13.99306000-17.18057000 -9.91921000
  16.34180000 -2.86343000 -1.65320000
  16.34180000 -5.72686000 -6.61281000
  16.34180000 -8.59029000-11.57241000
  16.34180000 -8.59029000 -1.65320000
  16.34180000-11.45372000 -6.61281000
  16.34180000-14.31714000-11.57241000
  16.34180000-14.31714000 -1.65320000
  16.34180000-17.18057000 -6.61281000
  16.34180000-20.04400000-11.57241000
   2.36204000 -7.15857000 -4.13300000
   2.36204000-10.02200000 -9.09261000
   2.36204000-12.88543000-14.05221000
   2.36204000-12.88543000 -4.13300000
   2.36204000-15.74886000 -9.09261000
   2.36204000-18.61229000-14.05221000
   2.36204000-18.61229000 -4.13300000
   2.36204000-21.47572000 -9.09261000
   2.36204000-24.33915000-14.05221000
   4.71078000-10.02200000 -5.78621000
   4.71078000-12.88543000-10.74581000
   4.71078000 -7.15857000 -0.82660000
   4.71078000-15.74886000 -5.78621000
   4.71078000-18.61229000-10.74581000
   4.71078000-12.88543000 -0.82660000
   4.71078000 -4.29514000 -5.78621000
   4.71078000 -7.15857000-10.74581000
   4.71078000 -1.43171000 -0.82660000
   7.01272000-12.88543000 -7.43941000
   7.01272000-15.74886000-12.39901000
   7.01272000-10.02200000 -2.47980000
   7.01272000-18.61229000 -7.43941000
   7.01272000-21.47572000-12.39901000
   7.01272000-15.74886000 -2.47980000
   7.01272000 -7.15857000 -7.43941000
   7.01272000-10.02200000-12.39901000
   7.01272000 -4.29514000 -2.47980000
   9.35192000-15.74886000 -9.09261000
   9.35192000-18.61229000-14.05221000
   9.35192000-12.88543000 -4.13300000
   9.35192000-21.47572000 -9.09261000
   9.35192000-24.33915000-14.05221000
   9.35192000-18.61229000 -4.13300000
   9.35192000-10.02200000 -9.09261000
   9.35192000-12.88543000-14.05221000
   9.35192000 -7.15857000 -4.13300000
  11.69112000-18.61229000-10.74581000
  11.69112000-12.88543000 -0.82660000
  11.69112000-15.74886000 -5.78621000
  11.69112000 -7.15857000-10.74581000
  11.69112000 -1.43171000 -0.82660000
  11.69112000 -4.29514000 -5.78621000
  11.69112000-12.88543000-10.74581000
  11.69112000 -7.15857000 -0.82660000
  11.69112000-10.02200000 -5.78621000
  13.99306000-21.47572000-12.39901000
  13.99306000-15.74886000 -2.47980000
  13.99306000-18.61229000 -7.43941000
  13.99306000-10.02200000-12.39901000
  13.99306000 -4.29514000 -2.47980000
  13.99306000 -7.15857000 -7.43941000
  13.99306000-15.74886000-12.39901000
  13.99306000-10.02200000 -2.47980000
  13.99306000-12.88543000 -7.43941000
  16.34180000-24.33915000-14.05221000
  16.34180000-18.61229000 -4.13300000
  16.34180000-21.47572000 -9.09261000
  16.34180000-12.88543000-14.05221000
  16.34180000 -7.15857000 -4.13300000
  16.34180000-10.02200000 -9.09261000
  16.34180000-18.61229000-14.05221000
  16.34180000-12.88543000 -4.13300000
  16.34180000-15.74886000 -9.09261000
   2.36204000 -8.59029000 -6.61281000
   2.36204000-11.45372000-11.57241000
   2.36204000 -5.72686000 -1.65320000
   2.36204000-14.31714000 -6.61281000
   2.36204000-17.18057000-11.57241000
   2.36204000-11.45372000 -1.65320000
   2.36204000-20.04400000 -6.61281000
   2.36204000-22.90743000-11.57241000
   2.36204000-17.18057000 -1.65320000
   4.71078000-11.45372000 -8.26601000
   4.71078000-14.31714000-13.22561000
   4.71078000 -8.59029000 -3.30640000
   4.71078000-17.18057000 -8.26601000
   4.71078000-20.04400000-13.22561000
   4.71078000-14.31714000 -3.30640000
   4.71078000 -5.72686000 -8.26601000
   4.71078000 -8.59029000-13.22561000
   4.71078000 -2.86343000 -3.30640000
   7.01272000-14.31714000 -9.91921000
   7.01272000 -8.59029000  0.00000000
   7.01272000-11.45372000 -4.95960000
   7.01272000-20.04400000 -9.91921000
   7.01272000-14.31714000  0.00000000
   7.01272000-17.18057000 -4.95960000
   7.01272000 -8.59029000 -9.91921000
   7.01272000 -2.86343000  0.00000000
   7.01272000 -5.72686000 -4.95960000
   9.35192000-17.18057000-11.57241000
   9.35192000-11.45372000 -1.65320000
   9.35192000-14.31714000 -6.61281000
   9.35192000-22.90743000-11.57241000
   9.35192000-17.18057000 -1.65320000
   9.35192000-20.04400000 -6.61281000
   9.35192000-11.45372000-11.57241000
   9.35192000 -5.72686000 -1.65320000
   9.35192000 -8.59029000 -6.61281000
  11.69112000-20.04400000-13.22561000
  11.69112000-14.31714000 -3.30640000
  11.69112000-17.18057000 -8.26601000
  11.69112000 -8.59029000-13.22561000
  11.69112000 -2.86343000 -3.30640000
  11.69112000 -5.72686000 -8.26601000
  11.69112000-14.31714000-13.22561000
  11.69112000 -8.59029000 -3.30640000
  11.69112000-11.45372000 -8.26601000
  13.99306000-14.31714000  0.00000000
  13.99306000-17.18057000 -4.95960000
  13.99306000-20.04400000 -9.91921000
  13.99306000 -2.86343000  0.00000000
  13.99306000 -5.72686000 -4.95960000
  13.99306000 -8.59029000 -9.91921000
  13.99306000 -8.59029000  0.00000000
  13.99306000-11.45372000 -4.95960000
  13.99306000-14.31714000 -9.91921000
  16.34180000-17.18057000 -1.65320000
  16.34180000-20.04400000 -6.61281000
  16.34180000-22.90743000-11.57241000
  16.34180000 -5.72686000 -1.65320000
  16.34180000 -8.59029000 -6.61281000
  16.34180000-11.45372000-11.57241000
  16.34180000-11.45372000 -1.65320000
  16.34180000-14.31714000 -6.61281000
  16.34180000-17.18057000-11.57241000
   2.36204000-10.02200000 -4.13300000
   2.36204000-12.88543000 -9.09261000
   2.36204000-15.74886000-14.05221000
   2.36204000-15.74886000 -4.13300000
   2.36204000-18.61229000 -9.09261000
   2.36204000-21.47572000-14.05221000
   2.36204000 -4.29514000 -4.13300000
   2.36204000 -7.15857000 -9.09261000
   2.36204000-10.02200000-14.05221000
   4.71078000-12.88543000 -5.78621000
   4.71078000-15.74886000-10.74581000
   4.71078000-10.02200000 -0.82660000
   4.71078000-18.61229000 -5.78621000
   4.71078000-21.47572000-10.74581000
   4.71078000-15.74886000 -0.82660000
   4.71078000 -7.15857000 -5.78621000
   4.71078000-10.02200000-10.74581000
   4.71078000 -4.29514000 -0.82660000
   7.01272000-15.74886000 -7.43941000
   7.01272000-18.61229000-12.39901000
   7.01272000-12.88543000 -2.47980000
   7.01272000-21.47571346 -7.43941000
   7.01272000-24.33914346-12.39901000
   7.01272000-18.61228346 -2.47980000
   7.01272000-10.02200000 -7.43941000
   7.01272000-12.88543000-12.39901000
   7.01272000 -7.15857000 -2.47980000
   9.35192000-18.61229000 -9.09261000
   9.35192000-21.47572000-14.05221000
   9.35192000-15.74886000 -4.13300000
   9.35192000 -7.15857000 -9.09261000
   9.35192000-10.02200000-14.05221000
   9.35192000 -4.29514000 -4.13300000
   9.35192000-12.88543000 -9.09261000
   9.35192000-15.74886000-14.05221000
   9.35192000-10.02200000 -4.13300000
  11.69112000-21.47572000-10.74581000
  11.69112000-15.74886000 -0.82660000
  11.69112000-18.61229000 -5.78621000
  11.69112000-10.02200000-10.74581000
  11.69112000 -4.29514000 -0.82660000
  11.69112000 -7.15857000 -5.78621000
  11.69112000-15.74886000-10.74581000
  11.69112000-10.02200000 -0.82660000
  11.69112000-12.88543000 -5.78621000
  13.99306000-24.33914346-12.39901000
  13.99306000-18.61228346 -2.47980000
  13.99306000-21.47571346 -7.43941000
  13.99306000-12.88543000-12.39901000
  13.99306000 -7.15857000 -2.47980000
  13.99306000-10.02200000 -7.43941000
  13.99306000-18.61229000-12.39901000
  13.99306000-12.88543000 -2.47980000
  13.99306000-15.74886000 -7.43941000
  16.34180000-10.02200000-14.05221000
  16.34180000 -4.29514000 -4.13300000
  16.34180000 -7.15857000 -9.09261000
  16.34180000-15.74886000-14.05221000
  16.34180000-10.02200000 -4.13300000
  16.34180000-12.88543000 -9.09261000
  16.34180000-21.47572000-14.05221000
  16.34180000-15.74886000 -4.13300000
  16.34180000-18.61229000 -9.09261000
  22.04000000-10.02200000 -7.24000000
  22.04000000-10.02200333 -5.98600000
 


--------------------------------------------------------------------------------------------------------


 k-point  1 :   0.0000 0.0000 0.0000  plane waves:   90499
 k-point  2 :   0.5000 0.0000 0.0000  plane waves:   90530
 k-point  3 :   0.0000 0.5000 0.0000  plane waves:   90530

 maximum and minimum number of plane-waves per node :     90530    90499

 maximum number of plane-waves:     90530
 maximum index in each direction: 
   IXMAX=   24   IYMAX=   24   IZMAX=   42
   IXMIN=  -24   IYMIN=  -24   IZMIN=  -42


 serial   3D FFT for wavefunctions
 parallel 3D FFT for charge:
    minimum data exchange during FFTs selected (reduces bandwidth)


 total amount of memory used by VASP MPI-rank0   652168. kBytes
=======================================================================

   base      :      30000. kBytes
   nonlr-proj:      89947. kBytes
   fftplans  :      40601. kBytes
   grid      :      95147. kBytes
   one-center:       3950. kBytes
   wavefun   :     392523. kBytes
 
     INWAV:  cpu time    0.0001: real time    0.0001
 Broyden mixing: mesh for mixing (old mesh)
   NGX = 49   NGY = 49   NGZ = 85
  (NGX  =160   NGY  =160   NGZ  =256)
  gives a total of 204085 points

 initial charge density was supplied:
 charge density of overlapping atoms calculated
 number of electron     766.0000000 magnetization 
 keeping initial charge density in first step


--------------------------------------------------------------------------------------------------------


 Maximum index for non-local projection operator         4281
 Maximum index for augmentation-charges          758 (set IRDMAX)


--------------------------------------------------------------------------------------------------------


 First call to EWALD:  gamma=   0.090
 Maximum number of real-space cells 3x 3x 2
 Maximum number of reciprocal cells 2x 2x 4

    FEWALD:  cpu time    0.0346: real time    0.0346


----------------------------------------- Iteration    1(   1)  ---------------------------------------


    POTLOK:  cpu time    0.8284: real time    0.8626
    SETDIJ:  cpu time    0.1066: real time    0.1094
     EDDAV:  cpu time   18.3389: real time   21.0168
       DOS:  cpu time    0.0013: real time    0.0013
    --------------------------------------------
      LOOP:  cpu time   19.2773: real time   22.0136

 eigenvalue-minimisations  :  3120
 total energy-change (2. order) : 0.2128318E+04  (-0.1838984E+05)
 number of electron     766.0000000 magnetization 
 augmentation part      766.0000000 magnetization 

 Free energy of the ion-electron system (eV)
  ---------------------------------------------------
  alpha Z        PSCENC =       505.22967617
  Ewald energy   TEWEN  =     85514.95735744
  -Hartree energ DENC   =    -99590.96011427
  -exchange      EXHF   =         0.00000000
  -V(xc)+E(xc)   XCENC  =     -6606.62974845
  PAW double counting   =     17092.30507181    -9042.14386232
  entropy T*S    EENTRO =        -0.07204736
  eigenvalues    EBANDS =       236.42941623
  atomic energy  EATOM  =     14019.20197576
  Solvation  Ediel_sol  =         0.00000000
  ---------------------------------------------------
  free energy    TOTEN  =      2128.31772502 eV

  energy without entropy =     2128.38977238  energy(sigma->0) =     2128.35374870


--------------------------------------------------------------------------------------------------------




----------------------------------------- Iteration    1(   2)  ---------------------------------------


     EDDAV:  cpu time   22.9631: real time   26.0426
       DOS:  cpu time    0.0015: real time    0.0015
    --------------------------------------------
      LOOP:  cpu time   22.9659: real time   26.0473

 eigenvalue-minimisations  :  4212
 total energy-change (2. order) :-0.2873459E+04  (-0.2708004E+04)
 number of electron     766.0000000 magnetization 
 augmentation part      766.0000000 magnetization 

 Free energy of the ion-electron system (eV)
  ---------------------------------------------------
  alpha Z        PSCENC =       505.22967617
  Ewald energy   TEWEN  =     85514.95735744
  -Hartree energ DENC   =    -99590.96011427
  -exchange      EXHF   =         0.00000000
  -V(xc)+E(xc)   XCENC  =     -6606.62974845
  PAW double counting   =     17092.30507181    -9042.14386232
  entropy T*S    EENTRO =        -0.10809410
  eigenvalues    EBANDS =     -2636.99338013
  atomic energy  EATOM  =     14019.20197576
  Solvation  Ediel_sol  =         0.00000000
  ---------------------------------------------------
  free energy    TOTEN  =      -745.14111808 eV

  energy without entropy =     -745.03302398  energy(sigma->0) =     -745.08707103


--------------------------------------------------------------------------------------------------------




----------------------------------------- Iteration    1(   3)  ---------------------------------------


     EDDAV:  cpu time   23.9566: real time   27.1452
       DOS:  cpu time    0.0022: real time    0.0022
    --------------------------------------------
      LOOP:  cpu time   23.9600: real time   27.1501

 eigenvalue-minimisations  :  4440
 total energy-change (2. order) :-0.2096017E+03  (-0.2014056E+03)
 number of electron     766.0000000 magnetization 
 augmentation part      766.0000000 magnetization 

 Free energy of the ion-electron system (eV)
  ---------------------------------------------------
  alpha Z        PSCENC =       505.22967617
  Ewald energy   TEWEN  =     85514.95735744
  -Hartree energ DENC   =    -99590.96011427
  -exchange      EXHF   =         0.00000000
  -V(xc)+E(xc)   XCENC  =     -6606.62974845
  PAW double counting   =     17092.30507181    -9042.14386232
  entropy T*S    EENTRO =        -0.22913032
  eigenvalues    EBANDS =     -2846.47402915
  atomic energy  EATOM  =     14019.20197576
  Solvation  Ediel_sol  =         0.00000000
  ---------------------------------------------------
  free energy    TOTEN  =      -954.74280333 eV

  energy without entropy =     -954.51367300  energy(sigma->0) =     -954.62823817


--------------------------------------------------------------------------------------------------------




----------------------------------------- Iteration    1(   4)  ---------------------------------------


     EDDAV:  cpu time   23.6692: real time   26.8082
       DOS:  cpu time    0.0012: real time    0.0012
    --------------------------------------------
      LOOP:  cpu time   23.6717: real time   26.8126

 eigenvalue-minimisations  :  4368
 total energy-change (2. order) :-0.7502032E+01  (-0.7331643E+01)
 number of electron     766.0000000 magnetization 
 augmentation part      766.0000000 magnetization 

 Free energy of the ion-electron system (eV)
  ---------------------------------------------------
  alpha Z        PSCENC =       505.22967617
  Ewald energy   TEWEN  =     85514.95735744
  -Hartree energ DENC   =    -99590.96011427
  -exchange      EXHF   =         0.00000000
  -V(xc)+E(xc)   XCENC  =     -6606.62974845
  PAW double counting   =     17092.30507181    -9042.14386232
  entropy T*S    EENTRO =        -0.25953132
  eigenvalues    EBANDS =     -2853.94565969
  atomic energy  EATOM  =     14019.20197576
  Solvation  Ediel_sol  =         0.00000000
  ---------------------------------------------------
  free energy    TOTEN  =      -962.24483487 eV

  energy without entropy =     -961.98530355  energy(sigma->0) =     -962.11506921


--------------------------------------------------------------------------------------------------------




----------------------------------------- Iteration    1(   5)  ---------------------------------------


     EDDAV:  cpu time   26.6947: real time   30.2041
       DOS:  cpu time    0.0012: real time    0.0012
    CHARGE:  cpu time    1.6856: real time    1.7396
    MIXING:  cpu time    0.0262: real time    0.0262
    --------------------------------------------
      LOOP:  cpu time   28.4091: real time   31.9738

 eigenvalue-minimisations  :  5100
 total energy-change (2. order) :-0.4139889E+00  (-0.4126436E+00)
 number of electron     766.0000004 magnetization 
 augmentation part      -10.0058940 magnetization 

 Broyden mixing:
  rms(total) = 0.18641E+01    rms(broyden)= 0.18631E+01
  rms(prec ) = 0.26181E+01
  weight for this iteration     100.00

 Free energy of the ion-electron system (eV)
  ---------------------------------------------------
  alpha Z        PSCENC =       505.22967617
  Ewald energy   TEWEN  =     85514.95735744
  -Hartree energ DENC   =    -99590.96011427
  -exchange      EXHF   =         0.00000000
  -V(xc)+E(xc)   XCENC  =     -6606.62974845
  PAW double counting   =     17092.30507181    -9042.14386232
  entropy T*S    EENTRO =        -0.25964208
  eigenvalues    EBANDS =     -2854.35953782
  atomic energy  EATOM  =     14019.20197576
  Solvation  Ediel_sol  =         0.00000000
  ---------------------------------------------------
  free energy    TOTEN  =      -962.65882376 eV

  energy without entropy =     -962.39918168  energy(sigma->0) =     -962.52900272


--------------------------------------------------------------------------------------------------------




----------------------------------------- Iteration    1(   6)  ---------------------------------------


    POTLOK:  cpu time    0.7898: real time    0.7898
    SETDIJ:  cpu time    0.1071: real time    0.1071
     EDDAV:  cpu time   24.0036: real time   27.1811
       DOS:  cpu time    0.0022: real time    0.0022
    CHARGE:  cpu time    1.6584: real time    1.6906
    MIXING:  cpu time    0.0287: real time    0.0316
    --------------------------------------------
      LOOP:  cpu time   26.5913: real time   29.8062

 eigenvalue-minimisations  :  4464
 total energy-change (2. order) :-0.1518787E+02  (-0.1894032E+02)
 number of electron     766.0000006 magnetization 
 augmentation part       -9.9682908 magnetization 

 Broyden mixing:
  rms(total) = 0.18628E+01    rms(broyden)= 0.18627E+01
  rms(prec ) = 0.41904E+01
  weight for this iteration     100.00

 eigenvalues of (default mixing * dielectric matrix)
  average eigenvalue GAMMA=   0.7569
  0.7569

 Free energy of the ion-electron system (eV)
  ---------------------------------------------------
  alpha Z        PSCENC =       505.22967617
  Ewald energy   TEWEN  =     85514.95735744
  -Hartree energ DENC   =   -100511.12177124
  -exchange      EXHF   =         0.00000000
  -V(xc)+E(xc)   XCENC  =     -6596.64679566
  PAW double counting   =     19030.20060417   -10981.35397412
  entropy T*S    EENTRO =        -0.17248798
  eigenvalues    EBANDS =     -1958.14127778
  atomic energy  EATOM  =     14019.20197576
  Solvation  Ediel_sol  =         0.00000000
  ---------------------------------------------------
  free energy    TOTEN  =      -977.84669324 eV

  energy without entropy =     -977.67420526  energy(sigma->0) =     -977.76044925


--------------------------------------------------------------------------------------------------------




----------------------------------------- Iteration    1(   7)  ---------------------------------------


    POTLOK:  cpu time    0.7973: real time    0.7974
    SETDIJ:  cpu time    0.1071: real time    0.1071
     EDDAV:  cpu time   22.0051: real time   25.0192
       DOS:  cpu time    0.0012: real time    0.0012
    CHARGE:  cpu time    1.7015: real time    1.7351
    MIXING:  cpu time    0.0297: real time    0.0297
    --------------------------------------------
      LOOP:  cpu time   24.6435: real time   27.6924

 eigenvalue-minimisations  :  3996
 total energy-change (2. order) : 0.4037762E+02  (-0.1321576E+02)
 number of electron     766.0000006 magnetization 
 augmentation part      -10.0089172 magnetization 

 Broyden mixing:
  rms(total) = 0.96103E+00    rms(broyden)= 0.96103E+00
  rms(prec ) = 0.12230E+01
  weight for this iteration     100.00

 eigenvalues of (default mixing * dielectric matrix)
  average eigenvalue GAMMA=   1.1806
  2.0492  0.3121

 Free energy of the ion-electron system (eV)
  ---------------------------------------------------
  alpha Z        PSCENC =       505.22967617
  Ewald energy   TEWEN  =     85514.95735744
  -Hartree energ DENC   =    -99988.68374832
  -exchange      EXHF   =         0.00000000
  -V(xc)+E(xc)   XCENC  =     -6594.52190843
  PAW double counting   =     19405.53181419   -11356.80279286
  entropy T*S    EENTRO =        -0.05003454
  eigenvalues    EBANDS =     -2442.33140887
  atomic energy  EATOM  =     14019.20197576
  Solvation  Ediel_sol  =         0.00000000
  ---------------------------------------------------
  free energy    TOTEN  =      -937.46906946 eV

  energy without entropy =     -937.41903493  energy(sigma->0) =     -937.44405219


--------------------------------------------------------------------------------------------------------




----------------------------------------- Iteration    1(   8)  ---------------------------------------


    POTLOK:  cpu time    0.7961: real time    0.7962
    SETDIJ:  cpu time    0.1080: real time    0.1080
     EDDAV:  cpu time   21.3562: real time   24.1662
       DOS:  cpu time    0.0022: real time    0.0022
    CHARGE:  cpu time    1.6858: real time    1.7183
    MIXING:  cpu time    0.0299: real time    0.0299
    --------------------------------------------
      LOOP:  cpu time   23.9799: real time   26.8235

 eigenvalue-minimisations  :  3804
 total energy-change (2. order) : 0.3446722E+00  (-0.4528917E+01)
 number of electron     766.0000005 magnetization 
 augmentation part      -10.1713995 magnetization 

 Broyden mixing:
  rms(total) = 0.45735E+00    rms(broyden)= 0.45735E+00
  rms(prec ) = 0.59125E+00
  weight for this iteration     100.00

 eigenvalues of (default mixing * dielectric matrix)
  average eigenvalue GAMMA=   1.1583
  2.4911  0.6895  0.2945

 Free energy of the ion-electron system (eV)
  ---------------------------------------------------
  alpha Z        PSCENC =       505.22967617
  Ewald energy   TEWEN  =     85514.95735744
  -Hartree energ DENC   =   -100155.84019922
  -exchange      EXHF   =         0.00000000
  -V(xc)+E(xc)   XCENC  =     -6585.10744204
  PAW double counting   =     20923.04532723   -12875.15877052
  entropy T*S    EENTRO =        -0.05714230
  eigenvalues    EBANDS =     -2283.39517980
  atomic energy  EATOM  =     14019.20197576
  Solvation  Ediel_sol  =         0.00000000
  ---------------------------------------------------
  free energy    TOTEN  =      -937.12439728 eV

  energy without entropy =     -937.06725498  energy(sigma->0) =     -937.09582613


--------------------------------------------------------------------------------------------------------




----------------------------------------- Iteration    1(   9)  ---------------------------------------


    POTLOK:  cpu time    0.7982: real time    0.7982
    SETDIJ:  cpu time    0.1068: real time    0.1069
     EDDAV:  cpu time   20.6796: real time   23.4609
       DOS:  cpu time    0.0057: real time    0.0057
    CHARGE:  cpu time    1.6901: real time    1.7226
    MIXING:  cpu time    0.0313: real time    0.0313
    --------------------------------------------
      LOOP:  cpu time   23.3133: real time   26.1282

 eigenvalue-minimisations  :  3648
 total energy-change (2. order) : 0.2035915E+01  (-0.5105276E+00)
 number of electron     766.0000005 magnetization 
 augmentation part      -10.2339132 magnetization 

 Broyden mixing:
  rms(total) = 0.11493E+00    rms(broyden)= 0.11492E+00
  rms(prec ) = 0.18136E+00
  weight for this iteration     100.00

 eigenvalues of (default mixing * dielectric matrix)
  average eigenvalue GAMMA=   1.2191
  2.4301  1.4798  0.2965  0.6698

 Free energy of the ion-electron system (eV)
  ---------------------------------------------------
  alpha Z        PSCENC =       505.22967617
  Ewald energy   TEWEN  =     85514.95735744
  -Hartree energ DENC   =   -100329.89645868
  -exchange      EXHF   =         0.00000000
  -V(xc)+E(xc)   XCENC  =     -6577.13671307
  PAW double counting   =     22158.38894845   -14111.49452884
  entropy T*S    EENTRO =        -0.05509546
  eigenvalues    EBANDS =     -2114.28364387
  atomic energy  EATOM  =     14019.20197576
  Solvation  Ediel_sol  =         0.00000000
  ---------------------------------------------------
  free energy    TOTEN  =      -935.08848210 eV

  energy without entropy =     -935.03338664  energy(sigma->0) =     -935.06093437


--------------------------------------------------------------------------------------------------------




----------------------------------------- Iteration    1(  10)  ---------------------------------------


    POTLOK:  cpu time    0.8027: real time    0.8028
    SETDIJ:  cpu time    0.1079: real time    0.1079
     EDDAV:  cpu time   22.5062: real time   25.5482
       DOS:  cpu time    0.0021: real time    0.0021
    CHARGE:  cpu time    1.6633: real time    1.6953
    MIXING:  cpu time    0.0323: real time    0.0323
    --------------------------------------------
      LOOP:  cpu time   25.1162: real time   28.1912

 eigenvalue-minimisations  :  4092
 total energy-change (2. order) :-0.2455564E+00  (-0.1010525E+00)
 number of electron     766.0000006 magnetization 
 augmentation part      -10.2415021 magnetization 

 Broyden mixing:
  rms(total) = 0.15058E+00    rms(broyden)= 0.15058E+00
  rms(prec ) = 0.52366E+00
  weight for this iteration     100.00

 eigenvalues of (default mixing * dielectric matrix)
  average eigenvalue GAMMA=   1.0573
  2.4148  1.6152  0.6541  0.2906  0.3120

 Free energy of the ion-electron system (eV)
  ---------------------------------------------------
  alpha Z        PSCENC =       505.22967617
  Ewald energy   TEWEN  =     85514.95735744
  -Hartree energ DENC   =   -100379.88530823
  -exchange      EXHF   =         0.00000000
  -V(xc)+E(xc)   XCENC  =     -6576.38689518
  PAW double counting   =     22183.29761421   -14136.72070525
  entropy T*S    EENTRO =        -0.05542181
  eigenvalues    EBANDS =     -2064.97233158
  atomic energy  EATOM  =     14019.20197576
  Solvation  Ediel_sol  =         0.00000000
  ---------------------------------------------------
  free energy    TOTEN  =      -935.33403848 eV

  energy without entropy =     -935.27861667  energy(sigma->0) =     -935.30632758


--------------------------------------------------------------------------------------------------------




----------------------------------------- Iteration    1(  11)  ---------------------------------------


    POTLOK:  cpu time    0.7989: real time    0.7990
    SETDIJ:  cpu time    0.1074: real time    0.1074
     EDDAV:  cpu time   22.3352: real time   25.3116
       DOS:  cpu time    0.0019: real time    0.0019
    CHARGE:  cpu time    1.6574: real time    1.6895
    MIXING:  cpu time    0.0336: real time    0.0338
    --------------------------------------------
      LOOP:  cpu time   24.9360: real time   27.9459

 eigenvalue-minimisations  :  4044
 total energy-change (2. order) : 0.3639645E+00  (-0.2997536E-01)
 number of electron     766.0000005 magnetization 
 augmentation part      -10.2457976 magnetization 

 Broyden mixing:
  rms(total) = 0.61229E-01    rms(broyden)= 0.61228E-01
  rms(prec ) = 0.88905E-01
  weight for this iteration     100.00

 eigenvalues of (default mixing * dielectric matrix)
  average eigenvalue GAMMA=   1.1017
  2.3121  2.3121  0.7749  0.7749  0.2961  0.1400

 Free energy of the ion-electron system (eV)
  ---------------------------------------------------
  alpha Z        PSCENC =       505.22967617
  Ewald energy   TEWEN  =     85514.95735744
  -Hartree energ DENC   =   -100397.82607680
  -exchange      EXHF   =         0.00000000
  -V(xc)+E(xc)   XCENC  =     -6576.10616282
  PAW double counting   =     22190.46734770   -14144.00471888
  entropy T*S    EENTRO =        -0.05525473
  eigenvalues    EBANDS =     -2046.83421777
  atomic energy  EATOM  =     14019.20197576
  Solvation  Ediel_sol  =         0.00000000
  ---------------------------------------------------
  free energy    TOTEN  =      -934.97007394 eV

  energy without entropy =     -934.91481921  energy(sigma->0) =     -934.94244657


--------------------------------------------------------------------------------------------------------




----------------------------------------- Iteration    1(  12)  ---------------------------------------


    POTLOK:  cpu time    0.8021: real time    0.8021
    SETDIJ:  cpu time    0.1069: real time    0.1069
     EDDAV:  cpu time   21.1740: real time   24.0124
       DOS:  cpu time    0.0207: real time    0.0208
    CHARGE:  cpu time    1.6707: real time    1.7029
    MIXING:  cpu time    0.0354: real time    0.0354
    --------------------------------------------
      LOOP:  cpu time   23.8115: real time   26.7571

 eigenvalue-minimisations  :  3768
 total energy-change (2. order) : 0.4017756E-01  (-0.1473546E-01)
 number of electron     766.0000005 magnetization 
 augmentation part      -10.2520027 magnetization 

 Broyden mixing:
  rms(total) = 0.40218E-01    rms(broyden)= 0.40217E-01
  rms(prec ) = 0.58663E-01
  weight for this iteration     100.00

 eigenvalues of (default mixing * dielectric matrix)
  average eigenvalue GAMMA=   1.1830
  2.5280  2.5280  1.0541  1.0541  0.6810  0.2962  0.1395

 Free energy of the ion-electron system (eV)
  ---------------------------------------------------
  alpha Z        PSCENC =       505.22967617
  Ewald energy   TEWEN  =     85514.95735744
  -Hartree energ DENC   =   -100441.15955514
  -exchange      EXHF   =         0.00000000
  -V(xc)+E(xc)   XCENC  =     -6575.40256147
  PAW double counting   =     22208.42791749   -14162.19955879
  entropy T*S    EENTRO =        -0.05533000
  eigenvalues    EBANDS =     -2003.92981785
  atomic energy  EATOM  =     14019.20197576
  Solvation  Ediel_sol  =         0.00000000
  ---------------------------------------------------
  free energy    TOTEN  =      -934.92989638 eV

  energy without entropy =     -934.87456638  energy(sigma->0) =     -934.90223138


--------------------------------------------------------------------------------------------------------




----------------------------------------- Iteration    1(  13)  ---------------------------------------


    POTLOK:  cpu time    0.8095: real time    0.8095
    SETDIJ:  cpu time    0.1079: real time    0.1079
     EDDAV:  cpu time   22.0531: real time   25.0178
       DOS:  cpu time    0.0015: real time    0.0015
    CHARGE:  cpu time    1.6736: real time    1.7056
    MIXING:  cpu time    0.0369: real time    0.0369
    --------------------------------------------
      LOOP:  cpu time   24.6841: real time   27.6819

 eigenvalue-minimisations  :  3984
 total energy-change (2. order) : 0.2339347E-01  (-0.5284356E-02)
 number of electron     766.0000005 magnetization 
 augmentation part      -10.2500225 magnetization 

 Broyden mixing:
  rms(total) = 0.19174E-01    rms(broyden)= 0.19174E-01
  rms(prec ) = 0.32787E-01
  weight for this iteration     100.00

 eigenvalues of (default mixing * dielectric matrix)
  average eigenvalue GAMMA=   1.2547
  2.9660  2.6803  1.1785  1.1785  0.8988  0.6999  0.2962  0.1395

 Free energy of the ion-electron system (eV)
  ---------------------------------------------------
  alpha Z        PSCENC =       505.22967617
  Ewald energy   TEWEN  =     85514.95735744
  -Hartree energ DENC   =   -100480.16488161
  -exchange      EXHF   =         0.00000000
  -V(xc)+E(xc)   XCENC  =     -6574.95711861
  PAW double counting   =     22201.79689050   -14155.67936984
  entropy T*S    EENTRO =        -0.05541758
  eigenvalues    EBANDS =     -1965.23561514
  atomic energy  EATOM  =     14019.20197576
  Solvation  Ediel_sol  =         0.00000000
  ---------------------------------------------------
  free energy    TOTEN  =      -934.90650291 eV

  energy without entropy =     -934.85108533  energy(sigma->0) =     -934.87879412


--------------------------------------------------------------------------------------------------------




----------------------------------------- Iteration    1(  14)  ---------------------------------------


    POTLOK:  cpu time    0.8113: real time    0.8114
    SETDIJ:  cpu time    0.1075: real time    0.1075
     EDDAV:  cpu time   21.5674: real time   24.4388
       DOS:  cpu time    0.0166: real time    0.0166
    CHARGE:  cpu time    1.6760: real time    1.7077
    MIXING:  cpu time    0.0383: real time    0.0383
    --------------------------------------------
      LOOP:  cpu time   24.2189: real time   27.1237

 eigenvalue-minimisations  :  3864
 total energy-change (2. order) :-0.2757428E-03  (-0.2058043E-02)
 number of electron     766.0000005 magnetization 
 augmentation part      -10.2485137 magnetization 

 Broyden mixing:
  rms(total) = 0.14224E-01    rms(broyden)= 0.14224E-01
  rms(prec ) = 0.23361E-01
  weight for this iteration     100.00

 eigenvalues of (default mixing * dielectric matrix)
  average eigenvalue GAMMA=   1.2990
  3.4918  2.5695  1.3361  1.2466  1.2466  0.2962  0.7063  0.6582  0.1395

 Free energy of the ion-electron system (eV)
  ---------------------------------------------------
  alpha Z        PSCENC =       505.22967617
  Ewald energy   TEWEN  =     85514.95735744
  -Hartree energ DENC   =   -100505.76364621
  -exchange      EXHF   =         0.00000000
  -V(xc)+E(xc)   XCENC  =     -6574.70605604
  PAW double counting   =     22197.66524903   -14151.56212171
  entropy T*S    EENTRO =        -0.05550664
  eigenvalues    EBANDS =     -1939.87370645
  atomic energy  EATOM  =     14019.20197576
  Solvation  Ediel_sol  =         0.00000000
  ---------------------------------------------------
  free energy    TOTEN  =      -934.90677865 eV

  energy without entropy =     -934.85127201  energy(sigma->0) =     -934.87902533


--------------------------------------------------------------------------------------------------------




----------------------------------------- Iteration    1(  15)  ---------------------------------------


    POTLOK:  cpu time    0.8166: real time    0.8166
    SETDIJ:  cpu time    0.1086: real time    0.1086
     EDDAV:  cpu time   21.2847: real time   24.2655
       DOS:  cpu time    0.0225: real time    0.0225
    CHARGE:  cpu time    1.6621: real time    1.6943
    MIXING:  cpu time    0.0406: real time    0.0407
    --------------------------------------------
      LOOP:  cpu time   23.9367: real time   26.9508

 eigenvalue-minimisations  :  3828
 total energy-change (2. order) :-0.5973460E-02  (-0.6906549E-03)
 number of electron     766.0000005 magnetization 
 augmentation part      -10.2479006 magnetization 

 Broyden mixing:
  rms(total) = 0.10951E-01    rms(broyden)= 0.10951E-01
  rms(prec ) = 0.16773E-01
  weight for this iteration     100.00

 eigenvalues of (default mixing * dielectric matrix)
  average eigenvalue GAMMA=   1.4084
  4.1905  2.5875  2.3696  1.2256  1.2256  0.2962  0.8302  0.6919  0.1395  0.5278

 Free energy of the ion-electron system (eV)
  ---------------------------------------------------
  alpha Z        PSCENC =       505.22967617
  Ewald energy   TEWEN  =     85514.95735744
  -Hartree energ DENC   =   -100520.38154136
  -exchange      EXHF   =         0.00000000
  -V(xc)+E(xc)   XCENC  =     -6574.59973910
  PAW double counting   =     22195.66889547   -14149.53266649
  entropy T*S    EENTRO =        -0.05557629
  eigenvalues    EBANDS =     -1925.40113371
  atomic energy  EATOM  =     14019.20197576
  Solvation  Ediel_sol  =         0.00000000
  ---------------------------------------------------
  free energy    TOTEN  =      -934.91275211 eV

  energy without entropy =     -934.85717582  energy(sigma->0) =     -934.88496396


--------------------------------------------------------------------------------------------------------




----------------------------------------- Iteration    1(  16)  ---------------------------------------


    POTLOK:  cpu time    0.8225: real time    0.8226
    SETDIJ:  cpu time    0.1076: real time    0.1076
     EDDAV:  cpu time   20.0748: real time   22.7681
       DOS:  cpu time    0.0021: real time    0.0021
    CHARGE:  cpu time    1.6744: real time    1.7069
    MIXING:  cpu time    0.0421: real time    0.0421
    --------------------------------------------
      LOOP:  cpu time   22.7252: real time   25.4523

 eigenvalue-minimisations  :  3504
 total energy-change (2. order) :-0.8631771E-02  (-0.3961435E-03)
 number of electron     766.0000005 magnetization 
 augmentation part      -10.2475477 magnetization 

 Broyden mixing:
  rms(total) = 0.60032E-02    rms(broyden)= 0.60029E-02
  rms(prec ) = 0.91897E-02
  weight for this iteration     100.00

 eigenvalues of (default mixing * dielectric matrix)
  average eigenvalue GAMMA=   1.4936
  5.0650  3.0796  2.4851  1.2184  1.2184  0.9792  0.2962  0.6981  0.7566  0.1395
  0.4940

 Free energy of the ion-electron system (eV)
  ---------------------------------------------------
  alpha Z        PSCENC =       505.22967617
  Ewald energy   TEWEN  =     85514.95735744
  -Hartree energ DENC   =   -100533.60365085
  -exchange      EXHF   =         0.00000000
  -V(xc)+E(xc)   XCENC  =     -6574.55549237
  PAW double counting   =     22191.23479499   -14145.03577261
  entropy T*S    EENTRO =        -0.05563902
  eigenvalues    EBANDS =     -1912.29463340
  atomic energy  EATOM  =     14019.20197576
  Solvation  Ediel_sol  =         0.00000000
  ---------------------------------------------------
  free energy    TOTEN  =      -934.92138388 eV

  energy without entropy =     -934.86574486  energy(sigma->0) =     -934.89356437


--------------------------------------------------------------------------------------------------------




----------------------------------------- Iteration    1(  17)  ---------------------------------------


    POTLOK:  cpu time    0.8243: real time    0.8243
    SETDIJ:  cpu time    0.1070: real time    0.1070
     EDDAV:  cpu time   21.3866: real time   24.2036
       DOS:  cpu time    0.0022: real time    0.0022
    CHARGE:  cpu time    1.6569: real time    1.6891
    MIXING:  cpu time    0.0447: real time    0.0447
    --------------------------------------------
[...]
     11.69112     -8.59029     -8.26601         0.001182      0.000077      0.000025
     11.69112    -17.18057    -13.22561         0.001305     -0.000022     -0.000128
     11.69112    -11.45372     -3.30640         0.001238      0.000005      0.000064
     11.69112    -14.31714     -8.26601         0.001191     -0.000052      0.000083
     13.99306      0.00000      0.00000        -0.000760      0.000041     -0.000008
     13.99306     -2.86343     -4.95960        -0.000923      0.000037      0.000037
     13.99306     -5.72686     -9.91921        -0.000935      0.000015     -0.000097
     13.99306     -5.72686      0.00000        -0.000894      0.000029      0.000007
     13.99306     -8.59029     -4.95960        -0.000529     -0.000038      0.000070
     13.99306    -11.45372     -9.91921        -0.001009      0.000022     -0.000070
     13.99306    -11.45372      0.00000        -0.000830     -0.000044     -0.000020
     13.99306    -14.31714     -4.95960        -0.000854     -0.000015      0.000091
     13.99306    -17.18057     -9.91921        -0.000935     -0.000044     -0.000069
     16.34180     -2.86343     -1.65320        -0.000620      0.000027      0.000107
     16.34180     -5.72686     -6.61281        -0.000777      0.000064     -0.000072
     16.34180     -8.59029    -11.57241        -0.000558      0.000024      0.000002
     16.34180     -8.59029     -1.65320        -0.000537     -0.000040      0.000070
     16.34180    -11.45372     -6.61281         0.000458     -0.000244      0.000001
     16.34180    -14.31714    -11.57241        -0.000717      0.000031     -0.000061
     16.34180    -14.31714     -1.65320        -0.000480      0.000021      0.000079
     16.34180    -17.18057     -6.61281        -0.000702      0.000035      0.000030
     16.34180    -20.04400    -11.57241        -0.000622     -0.000056     -0.000081
      2.36204     -7.15857     -4.13300        -0.000133      0.000084      0.000082
      2.36204    -10.02200     -9.09261        -0.000129      0.000000     -0.000183
      2.36204    -12.88543    -14.05221        -0.000067      0.000060     -0.000055
      2.36204    -12.88543     -4.13300        -0.000133     -0.000084      0.000082
      2.36204    -15.74886     -9.09261        -0.000213      0.000045      0.000055
      2.36204    -18.61229    -14.05221        -0.000175      0.000000     -0.000124
      2.36204    -18.61229     -4.13300        -0.000009      0.000000      0.000040
      2.36204    -21.47572     -9.09261        -0.000213     -0.000045      0.000055
      2.36204    -24.33915    -14.05221        -0.000067     -0.000060     -0.000055
      4.71078    -10.02200     -5.78621        -0.000769      0.000000      0.000127
      4.71078    -12.88543    -10.74581        -0.001154     -0.000039     -0.000020
      4.71078     -7.15857     -0.82660        -0.000997     -0.000067      0.000059
      4.71078    -15.74886     -5.78621        -0.001062      0.000005     -0.000026
      4.71078    -18.61229    -10.74581        -0.001049      0.000000     -0.000038
      4.71078    -12.88543     -0.82660        -0.000997      0.000067      0.000059
      4.71078     -4.29514     -5.78621        -0.001062     -0.000005     -0.000026
      4.71078     -7.15857    -10.74581        -0.001154      0.000039     -0.000020
      4.71078     -1.43171     -0.82660        -0.000902      0.000000      0.000047
      7.01272    -12.88543     -7.43941         0.001036     -0.000158     -0.000007
      7.01272    -15.74886    -12.39901         0.000828     -0.000041     -0.000056
      7.01272    -10.02200     -2.47980         0.000969      0.000000      0.000225
      7.01272    -18.61229     -7.43941         0.000965      0.000000      0.000020
      7.01272    -21.47572    -12.39901         0.000828      0.000041     -0.000056
      7.01272    -15.74886     -2.47980         0.000844     -0.000022      0.000077
      7.01272     -7.15857     -7.43941         0.001036      0.000158     -0.000007
      7.01272    -10.02200    -12.39901         0.000949      0.000000     -0.000156
      7.01272     -4.29514     -2.47980         0.000844      0.000022      0.000077
      9.35192    -15.74886     -9.09261         0.001074      0.000025      0.000064
      9.35192    -18.61229    -14.05221         0.000931      0.000000     -0.000083
      9.35192    -12.88543     -4.13300         0.001089     -0.000074     -0.000016
      9.35192    -21.47572     -9.09261         0.001074     -0.000025      0.000064
      9.35192    -24.33915    -14.05221         0.000975     -0.000022     -0.000064
      9.35192    -18.61229     -4.13300         0.001039      0.000000      0.000001
      9.35192    -10.02200     -9.09261         0.001060      0.000000     -0.000006
      9.35192    -12.88543    -14.05221         0.000975      0.000022     -0.000064
      9.35192     -7.15857     -4.13300         0.001089      0.000074     -0.000016
     11.69112    -18.61229    -10.74581         0.001382      0.000000     -0.000004
     11.69112    -12.88543     -0.82660         0.001240      0.000096      0.000046
     11.69112    -15.74886     -5.78621         0.001277      0.000040     -0.000085
     11.69112     -7.15857    -10.74581         0.001291     -0.000000      0.000002
     11.69112     -1.43171     -0.82660         0.001211      0.000000      0.000087
     11.69112     -4.29514     -5.78621         0.001277     -0.000040     -0.000085
     11.69112    -12.88543    -10.74581         0.001291      0.000000      0.000002
     11.69112     -7.15857     -0.82660         0.001240     -0.000096      0.000046
     11.69112    -10.02200     -5.78621         0.001275      0.000000      0.000068
     13.99306    -21.47572    -12.39901        -0.000932     -0.000036      0.000031
     13.99306    -15.74886     -2.47980        -0.000955      0.000054     -0.000042
     13.99306    -18.61229     -7.43941        -0.000857      0.000000      0.000038
     13.99306    -10.02200    -12.39901        -0.001012      0.000000      0.000117
     13.99306     -4.29514     -2.47980        -0.000955     -0.000054     -0.000042
     13.99306     -7.15857     -7.43941        -0.000529     -0.000014     -0.000006
     13.99306    -15.74886    -12.39901        -0.000932      0.000036      0.000031
     13.99306    -10.02200     -2.47980        -0.001084      0.000000     -0.000035
     13.99306    -12.88543     -7.43941        -0.000529      0.000014     -0.000006
     16.34180    -24.33915    -14.05221        -0.000688     -0.000044      0.000005
     16.34180    -18.61229     -4.13300        -0.000757      0.000000     -0.000059
     16.34180    -21.47572     -9.09261        -0.000656     -0.000016      0.000074
     16.34180    -12.88543    -14.05221        -0.000688      0.000044      0.000005
     16.34180     -7.15857     -4.13300        -0.000422     -0.000168     -0.000033
     16.34180    -10.02200     -9.09261         0.000791      0.000000      0.000022
     16.34180    -18.61229    -14.05221        -0.000718      0.000000     -0.000107
     16.34180    -12.88543     -4.13300        -0.000422      0.000168     -0.000033
     16.34180    -15.74886     -9.09261        -0.000656      0.000016      0.000074
      2.36204     -8.59029     -6.61281         0.000292      0.000288     -0.000083
      2.36204    -11.45372    -11.57241        -0.000216      0.000053     -0.000008
      2.36204     -5.72686     -1.65320        -0.000253     -0.000032      0.000017
      2.36204    -14.31714     -6.61281        -0.000102     -0.000099     -0.000047
      2.36204    -17.18057    -11.57241        -0.000135     -0.000035      0.000015
      2.36204    -11.45372     -1.65320        -0.000273      0.000046      0.000109
      2.36204    -20.04400     -6.61281        -0.000093     -0.000065     -0.000073
      2.36204    -22.90743    -11.57241        -0.000101     -0.000027      0.000095
      2.36204    -17.18057     -1.65320        -0.000155     -0.000016      0.000064
      4.71078    -11.45372     -8.26601        -0.000849     -0.000071     -0.000021
      4.71078    -14.31714    -13.22561        -0.001106      0.000008      0.000004
      4.71078     -8.59029     -3.30640        -0.001112     -0.000043      0.000070
      4.71078    -17.18057     -8.26601        -0.000981      0.000042      0.000063
      4.71078    -20.04400    -13.22561        -0.001026      0.000018     -0.000078
      4.71078    -14.31714     -3.30640        -0.001097     -0.000016     -0.000042
      4.71078     -5.72686     -8.26601        -0.000961      0.000026     -0.000001
      4.71078     -8.59029    -13.22561        -0.001061     -0.000035     -0.000003
      4.71078     -2.86343     -3.30640        -0.001113      0.000032     -0.000026
      7.01272    -14.31714     -9.91921         0.000952     -0.000021      0.000144
      7.01272     -8.59029      0.00000         0.001003     -0.000116     -0.000032
      7.01272    -11.45372     -4.95960         0.000805     -0.000043     -0.000053
      7.01272    -20.04400     -9.91921         0.000830     -0.000091      0.000099
      7.01272    -14.31714      0.00000         0.000955     -0.000014     -0.000030
      7.01272    -17.18057     -4.95960         0.000844      0.000044     -0.000096
      7.01272     -8.59029     -9.91921         0.000859      0.000041      0.000020
      7.01272     -2.86343      0.00000         0.001037      0.000083      0.000034
      7.01272     -5.72686     -4.95960         0.000962      0.000041     -0.000169
      9.35192    -17.18057    -11.57241         0.001112     -0.000021     -0.000007
      9.35192    -11.45372     -1.65320         0.001150      0.000043      0.000061
      9.35192    -14.31714     -6.61281         0.000930     -0.000010     -0.000005
      9.35192    -22.90743    -11.57241         0.001082     -0.000007      0.000052
      9.35192    -17.18057     -1.65320         0.001033     -0.000019      0.000069
      9.35192    -20.04400     -6.61281         0.000981     -0.000036     -0.000053
      9.35192    -11.45372    -11.57241         0.001202      0.000062     -0.000023
      9.35192     -5.72686     -1.65320         0.001187      0.000004      0.000046
      9.35192     -8.59029     -6.61281         0.000778      0.000032     -0.000035
     11.69112    -20.04400    -13.22561         0.001305      0.000022     -0.000128
     11.69112    -14.31714     -3.30640         0.001368     -0.000011     -0.000023
     11.69112    -17.18057     -8.26601         0.001273      0.000079      0.000082
     11.69112     -8.59029    -13.22561         0.001303     -0.000034     -0.000069
     11.69112     -2.86343     -3.30640         0.001372      0.000037      0.000001
     11.69112     -5.72686     -8.26601         0.001191      0.000052      0.000083
     11.69112    -14.31714    -13.22561         0.001340      0.000002     -0.000036
     11.69112     -8.59029     -3.30640         0.001238     -0.000005      0.000064
     11.69112    -11.45372     -8.26601         0.001182     -0.000077      0.000025
     13.99306    -14.31714      0.00000        -0.000894     -0.000029      0.000007
     13.99306    -17.18057     -4.95960        -0.000923     -0.000037      0.000037
     13.99306    -20.04400     -9.91921        -0.000935      0.000044     -0.000069
     13.99306     -2.86343      0.00000        -0.000760     -0.000041     -0.000008
     13.99306     -5.72686     -4.95960        -0.000854      0.000015      0.000091
     13.99306     -8.59029     -9.91921        -0.001009     -0.000022     -0.000070
     13.99306     -8.59029      0.00000        -0.000830      0.000044     -0.000020
     13.99306    -11.45372     -4.95960        -0.000529      0.000038      0.000070
     13.99306    -14.31714     -9.91921        -0.000935     -0.000015     -0.000097
     16.34180    -17.18057     -1.65320        -0.000620     -0.000027      0.000107
     16.34180    -20.04400     -6.61281        -0.000702     -0.000035      0.000030
     16.34180    -22.90743    -11.57241        -0.000717     -0.000031     -0.000061
     16.34180     -5.72686     -1.65320        -0.000480     -0.000021      0.000079
     16.34180     -8.59029     -6.61281         0.000458      0.000244      0.000001
     16.34180    -11.45372    -11.57241        -0.000558     -0.000024      0.000002
     16.34180    -11.45372     -1.65320        -0.000537      0.000040      0.000070
     16.34180    -14.31714     -6.61281        -0.000777     -0.000064     -0.000072
     16.34180    -17.18057    -11.57241        -0.000622      0.000056     -0.000081
      2.36204    -10.02200     -4.13300         0.000042      0.000000      0.000276
      2.36204    -12.88543     -9.09261        -0.000193     -0.000074     -0.000034
      2.36204    -15.74886    -14.05221        -0.000077     -0.000077     -0.000126
      2.36204    -15.74886     -4.13300        -0.000152      0.000079     -0.000015
      2.36204    -18.61229     -9.09261        -0.000182      0.000000      0.000023
      2.36204    -21.47572    -14.05221        -0.000077      0.000077     -0.000126
      2.36204     -4.29514     -4.13300        -0.000152     -0.000079     -0.000015
      2.36204     -7.15857     -9.09261        -0.000193      0.000074     -0.000034
      2.36204    -10.02200    -14.05221        -0.000154      0.000000      0.000001
      4.71078    -12.88543     -5.78621        -0.000976     -0.000095     -0.000000
      4.71078    -15.74886    -10.74581        -0.001120      0.000056      0.000015
      4.71078    -10.02200     -0.82660        -0.000988      0.000000      0.000020
      4.71078    -18.61229     -5.78621        -0.001132      0.000000     -0.000009
      4.71078    -21.47572    -10.74581        -0.001120     -0.000056      0.000015
      4.71078    -15.74886     -0.82660        -0.000962      0.000001      0.000061
      4.71078     -7.15857     -5.78621        -0.000976      0.000095     -0.000000
      4.71078    -10.02200    -10.74581        -0.001119      0.000000     -0.000105
      4.71078     -4.29514     -0.82660        -0.000962     -0.000001      0.000061
      7.01272    -15.74886     -7.43941         0.001039      0.000106      0.000010
      7.01272    -18.61229    -12.39901         0.000946      0.000000     -0.000182
      7.01272    -12.88543     -2.47980         0.000845      0.000054      0.000091
      7.01272    -21.47571     -7.43941         0.001039     -0.000106      0.000010
      7.01272    -24.33914    -12.39901         0.000815     -0.000088     -0.000054
      7.01272    -18.61228     -2.47980         0.000961      0.000000      0.000134
      7.01272    -10.02200     -7.43941         0.000888      0.000000     -0.000107
      7.01272    -12.88543    -12.39901         0.000815      0.000088     -0.000054
      7.01272     -7.15857     -2.47980         0.000845     -0.000054      0.000091
      9.35192    -18.61229     -9.09261         0.001193      0.000000      0.000075
      9.35192    -21.47572    -14.05221         0.000989      0.000046     -0.000102
      9.35192    -15.74886     -4.13300         0.001109      0.000041     -0.000035
      9.35192     -7.15857     -9.09261         0.001062      0.000018      0.000048
      9.35192    -10.02200    -14.05221         0.000922      0.000000     -0.000015
      9.35192     -4.29514     -4.13300         0.001109     -0.000041     -0.000035
      9.35192    -12.88543     -9.09261         0.001062     -0.000018      0.000048
      9.35192    -15.74886    -14.05221         0.000989     -0.000046     -0.000102
      9.35192    -10.02200     -4.13300         0.000941      0.000000      0.000052
     11.69112    -21.47572    -10.74581         0.001384     -0.000046      0.000035
     11.69112    -15.74886     -0.82660         0.001257     -0.000049      0.000079
     11.69112    -18.61229     -5.78621         0.001328      0.000000     -0.000026
     11.69112    -10.02200    -10.74581         0.001297      0.000000     -0.000052
     11.69112     -4.29514     -0.82660         0.001257      0.000049      0.000079
     11.69112     -7.15857     -5.78621         0.001243      0.000051     -0.000061
     11.69112    -15.74886    -10.74581         0.001384      0.000046      0.000035
     11.69112    -10.02200     -0.82660         0.001222      0.000000      0.000058
     11.69112    -12.88543     -5.78621         0.001243     -0.000051     -0.000061
     13.99306    -24.33914    -12.39901        -0.001015      0.000005      0.000045
     13.99306    -18.61228     -2.47980        -0.000896      0.000000     -0.000072
     13.99306    -21.47571     -7.43941        -0.000734      0.000037      0.000027
     13.99306    -12.88543    -12.39901        -0.001015     -0.000005      0.000045
     13.99306     -7.15857     -2.47980        -0.001061      0.000028     -0.000019
     13.99306    -10.02200     -7.43941        -0.000361      0.000000     -0.000028
     13.99306    -18.61229    -12.39901        -0.000898      0.000000      0.000089
     13.99306    -12.88543     -2.47980        -0.001061     -0.000028     -0.000019
     13.99306    -15.74886     -7.43941        -0.000734     -0.000037      0.000027
     16.34180    -10.02200    -14.05221        -0.000729      0.000000     -0.000052
     16.34180     -4.29514     -4.13300        -0.000664      0.000019     -0.000075
     16.34180     -7.15857     -9.09261        -0.000416      0.000011      0.000047
     16.34180    -15.74886    -14.05221        -0.000684     -0.000041      0.000013
     16.34180    -10.02200     -4.13300         0.000577      0.000000      0.000027
     16.34180    -12.88543     -9.09261        -0.000416     -0.000011      0.000047
     16.34180    -21.47572    -14.05221        -0.000684      0.000041      0.000013
     16.34180    -15.74886     -4.13300        -0.000664     -0.000019     -0.000075
     16.34180    -18.61229     -9.09261        -0.000525      0.000000      0.000026
     22.04000    -10.02200     -7.24000        -0.012802     -0.000000     11.221995
     22.04000    -10.02200     -5.98600        -0.014133     -0.000000    -11.222380
 -----------------------------------------------------------------------------------
    total drift:                                0.082327      0.000212     -0.000339


--------------------------------------------------------------------------------------------------------



  FREE ENERGIE OF THE ION-ELECTRON SYSTEM (eV)
  ---------------------------------------------------
  free  energy   TOTEN  =      -934.93449043 eV

  energy  without entropy=     -934.87881255  energy(sigma->0) =     -934.90665149
 


--------------------------------------------------------------------------------------------------------


    POTLOK:  cpu time    0.9382: real time    0.9485


--------------------------------------------------------------------------------------------------------


     LOOP+:  cpu time  622.5155: real time  699.6432
    4ORBIT:  cpu time    0.0000: real time    0.0000

 total amount of memory used by VASP MPI-rank0   652168. kBytes
=======================================================================

   base      :      30000. kBytes
   nonlr-proj:      89947. kBytes
   fftplans  :      40601. kBytes
   grid      :      95147. kBytes
   one-center:       3950. kBytes
   wavefun   :     392523. kBytes
 
  
  
 General timing and accounting informations for this job:
 ========================================================
  
                  Total CPU time used (sec):      639.057
                            User time (sec):      109.336
                          System time (sec):      529.721
                         Elapsed time (sec):      719.324
  
                   Maximum memory used (kb):     1000540.
                   Average memory used (kb):           0.
  
                          Minor page faults:     24100675
                          Major page faults:           38
                 Voluntary context switches:        16707
