 254 254   0   0
  0.3019211E+02  0.1718057E-08  0.1718057E-08  0.3000000E-08  0.5000000E-15
  1.000000000000000E-004
  CAR 
 NiAl                                    
      5.00955751    -15.29659291  301      1.72242440      1.00000000
    -15.297  0.0000E+00  0.0000E+00
    -15.229  0.0000E+00  0.0000E+00
    -15.161  0.0000E+00  0.0000E+00
    -15.094  0.0000E+00  0.0000E+00
    -15.026  0.0000E+00  0.0000E+00
    -14.958  0.0000E+00  0.0000E+00
    -14.890  0.0000E+00  0.0000E+00
    -14.823  0.0000E+00  0.0000E+00
    -14.755  0.0000E+00  0.0000E+00
    -14.687  0.0000E+00  0.0000E+00
    -14.620  0.4935E-10  0.3340E-11
    -14.552  0.6591E-05  0.4461E-06
    -14.484  0.2550E-01  0.1726E-02
    -14.417  0.3266E+01  0.2228E+00
    -14.349  0.1906E+02  0.1513E+01
    -14.281  0.7059E+01  0.1991E+01
    -14.214  0.1338E+00  0.2000E+01
    -14.146  0.8953E-04  0.2000E+01
    -14.078  0.1780E-08  0.2000E+01
    -14.011  0.0000E+00  0.2000E+01
    -13.943  0.0000E+00  0.2000E+01
    -13.875  0.0000E+00  0.2000E+01
    -13.807  0.0000E+00  0.2000E+01
    -13.740  0.0000E+00  0.2000E+01
    -13.672  0.0000E+00  0.2000E+01
    -13.604  0.0000E+00  0.2000E+01
    -13.537  0.0000E+00  0.2000E+01
    -13.469  0.0000E+00  0.2000E+01
    -13.401  0.0000E+00  0.2000E+01
    -13.334  0.0000E+00  0.2000E+01
    -13.266  0.0000E+00  0.2000E+01
    -13.198  0.0000E+00  0.2000E+01
    -13.131  0.0000E+00  0.2000E+01
    -13.063  0.0000E+00  0.2000E+01
    -12.995  0.0000E+00  0.2000E+01
    -12.928  0.0000E+00  0.2000E+01
    -12.860  0.0000E+00  0.2000E+01
    -12.792  0.0000E+00  0.2000E+01
    -12.724  0.0000E+00  0.2000E+01
    -12.657  0.0000E+00  0.2000E+01
    -12.589  0.0000E+00  0.2000E+01
    -12.521  0.0000E+00  0.2000E+01
    -12.454  0.0000E+00  0.2000E+01
    -12.386  0.0000E+00  0.2000E+01
    -12.318  0.0000E+00  0.2000E+01
    -12.251  0.0000E+00  0.2000E+01
    -12.183  0.0000E+00  0.2000E+01
    -12.115  0.0000E+00  0.2000E+01
    -12.048  0.0000E+00  0.2000E+01
    -11.980  0.0000E+00  0.2000E+01
    -11.912  0.0000E+00  0.2000E+01
    -11.845  0.0000E+00  0.2000E+01
    -11.777  0.0000E+00  0.2000E+01
    -11.709  0.0000E+00  0.2000E+01
    -11.641  0.0000E+00  0.2000E+01
    -11.574  0.0000E+00  0.2000E+01
    -11.506  0.0000E+00  0.2000E+01
    -11.438  0.0000E+00  0.2000E+01
    -11.371  0.0000E+00  0.2000E+01
    -11.303  0.0000E+00  0.2000E+01
    -11.235  0.0000E+00  0.2000E+01
    -11.168  0.0000E+00  0.2000E+01
    -11.100  0.0000E+00  0.2000E+01
    -11.032  0.0000E+00  0.2000E+01
    -10.965  0.0000E+00  0.2000E+01
    -10.897  0.0000E+00  0.2000E+01
    -10.829  0.0000E+00  0.2000E+01
    -10.762  0.0000E+00  0.2000E+01
    -10.694  0.0000E+00  0.2000E+01
    -10.626  0.0000E+00  0.2000E+01
    -10.558  0.0000E+00  0.2000E+01
    -10.491  0.0000E+00  0.2000E+01
    -10.423  0.0000E+00  0.2000E+01
    -10.355  0.0000E+00  0.2000E+01
    -10.288  0.0000E+00  0.2000E+01
    -10.220  0.0000E+00  0.2000E+01
    -10.152  0.0000E+00  0.2000E+01
    -10.085  0.0000E+00  0.2000E+01
    -10.017  0.0000E+00  0.2000E+01
     -9.949  0.0000E+00  0.2000E+01
     -9.882  0.0000E+00  0.2000E+01
     -9.814  0.0000E+00  0.2000E+01
     -9.746  0.0000E+00  0.2000E+01
     -9.679  0.0000E+00  0.2000E+01
     -9.611  0.0000E+00  0.2000E+01
     -9.543  0.5381E-10  0.2000E+01
     -9.475  0.7025E-05  0.2000E+01
     -9.408  0.2658E-01  0.2002E+01
     -9.340  0.3334E+01  0.2227E+01
     -9.272  0.1919E+02  0.3527E+01
     -9.205  0.9551E+01  0.4173E+01
     -9.137  0.4431E+01  0.4473E+01
     -9.069  0.5158E+01  0.4822E+01
     -9.002  0.2848E+02  0.6750E+01
     -8.934  0.1090E+02  0.7487E+01
     -8.866  0.1750E+01  0.7606E+01
     -8.799  0.4909E+01  0.7938E+01
     -8.731  0.9032E+01  0.8549E+01
     -8.663  0.5330E+02  0.1216E+02
     -8.596  0.2747E+02  0.1402E+02
     -8.528  0.2097E+02  0.1544E+02
     -8.460  0.2173E+02  0.1691E+02
     -8.393  0.4252E+01  0.1719E+02
     -8.325  0.2617E+02  0.1897E+02
     -8.257  0.1533E+02  0.2000E+02
     -8.189  0.1727E+02  0.2117E+02
     -8.122  0.3122E+02  0.2329E+02
     -8.054  0.2997E+02  0.2531E+02
     -7.986  0.8678E+02  0.3119E+02
     -7.919  0.1916E+02  0.3249E+02
     -7.851  0.2165E+00  0.3250E+02
     -7.783  0.5575E+00  0.3254E+02
     -7.716  0.3310E+02  0.3478E+02
     -7.648  0.1147E+03  0.4254E+02
     -7.580  0.3042E+02  0.4460E+02
     -7.513  0.2408E+02  0.4623E+02
     -7.445  0.1811E+02  0.4746E+02
     -7.377  0.1119E+02  0.4822E+02
     -7.310  0.3392E+02  0.5051E+02
     -7.242  0.1661E+02  0.5164E+02
     -7.174  0.5652E+02  0.5546E+02
     -7.106  0.2542E+02  0.5718E+02
     -7.039  0.7085E+02  0.6198E+02
     -6.971  0.9534E+02  0.6843E+02
     -6.903  0.1725E+02  0.6960E+02
     -6.836  0.5586E+02  0.7338E+02
     -6.768  0.2640E+02  0.7517E+02
     -6.700  0.7072E+02  0.7995E+02
     -6.633  0.9610E+02  0.8646E+02
     -6.565  0.2052E+02  0.8785E+02
     -6.497  0.2780E+02  0.8973E+02
     -6.430  0.3961E+01  0.9000E+02
     -6.362  0.9499E+00  0.9006E+02
     -6.294  0.5731E+01  0.9045E+02
     -6.227  0.4669E+02  0.9361E+02
     -6.159  0.1337E+03  0.1027E+03
     -6.091  0.5963E+02  0.1067E+03
     -6.023  0.1135E+03  0.1144E+03
     -5.956  0.4569E+02  0.1175E+03
     -5.888  0.1995E+02  0.1188E+03
     -5.820  0.4956E+02  0.1222E+03
     -5.753  0.4842E+02  0.1255E+03
     -5.685  0.1269E+03  0.1340E+03
     -5.617  0.6268E+02  0.1383E+03
     -5.550  0.2547E+02  0.1400E+03
     -5.482  0.2115E+02  0.1414E+03
     -5.414  0.2664E+02  0.1432E+03
     -5.347  0.8737E+02  0.1492E+03
     -5.279  0.2578E+02  0.1509E+03
     -5.211  0.6730E+02  0.1555E+03
     -5.144  0.8971E+02  0.1615E+03
     -5.076  0.6791E+02  0.1661E+03
     -5.008  0.7707E+02  0.1713E+03
     -4.940  0.1013E+02  0.1720E+03
     -4.873  0.2533E+02  0.1737E+03
     -4.805  0.6296E+02  0.1780E+03
     -4.737  0.1169E+03  0.1859E+03
     -4.670  0.1001E+03  0.1927E+03
     -4.602  0.3833E+02  0.1953E+03
     -4.534  0.6962E+02  0.2000E+03
     -4.467  0.3023E+02  0.2021E+03
     -4.399  0.4189E+02  0.2049E+03
     -4.331  0.7746E+02  0.2101E+03
     -4.264  0.8086E+02  0.2156E+03
     -4.196  0.1513E+03  0.2258E+03
     -4.128  0.7622E+02  0.2310E+03
     -4.061  0.8686E+02  0.2369E+03
     -3.993  0.2039E+02  0.2383E+03
     -3.925  0.5765E+02  0.2422E+03
     -3.857  0.9287E+02  0.2485E+03
     -3.790  0.5857E+02  0.2524E+03
     -3.722  0.1057E+03  0.2596E+03
     -3.654  0.4409E+02  0.2626E+03
     -3.587  0.6781E+02  0.2671E+03
     -3.519  0.5352E+02  0.2708E+03
     -3.451  0.1040E+02  0.2715E+03
     -3.384  0.7062E+01  0.2719E+03
     -3.316  0.5842E+02  0.2759E+03
     -3.248  0.9784E+02  0.2825E+03
     -3.181  0.7578E+02  0.2877E+03
     -3.113  0.1251E+03  0.2961E+03
     -3.045  0.8323E+02  0.3018E+03
     -2.978  0.8312E+02  0.3074E+03
     -2.910  0.1547E+03  0.3178E+03
     -2.842  0.1578E+03  0.3285E+03
     -2.774  0.1867E+03  0.3412E+03
     -2.707  0.3409E+02  0.3435E+03
     -2.639  0.3684E+00  0.3435E+03
     -2.571  0.3205E+01  0.3437E+03
     -2.504  0.3380E+02  0.3460E+03
     -2.436  0.7161E+02  0.3509E+03
     -2.368  0.1197E+03  0.3590E+03
     -2.301  0.1325E+03  0.3679E+03
     -2.233  0.4931E+02  0.3713E+03
     -2.165  0.1090E+03  0.3786E+03
     -2.098  0.7117E+02  0.3835E+03
     -2.030  0.5648E+02  0.3873E+03
     -1.962  0.9185E+02  0.3935E+03
     -1.895  0.1031E+03  0.4005E+03
     -1.827  0.1746E+03  0.4123E+03
     -1.759  0.8131E+02  0.4178E+03
     -1.691  0.2354E+02  0.4194E+03
     -1.624  0.7035E+02  0.4241E+03
     -1.556  0.8567E+02  0.4299E+03
     -1.488  0.4910E+02  0.4333E+03
     -1.421  0.1279E+03  0.4419E+03
     -1.353  0.1991E+03  0.4554E+03
     -1.285  0.8311E+02  0.4610E+03
     -1.218  0.1699E+03  0.4725E+03
     -1.150  0.7385E+02  0.4775E+03
     -1.082  0.7460E+02  0.4826E+03
     -1.015  0.7086E+02  0.4874E+03
     -0.947  0.1090E+03  0.4947E+03
     -0.879  0.1495E+03  0.5049E+03
     -0.812  0.7050E+02  0.5096E+03
     -0.744  0.6917E+02  0.5143E+03
     -0.676  0.3387E+02  0.5166E+03
     -0.608  0.4581E+02  0.5197E+03
     -0.541  0.1177E+03  0.5277E+03
     -0.473  0.2338E+03  0.5435E+03
     -0.405  0.1177E+03  0.5515E+03
     -0.338  0.8123E+02  0.5570E+03
     -0.270  0.1659E+03  0.5682E+03
     -0.202  0.5117E+02  0.5717E+03
     -0.135  0.4513E+02  0.5747E+03
     -0.067  0.2371E+02  0.5763E+03
      0.001  0.1135E+03  0.5840E+03
      0.068  0.9561E+02  0.5905E+03
      0.136  0.7594E+02  0.5956E+03
      0.204  0.1025E+03  0.6026E+03
      0.271  0.7536E+02  0.6077E+03
      0.339  0.6687E+02  0.6122E+03
      0.407  0.1374E+03  0.6215E+03
      0.475  0.1367E+03  0.6307E+03
      0.542  0.6314E+02  0.6350E+03
      0.610  0.6822E+02  0.6396E+03
      0.678  0.3094E+02  0.6417E+03
      0.745  0.4923E+02  0.6450E+03
      0.813  0.6369E+02  0.6494E+03
      0.881  0.1612E+03  0.6603E+03
      0.948  0.2865E+03  0.6797E+03
      1.016  0.1375E+03  0.6890E+03
      1.084  0.1078E+03  0.6963E+03
      1.151  0.7510E+02  0.7014E+03
      1.219  0.7532E+02  0.7064E+03
      1.287  0.5956E+02  0.7105E+03
      1.354  0.8915E+02  0.7165E+03
      1.422  0.8986E+02  0.7226E+03
      1.490  0.1426E+03  0.7322E+03
      1.558  0.1659E+03  0.7435E+03
      1.625  0.1927E+03  0.7565E+03
      1.693  0.1075E+03  0.7638E+03
      1.761  0.6375E+02  0.7681E+03
      1.828  0.6525E+02  0.7725E+03
      1.896  0.1464E+03  0.7824E+03
      1.964  0.1867E+03  0.7951E+03
      2.031  0.7670E+02  0.8003E+03
      2.099  0.7148E+02  0.8051E+03
      2.167  0.8522E+02  0.8109E+03
      2.234  0.5187E+02  0.8144E+03
      2.302  0.6091E+02  0.8185E+03
      2.370  0.1320E+03  0.8274E+03
      2.437  0.8852E+02  0.8334E+03
      2.505  0.9355E+02  0.8398E+03
      2.573  0.1575E+03  0.8504E+03
      2.641  0.8295E+02  0.8560E+03
      2.708  0.6745E+02  0.8606E+03
      2.776  0.7456E+02  0.8656E+03
      2.844  0.2109E+03  0.8799E+03
      2.911  0.3327E+03  0.9024E+03
      2.979  0.1793E+03  0.9146E+03
      3.047  0.6391E+02  0.9189E+03
      3.114  0.4122E+02  0.9217E+03
      3.182  0.9756E+02  0.9283E+03
      3.250  0.1141E+03  0.9360E+03
      3.317  0.1303E+03  0.9448E+03
      3.385  0.1714E+03  0.9564E+03
      3.453  0.1047E+03  0.9635E+03
      3.520  0.6810E+02  0.9681E+03
      3.588  0.8804E+02  0.9741E+03
      3.656  0.1156E+03  0.9819E+03
      3.724  0.8007E+02  0.9873E+03
      3.791  0.6236E+02  0.9916E+03
      3.859  0.1393E+03  0.1001E+04
      3.927  0.1876E+03  0.1014E+04
      3.994  0.1536E+03  0.1024E+04
      4.062  0.8205E+02  0.1030E+04
      4.130  0.3199E+02  0.1032E+04
      4.197  0.2830E+01  0.1032E+04
      4.265  0.1663E-01  0.1032E+04
      4.333  0.3757E-05  0.1032E+04
      4.400  0.2600E-10  0.1032E+04
      4.468  0.0000E+00  0.1032E+04
      4.536  0.0000E+00  0.1032E+04
      4.603  0.0000E+00  0.1032E+04
      4.671  0.0000E+00  0.1032E+04
      4.739  0.0000E+00  0.1032E+04
      4.806  0.0000E+00  0.1032E+04
      4.874  0.0000E+00  0.1032E+04
      4.942  0.0000E+00  0.1032E+04
      5.010  0.0000E+00  0.1032E+04
