       N       E                     dE             d eps       ncg     rms          rms(c)
DAV:   1     0.211768326858E+04    0.21177E+04   -0.18383E+05  3120   0.734E+02
DAV:   2    -0.739710704750E+03   -0.28574E+04   -0.26944E+04  4200   0.192E+02
DAV:   3    -0.946649764411E+03   -0.20694E+03   -0.19514E+03  4224   0.399E+01
DAV:   4    -0.956327220298E+03   -0.96775E+01   -0.94978E+01  4452   0.903E+00
DAV:   5    -0.956822148781E+03   -0.49493E+00   -0.49286E+00  5304   0.209E+00    0.180E+01
DAV:   6    -0.973614283109E+03   -0.16792E+02   -0.19066E+02  4596   0.161E+01    0.210E+01
DAV:   7    -0.931792702178E+03    0.41822E+02   -0.14962E+02  3936   0.152E+01    0.974E+00
DAV:   8    -0.933919528904E+03   -0.21268E+01   -0.42886E+01  4044   0.602E+00    0.597E+00
DAV:   9    -0.935983659264E+03   -0.20641E+01   -0.35882E+00  4092   0.713E+00    0.612E+00
DAV:  10    -0.929585752673E+03    0.63979E+01   -0.49658E+00  4248   0.476E+00    0.126E+00
DAV:  11    -0.929535612516E+03    0.50140E-01   -0.23472E+00  3840   0.158E+00    0.457E+00
DAV:  12    -0.929546938227E+03   -0.11326E-01   -0.23577E+00  3948   0.593E-01    0.119E+00
DAV:  13    -0.929726925630E+03   -0.17999E+00   -0.97654E-02  3792   0.278E-01    0.141E+01
DAV:  14    -0.929325856556E+03    0.40107E+00   -0.37098E+00  3816   0.255E-01    0.152E+00
DAV:  15    -0.929477542989E+03   -0.15169E+00   -0.46721E-02  3564   0.195E-01    0.111E+00
DAV:  16    -0.929494867453E+03   -0.17324E-01   -0.14250E-02  3924   0.130E-01    0.110E+00
DAV:  17    -0.929482602166E+03    0.12265E-01   -0.11020E-02  3420   0.105E-01    0.101E+00
DAV:  18    -0.929471324465E+03    0.11278E-01   -0.13567E-02  3480   0.872E-02    0.536E-01
DAV:  19    -0.929479785896E+03   -0.84614E-02   -0.20115E-03  3924   0.519E-02    0.763E-01
DAV:  20    -0.929481459084E+03   -0.16732E-02   -0.11427E-03  3360   0.319E-02    0.121E-01
DAV:  21    -0.929488711501E+03   -0.72524E-02   -0.86407E-04  3456   0.280E-02    0.745E-01
DAV:  22    -0.929487297954E+03    0.14135E-02   -0.28419E-04  3744   0.178E-02    0.670E-01
DAV:  23    -0.929487130570E+03    0.16738E-03   -0.27601E-04  3336   0.103E-02    0.260E-01
DAV:  24    -0.929490182289E+03   -0.30517E-02   -0.20656E-04  3264   0.128E-02    0.217E-01
DAV:  25    -0.929490149705E+03    0.32583E-04   -0.57178E-05  3144   0.581E-03    0.384E-02
DAV:  26    -0.929491400961E+03   -0.12513E-02   -0.42720E-05  2808   0.516E-03    0.859E-02
DAV:  27    -0.929492034856E+03   -0.63390E-03   -0.31418E-05  2748   0.347E-03    0.189E-01
DAV:  28    -0.929492076080E+03   -0.41224E-04   -0.18676E-05  2640   0.270E-03    0.157E-02
DAV:  29    -0.929492549679E+03   -0.47360E-03   -0.16296E-05  2580   0.251E-03    0.564E-02
DAV:  30    -0.929492649534E+03   -0.99854E-04   -0.54266E-06  2604   0.164E-03    0.398E-02
DAV:  31    -0.929492720067E+03   -0.70533E-04   -0.45564E-06  2376   0.108E-03    0.139E-02
DAV:  32    -0.929492742090E+03   -0.22023E-04   -0.78858E-07  2232   0.761E-04    0.124E-03
DAV:  33    -0.929492743838E+03   -0.17490E-05   -0.96364E-08  1836   0.360E-04
   1 F= -.92949274E+03 E0= -.92945313E+03  d E =-.792228E-01
