 vasp.5.4.4.18Apr17-6-g9f103f2a35 (build May 02 2017 15:33:50) complex          
  
 executed on Intel-16.0.3.210-OMP date 2018.08.09  00:04:21
 running on    6 total cores
 distrk:  each k-point on    6 cores,    1 groups
 distr:  one band on NCORES_PER_BAND=   1 cores,    6 groups


--------------------------------------------------------------------------------------------------------


 INCAR:
 POTCAR:    PAW Al_GW 19Mar2012                   
 POTCAR:    PAW_PBE N 08Apr2002                   

 ----------------------------------------------------------------------------- 
|                                                                             |
|           W    W    AA    RRRRR   N    N  II  N    N   GGGG   !!!           |
|           W    W   A  A   R    R  NN   N  II  NN   N  G    G  !!!           |
|           W    W  A    A  R    R  N N  N  II  N N  N  G       !!!           |
|           W WW W  AAAAAA  RRRRR   N  N N  II  N  N N  G  GGG   !            |
|           WW  WW  A    A  R   R   N   NN  II  N   NN  G    G                |
|           W    W  A    A  R    R  N    N  II  N    N   GGGG   !!!           |
|                                                                             |
|      For optimal performance we recommend to set                            |
|        NCORE= 4 - approx SQRT( number of cores)                             |
|      NCORE specifies how many cores store one orbital (NPAR=cpu/NCORE).     |
|      This setting can  greatly improve the performance of VASP for DFT.     |
|      The default,   NCORE=1            might be grossly inefficient         |
|      on modern multi-core architectures or massively parallel machines.     |
|      Do your own testing !!!!                                               |
|      Unfortunately you need to use the default for GW and RPA calculations. |
|      (for HF NCORE is supported but not extensively tested yet)             |
|                                                                             |
 ----------------------------------------------------------------------------- 

 POTCAR:    PAW Al_GW 19Mar2012                   
   VRHFIN =Al: s2p1                                                             
   LEXCH  = PE                                                                  
   EATOM  =    53.5387 eV,    3.9350 Ry                                         
                                                                                
   TITEL  = PAW Al_GW 19Mar2012                                                 
   LULTRA =        F    use ultrasoft PP ?                                      
   IUNSCR =        1    unscreen: 0-lin 1-nonlin 2-no                           
   RPACOR =    1.500    partial core radius                                     
   POMASS =   26.982; ZVAL   =    3.000    mass and valenz                      
   RCORE  =    2.000    outmost cutoff radius                                   
   RWIGS  =    2.000; RWIGS  =    1.058    wigner-seitz radius (au A)           
   ENMAX  =  240.300; ENMIN  =  180.225 eV                                      
   ICORE  =        3    local potential                                         
   LCOR   =        T    correct aug charges                                     
   LPAW   =        T    paw PP                                                  
   EAUG   =  482.059                                                            
   DEXC   =    0.000                                                            
   RMAX   =    2.051    core radius for proj-oper                               
   RAUG   =    1.300    factor for augmentation sphere                          
   RDEP   =    2.096    radius for radial grids                                 
   RDEPT  =    1.856    core radius for aug-charge                              
                                                                                
   Atomic configuration                                                         
    7 entries                                                                   
     n  l   j            E        occ.                                          
     1  0  0.50     -1511.1048   2.0000                                         
     2  0  0.50      -108.1629   2.0000                                         
     2  1  1.50       -69.6402   6.0000                                         
     3  0  0.50        -7.7528   2.0000                                         
     3  1  1.50        -2.7121   1.0000                                         
     3  2  2.50        -2.7212   0.0000                                         
     4  3  2.50        -2.7212   0.0000                                         
   Description                                                                  
     l       E           TYP  RCUT    TYP  RCUT                                 
     0     -7.7528455     23  1.900                                             
     0     68.0291300     23  1.900                                             
     1     -2.7120682     23  1.900                                             
     1     68.0291300     23  1.900                                             
     2     -1.3605826     23  1.900                                             
     2     81.6349560     23  1.900                                             
     3     74.8320430     23  2.000                                             
  local pseudopotential read in
  partial core-charges read in
  partial kinetic energy density read in
  kinetic energy density of atom read in
  atomic valenz-charges read in
  non local Contribution for L=           0  read in
    real space projection operators read in
  non local Contribution for L=           0  read in
    real space projection operators read in
  non local Contribution for L=           1  read in
    real space projection operators read in
  non local Contribution for L=           1  read in
    real space projection operators read in
  non local Contribution for L=           2  read in
    real space projection operators read in
  non local Contribution for L=           2  read in
    real space projection operators read in
    PAW grid and wavefunctions read in
 
   number of l-projection  operators is LMAX  =           6
   number of lm-projection operators is LMMAX =          18
 
 POTCAR:    PAW_PBE N 08Apr2002                   
   VRHFIN =N: s2p3                                                              
   LEXCH  = PE                                                                  
   EATOM  =   264.5486 eV,   19.4438 Ry                                         
                                                                                
   TITEL  = PAW_PBE N 08Apr2002                                                 
   LULTRA =        F    use ultrasoft PP ?                                      
   IUNSCR =        1    unscreen: 0-lin 1-nonlin 2-no                           
   RPACOR =    1.200    partial core radius                                     
   POMASS =   14.001; ZVAL   =    5.000    mass and valenz                      
   RCORE  =    1.500    outmost cutoff radius                                   
   RWIGS  =    1.400; RWIGS  =    0.741    wigner-seitz radius (au A)           
   ENMAX  =  400.000; ENMIN  =  300.000 eV                                      
   ICORE  =        2    local potential                                         
   LCOR   =        T    correct aug charges                                     
   LPAW   =        T    paw PP                                                  
   EAUG   =  627.112                                                            
   DEXC   =    0.000                                                            
   RMAX   =    1.529    core radius for proj-oper                               
   RAUG   =    1.300    factor for augmentation sphere                          
   RDEP   =    1.514    radius for radial grids                                 
   RDEPT  =    1.338    core radius for aug-charge                              
                                                                                
   Atomic configuration                                                         
    4 entries                                                                   
     n  l   j            E        occ.                                          
     1  0  0.50      -384.7179   2.0000                                         
     2  0  0.50       -18.5828   2.0000                                         
     2  1  0.50        -7.0898   3.0000                                         
     3  2  1.50        -6.8029   0.0000                                         
   Description                                                                  
     l       E           TYP  RCUT    TYP  RCUT                                 
     0    -18.5828119     23  1.200                                             
     0    -13.5018863     23  1.200                                             
     1     -7.0897853     23  1.500                                             
     1      9.5240782     23  1.500                                             
     2     -6.8029130      7  1.500                                             
  local pseudopotential read in
  partial core-charges read in
  partial kinetic energy density read in
  atomic valenz-charges read in
  non local Contribution for L=           0  read in
    real space projection operators read in
  non local Contribution for L=           0  read in
    real space projection operators read in
  non local Contribution for L=           1  read in
    real space projection operators read in
  non local Contribution for L=           1  read in
    real space projection operators read in
    PAW grid and wavefunctions read in
 
   number of l-projection  operators is LMAX  =           4
   number of lm-projection operators is LMMAX =           8
 
 Optimization of the real space projectors (new method)

 maximal supplied QI-value         = 18.90
 optimisation between [QCUT,QGAM] = [  8.69, 17.57] = [ 21.16, 86.49] Ry 
 Optimized for a Real-space Cutoff    1.59 Angstroem

   l    n(q)    QCUT    max X(q) W(low)/X(q) W(high)/X(q)  e(spline) 
   0      8     8.693    11.519    0.12E-03    0.31E-04    0.21E-06
   0      8     8.693     5.834    0.89E-04    0.32E-04    0.16E-06
   1      8     8.693    10.132    0.25E-03    0.39E-03    0.25E-06
   1      8     8.693     3.004    0.16E-03    0.27E-03    0.22E-06
   2      7     8.693     3.169    0.39E-03    0.93E-03    0.44E-06
   2      7     8.693     1.605    0.70E-04    0.91E-04    0.19E-06
 Optimization of the real space projectors (new method)

 maximal supplied QI-value         = 25.13
 optimisation between [QCUT,QGAM] = [  8.80, 17.59] = [ 21.67, 86.68] Ry 
 Optimized for a Real-space Cutoff    2.14 Angstroem

   l    n(q)    QCUT    max X(q) W(low)/X(q) W(high)/X(q)  e(spline) 
   0     11     8.797    79.467    0.70E-04    0.19E-04    0.19E-05
   0     11     8.797    66.151    0.68E-04    0.18E-04    0.19E-05
   1     11     8.797     6.738    0.26E-03    0.11E-02    0.73E-05
   1     11     8.797     5.013    0.25E-03    0.11E-02    0.72E-05
  PAW Al_GW 19Mar2012                   :
 energy of atom  1       EATOM=  -53.5387
 kinetic energy error for atom=    0.0011 (will be added to EATOM!!)
  PAW_PBE N 08Apr2002                   :
 energy of atom  2       EATOM= -264.5486
 kinetic energy error for atom=    0.6882 (will be added to EATOM!!)
 
 
 POSCAR: New structure                           
  positions in cartesian coordinates
  No initial velocities read in
 exchange correlation table for  LEXCH =        8
   RHO(1)=    0.500       N(1)  =     2000
   RHO(2)=  100.500       N(2)  =     4000
 


--------------------------------------------------------------------------------------------------------


 ion  position               nearest neighbor table
   1  0.444  0.444  0.079-
   2  0.444  0.778  0.079-
   3  0.444  0.111  0.079-
   4  0.778  0.444  0.079-
   5  0.778  0.778  0.079-
   6  0.778  0.111  0.079-
   7  0.111  0.444  0.079-
   8  0.111  0.778  0.079-
   9  0.111  0.111  0.079-
  10  0.556  0.556  0.157-
  11  0.556  0.889  0.157-
  12  0.556  0.222  0.157-
  13  0.889  0.556  0.157-
  14  0.889  0.889  0.157-
  15  0.889  0.222  0.157-
  16  0.222  0.556  0.157-
  17  0.222  0.889  0.157-
  18  0.222  0.222  0.157-
  19  0.667  0.667  0.234-
  20  0.667  0.000  0.234-
  21  0.667  0.333  0.234-
  22  0.000  0.667  0.234-
  23  0.000  0.000  0.234-
  24  0.000  0.333  0.234-
  25  0.333  0.667  0.234-
  26  0.333  0.000  0.234-
  27  0.333  0.333  0.234-
  28  0.778  0.778  0.312-
  29  0.778  0.111  0.312-
  30  0.778  0.444  0.312-
  31  0.111  0.778  0.312-
  32  0.111  0.111  0.312-
  33  0.111  0.444  0.312-
  34  0.444  0.778  0.312-
  35  0.444  0.111  0.312-
  36  0.444  0.444  0.312-
  37  0.889  0.889  0.390-
  38  0.889  0.222  0.390-
  39  0.889  0.556  0.390-
  40  0.222  0.889  0.390-
  41  0.222  0.222  0.390-
  42  0.222  0.556  0.390-
  43  0.556  0.889  0.390-
  44  0.556  0.222  0.390-
  45  0.556  0.556  0.390-
  46  0.000  0.000  0.466-
  47  0.000  0.333  0.466-
  48  0.000  0.667  0.466-
  49  0.333  0.000  0.466-
  50  0.333  0.333  0.466-
  51  0.333  0.667  0.466-
  52  0.667  0.000  0.466-
  53  0.667  0.333  0.466-
  54  0.667  0.667  0.466-
  55  0.111  0.111  0.545-
  56  0.111  0.444  0.545-
  57  0.111  0.778  0.545-
  58  0.444  0.111  0.545-
  59  0.444  0.444  0.545-
  60  0.444  0.778  0.545-
  61  0.778  0.111  0.545-
  62  0.778  0.444  0.545-
  63  0.778  0.778  0.545-
  64  0.278  0.278  0.079-
  65  0.278  0.611  0.079-
  66  0.278  0.944  0.079-
  67  0.611  0.278  0.079-
  68  0.611  0.611  0.079-
  69  0.611  0.944  0.079-
  70  0.944  0.278  0.079-
  71  0.944  0.611  0.079-
  72  0.944  0.944  0.079-
  73  0.389  0.389  0.157-
  74  0.389  0.722  0.157-
  75  0.389  0.056  0.157-
  76  0.722  0.389  0.157-
  77  0.722  0.722  0.157-
  78  0.722  0.056  0.157-
  79  0.056  0.389  0.157-
  80  0.056  0.722  0.157-
  81  0.056  0.056  0.157-
  82  0.500  0.500  0.234-
  83  0.500  0.833  0.234-
  84  0.500  0.167  0.234-
  85  0.833  0.500  0.234-
  86  0.833  0.833  0.234-
  87  0.833  0.167  0.234-
  88  0.167  0.500  0.234-
  89  0.167  0.833  0.234-
  90  0.167  0.167  0.234-
  91  0.611  0.611  0.312-
  92  0.611  0.944  0.312-
  93  0.611  0.278  0.312-
  94  0.944  0.611  0.312-
  95  0.944  0.944  0.312-
  96  0.944  0.278  0.312-
  97  0.278  0.611  0.312-
  98  0.278  0.944  0.312-
  99  0.278  0.278  0.312-
 100  0.722  0.722  0.390-
 101  0.722  0.056  0.390-
 102  0.722  0.389  0.390-
 103  0.056  0.722  0.390-
 104  0.056  0.056  0.390-
 105  0.056  0.389  0.390-
 106  0.389  0.722  0.390-
 107  0.389  0.056  0.390-
 108  0.389  0.389  0.390-
 109  0.833  0.833  0.466-
 110  0.833  0.167  0.466-
 111  0.833  0.500  0.466-
 112  0.167  0.833  0.466-
 113  0.167  0.167  0.466-
 114  0.167  0.500  0.466-
 115  0.500  0.833  0.466-
 116  0.500  0.167  0.466-
 117  0.500  0.500  0.466-
 118  0.944  0.944  0.545-
 119  0.944  0.278  0.545-
 120  0.944  0.611  0.545-
 121  0.278  0.944  0.545-
 122  0.278  0.278  0.545-
 123  0.278  0.611  0.545-
 124  0.611  0.944  0.545-
 125  0.611  0.278  0.545-
 126  0.611  0.611  0.545-
 127  0.278  0.444  0.079-
 128  0.278  0.778  0.079-
 129  0.278  0.111  0.079-
 130  0.611  0.444  0.079-
 131  0.611  0.778  0.079-
 132  0.611  0.111  0.079-
 133  0.944  0.444  0.079-
 134  0.944  0.778  0.079-
 135  0.944  0.111  0.079-
 136  0.389  0.556  0.157-
 137  0.389  0.889  0.157-
 138  0.389  0.222  0.157-
 139  0.722  0.556  0.157-
 140  0.722  0.889  0.157-
 141  0.722  0.222  0.157-
 142  0.056  0.556  0.157-
 143  0.056  0.889  0.157-
 144  0.056  0.222  0.157-
 145  0.500  0.667  0.234-
 146  0.500  0.000  0.234-
 147  0.500  0.333  0.234-
 148  0.833  0.667  0.234-
 149  0.833  0.000  0.234-
 150  0.833  0.333  0.234-
 151  0.167  0.667  0.234-
 152  0.167  0.000  0.234-
 153  0.167  0.333  0.234-
 154  0.611  0.778  0.312-
 155  0.611  0.111  0.312-
 156  0.611  0.444  0.312-
 157  0.944  0.778  0.312-
 158  0.944  0.111  0.312-
 159  0.944  0.444  0.312-
 160  0.278  0.778  0.312-
 161  0.278  0.111  0.312-
 162  0.278  0.444  0.312-
 163  0.722  0.889  0.390-
 164  0.722  0.222  0.390-
 165  0.722  0.556  0.390-
 166  0.056  0.889  0.390-
 167  0.056  0.222  0.390-
 168  0.056  0.556  0.390-
 169  0.389  0.889  0.390-
 170  0.389  0.222  0.390-
 171  0.389  0.556  0.390-
 172  0.833  0.000  0.466-
 173  0.833  0.333  0.466-
 174  0.833  0.667  0.466-
 175  0.167  0.000  0.466-
 176  0.167  0.333  0.466-
 177  0.167  0.667  0.466-
 178  0.500  0.000  0.466-
 179  0.500  0.333  0.466-
 180  0.500  0.667  0.466-
 181  0.944  0.111  0.545-
 182  0.944  0.444  0.545-
 183  0.944  0.778  0.545-
 184  0.278  0.111  0.545-
 185  0.278  0.444  0.545-
 186  0.278  0.778  0.545-
 187  0.611  0.111  0.545-
 188  0.611  0.444  0.545-
 189  0.611  0.778  0.545-
 190  0.444  0.278  0.079-
 191  0.444  0.611  0.079-
 192  0.444  0.944  0.079-
 193  0.778  0.278  0.079-
 194  0.778  0.611  0.079-
 195  0.778  0.944  0.079-
 196  0.111  0.278  0.079-
 197  0.111  0.611  0.079-
 198  0.111  0.944  0.079-
 199  0.556  0.389  0.157-
 200  0.556  0.722  0.157-
 201  0.556  0.056  0.157-
 202  0.889  0.389  0.157-
 203  0.889  0.722  0.157-
 204  0.889  0.056  0.157-
 205  0.222  0.389  0.157-
 206  0.222  0.722  0.157-
 207  0.222  0.056  0.157-
 208  0.667  0.500  0.234-
 209  0.667  0.833  0.234-
 210  0.667  0.167  0.234-
 211  1.000  0.500  0.234-
 212  1.000  0.833  0.234-
 213  1.000  0.167  0.234-
 214  0.333  0.500  0.234-
 215  0.333  0.833  0.234-
 216  0.333  0.167  0.234-
 217  0.778  0.611  0.312-
 218  0.778  0.944  0.312-
 219  0.778  0.278  0.312-
 220  0.111  0.611  0.312-
 221  0.111  0.944  0.312-
 222  0.111  0.278  0.312-
 223  0.444  0.611  0.312-
 224  0.444  0.944  0.312-
 225  0.444  0.278  0.312-
 226  0.889  0.722  0.390-
 227  0.889  0.056  0.390-
 228  0.889  0.389  0.390-
 229  0.222  0.722  0.390-
 230  0.222  0.056  0.390-
 231  0.222  0.389  0.390-
 232  0.556  0.722  0.390-
 233  0.556  0.056  0.390-
 234  0.556  0.389  0.390-
 235  1.000  0.833  0.466-
 236  1.000  0.167  0.466-
 237  1.000  0.500  0.466-
 238  0.333  0.833  0.466-
 239  0.333  0.167  0.466-
 240  0.333  0.500  0.466-
 241  0.667  0.833  0.466-
 242  0.667  0.167  0.466-
 243  0.667  0.500  0.466-
 244  0.111  0.944  0.545-
 245  0.111  0.278  0.545-
 246  0.111  0.611  0.545-
 247  0.444  0.944  0.545-
 248  0.444  0.278  0.545-
 249  0.444  0.611  0.545-
 250  0.778  0.944  0.545-
 251  0.778  0.278  0.545-
 252  0.778  0.611  0.545-
 253  0.333  0.500  0.735- 254 1.65
 254  0.389  0.389  0.735- 253 1.65
 
  LATTYP: Found a hexagonal cell.
 ALAT       =    17.1805734625
 C/A-ratio  =     1.7461582447
  
  Lattice vectors:
  
 A1 = (   0.0000000000,  -8.5902867312,  14.8788130701)
 A2 = (   0.0000000000,  17.1805734625,   0.0000000000)
 A3 = ( -30.0000000000,   0.0000000000,   0.0000000000)


Analysis of symmetry for initial positions (statically):
=====================================================================
 Subroutine PRICEL returns:
 Original cell was already a primitive cell.
 

 Routine SETGRP: Setting up the symmetry group for a 
 hexagonal supercell.


 Subroutine GETGRP returns: Found  2 space group operations
 (whereof  1 operations were pure point group operations)
 out of a pool of 24 trial point group operations.


The static configuration has the point symmetry C_1 .
 The point group associated with its full space group is C_1h.


Analysis of symmetry for dynamics (positions and initial velocities):
=====================================================================
 Subroutine PRICEL returns:
 Original cell was already a primitive cell.
 

 Routine SETGRP: Setting up the symmetry group for a 
 hexagonal supercell.


 Subroutine GETGRP returns: Found  2 space group operations
 (whereof  1 operations were pure point group operations)
 out of a pool of 24 trial point group operations.


The dynamic configuration has the point symmetry C_1 .
 The point group associated with its full space group is C_1h.


 Subroutine INISYM returns: Found  2 space group operations
 (whereof  1 operations are pure point group operations),
 and found     1 'primitive' translations

 
 
 KPOINTS: Automatic generation                    

Automatic generation of k-mesh.
Space group operators:
 irot       det(A)        alpha          n_x          n_y          n_z        tau_x        tau_y        tau_z
    1     1.000000     0.000000     1.000000     0.000000     0.000000     0.000000     0.000000     0.000000
    2    -1.000000   180.000000     0.000000     1.000000     0.000000    -0.833333     0.000000     0.000000
 
 Subroutine IBZKPT returns following result:
 ===========================================
 
 Found      3 irreducible k-points:
 
 Following reciprocal coordinates:
            Coordinates               Weight
  0.000000  0.000000  0.000000      1.000000
  0.500000  0.000000  0.000000      2.000000
  0.000000  0.500000  0.000000      1.000000
 
 Following cartesian coordinates:
            Coordinates               Weight
  0.000000  0.000000  0.000000      1.000000
  0.000000 -0.029103  0.016802      2.000000
  0.000000  0.000000 -0.033605      1.000000
 


--------------------------------------------------------------------------------------------------------




 Dimension of arrays:
   k-points           NKPTS =      3   k-points in BZ     NKDIM =      3   number of bands    NBANDS=    516
   number of dos      NEDOS =    301   number of ions     NIONS =    254
   non local maximal  LDIM  =      6   non local SUM 2l+1 LMDIM =     18
   total plane-waves  NPLWV = 819200
   max r-space proj   IRMAX =   4449   max aug-charges    IRDMAX=   4357
   dimension x,y,z NGX =    80 NGY =   80 NGZ =  128
   dimension x,y,z NGXF=   160 NGYF=  160 NGZF=  256
   support grid    NGXF=   160 NGYF=  160 NGZF=  256
   ions per type =             252   2
   NGX,Y,Z   is equivalent  to a cutoff of   7.74,  7.74,  7.09 a.u.
   NGXF,Y,Z  is equivalent  to a cutoff of  15.48, 15.48, 14.19 a.u.

 SYSTEM =  NiAl                                    
 POSCAR =  New structure                           

 Startparameter for this run:
   NWRITE =      2    write-flag & timer
   PREC   = normal    normal or accurate (medium, high low for compatibility)
   ISTART =      0    job   : 0-new  1-cont  2-samecut
   ICHARG =      2    charge: 1-file 2-atom 10-const
   ISPIN  =      1    spin polarized calculation?
   LNONCOLLINEAR =      F non collinear calculations
   LSORBIT =      F    spin-orbit coupling
   INIWAV =      1    electr: 0-lowe 1-rand  2-diag
   LASPH  =      F    aspherical Exc in radial PAW
   METAGGA=      F    non-selfconsistent MetaGGA calc.

 Electronic Relaxation 1
   ENCUT  =  300.0 eV  22.05 Ry    4.70 a.u.  24.26 24.26 42.37*2*pi/ulx,y,z
   ENINI  =  300.0     initial cutoff
   ENAUG  =  627.1 eV  augmentation charge cutoff
   NELM   =     60;   NELMIN=  6; NELMDL= -5     # of ELM steps 
   EDIFF  = 0.5E-05   stopping-criterion for ELM
   LREAL  =      T    real-space projection
   NLSPLINE    = F    spline interpolate recip. space projectors
   LCOMPAT=      F    compatible to vasp.4.4
   GGA_COMPAT  = T    GGA compatible to vasp.4.4-vasp.4.6
   LMAXPAW     = -100 max onsite density
   LMAXMIX     =    2 max onsite mixed and CHGCAR
   VOSKOWN=      0    Vosko Wilk Nusair interpolation
   ROPT   =   -0.00050  -0.00050
 Ionic relaxation
   EDIFFG = 0.5E-04   stopping-criterion for IOM
   NSW    =      0    number of steps for IOM
   NBLOCK =      1;   KBLOCK =      1    inner block; outer block 
   IBRION =     -1    ionic relax: 0-MD 1-quasi-New 2-CG
   NFREE  =      0    steps in history (QN), initial steepest desc. (CG)
   ISIF   =      0    stress and relaxation
   IWAVPR =     10    prediction:  0-non 1-charg 2-wave 3-comb
   ISYM   =      2    0-nonsym 1-usesym 2-fastsym
   LCORR  =      T    Harris-Foulkes like correction to forces

   POTIM  = 0.5000    time-step for ionic-motion
   TEIN   =    0.0    initial temperature
   TEBEG  =    0.0;   TEEND  =   0.0 temperature during run
   SMASS  =  -3.00    Nose mass-parameter (am)
   estimated Nose-frequenzy (Omega)   =  0.10E-29 period in steps =****** mass=  -0.675E-26a.u.
   SCALEE = 1.0000    scale energy and forces
   NPACO  =    256;   APACO  = 16.0  distance and # of slots for P.C.
   PSTRESS=    0.0 pullay stress

  Mass of Ions in am
   POMASS =  26.98 14.00
  Ionic Valenz
   ZVAL   =   3.00  5.00
  Atomic Wigner-Seitz radii
   RWIGS  =  -1.00 -1.00
  virtual crystal weights 
   VCA    =   1.00  1.00
   NELECT =     766.0000    total number of electrons
   NUPDOWN=      -1.0000    fix difference up-down

 DOS related values:
   EMIN   =  10.00;   EMAX   =-10.00  energy-range for DOS
   EFERMI =   0.00
   ISMEAR =     0;   SIGMA  =   0.05  broadening in eV -4-tet -1-fermi 0-gaus

 Electronic relaxation 2 (details)
   IALGO  =     38    algorithm
   LDIAG  =      T    sub-space diagonalisation (order eigenvalues)
   LSUBROT=      F    optimize rotation matrix (better conditioning)
   TURBO    =      0    0=normal 1=particle mesh
   IRESTART =      0    0=no restart 2=restart with 2 vectors
   NREBOOT  =      0    no. of reboots
   NMIN     =      0    reboot dimension
   EREF     =   0.00    reference energy to select bands
   IMIX   =      4    mixing-type and parameters
     AMIX     =   0.40;   BMIX     =  1.00
     AMIX_MAG =   1.60;   BMIX_MAG =  1.00
     AMIN     =   0.10
     WC   =   100.;   INIMIX=   1;  MIXPRE=   1;  MAXMIX= -45

 Intra band minimization:
   WEIMIN = 0.0000     energy-eigenvalue tresh-hold
   EBREAK =  0.24E-08  absolut break condition
   DEPER  =   0.30     relativ break condition  

   TIME   =   0.40     timestep for ELM

  volume/ion in A,a.u.               =      30.19       203.75
  Fermi-wavevector in a.u.,A,eV,Ry     =   0.759583  1.435404  7.850108  0.576967
  Thomas-Fermi vector in A             =   1.858410
 
 Write flags
   LWAVE        =      F    write WAVECAR
   LDOWNSAMPLE  =      F    k-point downsampling of WAVECAR
   LCHARG       =      F    write CHGCAR
   LVTOT        =      F    write LOCPOT, total local potential
   LVHAR        =      F    write LOCPOT, Hartree potential only
   LELF         =      F    write electronic localiz. function (ELF)
   LORBIT       =      0    0 simple, 1 ext, 2 COOP (PROOUT), +10 PAW based schemes


 Dipole corrections
   LMONO  =      F    monopole corrections only (constant potential shift)
   LDIPOL =      F    correct potential (dipole corrections)
   IDIPOL =      0    1-x, 2-y, 3-z, 4-all directions 
   EPSILON=  1.0000000 bulk dielectric constant

 Exchange correlation treatment:
   GGA     =    --    GGA type
   LEXCH   =     8    internal setting for exchange type
   VOSKOWN=      0    Vosko Wilk Nusair interpolation
   LHFCALC =     F    Hartree Fock is set to
   LHFONE  =     F    Hartree Fock one center treatment
   AEXX    =    0.0000 exact exchange contribution

 Linear response parameters
   LEPSILON=     F    determine dielectric tensor
   LRPA    =     F    only Hartree local field effects (RPA)
   LNABLA  =     F    use nabla operator in PAW spheres
   LVEL    =     F    velocity operator in full k-point grid
   LINTERFAST=   F  fast interpolation
   KINTER  =     0    interpolate to denser k-point grid
   CSHIFT  =0.1000    complex shift for real part using Kramers Kronig
   OMEGAMAX=  -1.0    maximum frequency
   DEG_THRESHOLD= 0.2000000E-02 threshold for treating states as degnerate
   RTIME   =   -0.100 relaxation time in fs
  (WPLASMAI=    0.000 imaginary part of plasma frequency in eV, 0.658/RTIME)
   DFIELD  = 0.0000000 0.0000000 0.0000000 field for delta impulse in time
 
 Orbital magnetization related:
   ORBITALMAG=     F  switch on orbital magnetization
   LCHIMAG   =     F  perturbation theory with respect to B field
   DQ        =  0.001000  dq finite difference perturbation B field
   LLRAUG    =     F  two centre corrections for induced B field



--------------------------------------------------------------------------------------------------------


 Static calculation
 charge density and potential will be updated during run
 non-spin polarized calculation
 Variant of blocked Davidson
 Davidson routine will perform the subspace rotation
 perform sub-space diagonalisation
    after iterative eigenvector-optimisation
 modified Broyden-mixing scheme, WC =      100.0
 initial mixing is a Kerker type mixing with AMIX =  0.4000 and BMIX =      1.0000
 Hartree-type preconditioning will be used
 using additional bands          133
 real space projection scheme for non local part
 use partial core corrections
 calculate Harris-corrections to forces 
   (improved forces if not selfconsistent)
 use gradient corrections 
 use of overlap-Matrix (Vanderbilt PP)
 Gauss-broadening in eV      SIGMA  =   0.05


--------------------------------------------------------------------------------------------------------


  energy-cutoff  :      300.00
  volume of cell :     7668.80
      direct lattice vectors                 reciprocal lattice vectors
     0.000000000-17.180573462  0.000000000     0.000000000 -0.058205275  0.033604831
     0.000000000 -8.590286731-14.878813070     0.000000000  0.000000000 -0.067209662
    30.000000000  0.000000000  0.000000000     0.033333333  0.000000000  0.000000000

  length of vectors
    17.180573462 17.180573462 30.000000000     0.067209662  0.067209662  0.033333333


 
 k-points in units of 2pi/SCALE and weight: Automatic generation                    
   0.00000000  0.00000000  0.00000000       0.250
   0.00000000 -0.02910264  0.01680242       0.500
   0.00000000  0.00000000 -0.03360483       0.250
 
 k-points in reciprocal lattice and weights: Automatic generation                    
   0.00000000  0.00000000  0.00000000       0.250
   0.50000000  0.00000000  0.00000000       0.500
   0.00000000  0.50000000  0.00000000       0.250
 
 position of ions in fractional coordinates (direct lattice) 
   0.44444456  0.44444473  0.07873467
   0.44444419  0.77777777  0.07873467
   0.44444468  0.11111101  0.07873467
   0.77777744  0.44444473  0.07873467
   0.77777765  0.77777777  0.07873467
   0.77777756  0.11111101  0.07873467
   0.11111110  0.44444473  0.07873467
   0.11111131  0.77777777  0.07873467
   0.11111122  0.11111101  0.07873467
   0.55555520  0.55555574  0.15702600
   0.55555541  0.88888878  0.15702600
   0.55555591  0.22222203  0.15702600
   0.88888866  0.55555574  0.15702600
   0.88888887  0.88888878  0.15702600
   0.88888878  0.22222203  0.15702600
   0.22222232  0.55555574  0.15702600
   0.22222253  0.88888878  0.15702600
   0.22222245  0.22222203  0.15702600
   0.66666642  0.66666675  0.23375733
   0.66666692  0.00000000  0.23375733
   0.66666655  0.33333304  0.23375733
   0.00000008  0.66666675  0.23375733
   0.00000000  0.00000000  0.23375733
   0.00000021  0.33333304  0.23375733
   0.33333354  0.66666675  0.23375733
   0.33333346  0.00000000  0.23375733
   0.33333367  0.33333304  0.23375733
   0.77777765  0.77777777  0.31173067
   0.77777756  0.11111101  0.31173067
   0.77777744  0.44444473  0.31173067
   0.11111131  0.77777777  0.31173067
   0.11111122  0.11111101  0.31173067
   0.11111110  0.44444473  0.31173067
   0.44444419  0.77777777  0.31173067
   0.44444468  0.11111101  0.31173067
   0.44444456  0.44444473  0.31173067
   0.88888887  0.88888878  0.38970400
   0.88888878  0.22222203  0.38970400
   0.88888866  0.55555574  0.38970400
   0.22222253  0.88888878  0.38970400
   0.22222245  0.22222203  0.38970400
   0.22222232  0.55555574  0.38970400
   0.55555541  0.88888878  0.38970400
   0.55555591  0.22222203  0.38970400
   0.55555520  0.55555574  0.38970400
   0.00000000  0.00000000  0.46643533
   0.00000021  0.33333304  0.46643533
   0.00000008  0.66666675  0.46643533
   0.33333346  0.00000000  0.46643533
   0.33333367  0.33333304  0.46643533
   0.33333354  0.66666675  0.46643533
   0.66666692  0.00000000  0.46643533
   0.66666655  0.33333304  0.46643533
   0.66666642  0.66666675  0.46643533
   0.11111122  0.11111101  0.54472667
   0.11111110  0.44444473  0.54472667
   0.11111131  0.77777777  0.54472667
   0.44444468  0.11111101  0.54472667
   0.44444456  0.44444473  0.54472667
   0.44444419  0.77777777  0.54472667
   0.77777756  0.11111101  0.54472667
   0.77777744  0.44444473  0.54472667
   0.77777765  0.77777777  0.54472667
   0.27777777  0.27777753  0.07873467
   0.27777764  0.61111125  0.07873467
   0.27777785  0.94444429  0.07873467
   0.61111123  0.27777753  0.07873467
   0.61111110  0.61111125  0.07873467
   0.61111131  0.94444429  0.07873467
   0.94444469  0.27777753  0.07873467
   0.94444456  0.61111125  0.07873467
   0.94444477  0.94444429  0.07873467
   0.38888865  0.38888922  0.15702600
   0.38888886  0.72222226  0.15702600
   0.38888878  0.05555551  0.15702600
   0.72222211  0.38888922  0.15702600
   0.72222232  0.72222226  0.15702600
   0.72222224  0.05555551  0.15702600
   0.05555519  0.38888922  0.15702600
   0.05555540  0.72222226  0.15702600
   0.05555532  0.05555551  0.15702600
   0.49999988  0.50000023  0.23375733
   0.50000009  0.83333327  0.23375733
   0.50000000  0.16666652  0.23375733
   0.83333334  0.50000023  0.23375733
   0.83333355  0.83333327  0.23375733
   0.83333346  0.16666652  0.23375733
   0.16666642  0.50000023  0.23375733
   0.16666663  0.83333327  0.23375733
   0.16666654  0.16666652  0.23375733
   0.61111110  0.61111125  0.31173067
   0.61111131  0.94444429  0.31173067
   0.61111123  0.27777753  0.31173067
   0.94444456  0.61111125  0.31173067
   0.94444477  0.94444429  0.31173067
   0.94444469  0.27777753  0.31173067
   0.27777764  0.61111125  0.31173067
   0.27777785  0.94444429  0.31173067
   0.27777777  0.27777753  0.31173067
   0.72222232  0.72222226  0.38970400
   0.72222224  0.05555551  0.38970400
   0.72222211  0.38888922  0.38970400
   0.05555540  0.72222226  0.38970400
   0.05555532  0.05555551  0.38970400
   0.05555519  0.38888922  0.38970400
   0.38888886  0.72222226  0.38970400
   0.38888878  0.05555551  0.38970400
   0.38888865  0.38888922  0.38970400
   0.83333355  0.83333327  0.46643533
   0.83333346  0.16666652  0.46643533
   0.83333334  0.50000023  0.46643533
   0.16666663  0.83333327  0.46643533
   0.16666654  0.16666652  0.46643533
   0.16666642  0.50000023  0.46643533
   0.50000009  0.83333327  0.46643533
   0.50000000  0.16666652  0.46643533
   0.49999988  0.50000023  0.46643533
   0.94444477  0.94444429  0.54472667
   0.94444469  0.27777753  0.54472667
   0.94444456  0.61111125  0.54472667
   0.27777785  0.94444429  0.54472667
   0.27777777  0.27777753  0.54472667
   0.27777764  0.61111125  0.54472667
   0.61111131  0.94444429  0.54472667
   0.61111123  0.27777753  0.54472667
   0.61111110  0.61111125  0.54472667
   0.27777783  0.44444473  0.07873467
   0.27777804  0.77777777  0.07873467
   0.27777795  0.11111101  0.07873467
   0.61111071  0.44444473  0.07873467
   0.61111092  0.77777777  0.07873467
   0.61111141  0.11111101  0.07873467
   0.94444417  0.44444473  0.07873467
   0.94444438  0.77777777  0.07873467
   0.94444429  0.11111101  0.07873467
   0.38888905  0.55555574  0.15702600
   0.38888868  0.88888878  0.15702600
   0.38888918  0.22222203  0.15702600
   0.72222193  0.55555574  0.15702600
   0.72222214  0.88888878  0.15702600
   0.72222205  0.22222203  0.15702600
   0.05555559  0.55555574  0.15702600
   0.05555580  0.88888878  0.15702600
   0.05555572  0.22222203  0.15702600
   0.49999969  0.66666675  0.23375733
   0.50000019  0.00000000  0.23375733
   0.50000040  0.33333304  0.23375733
   0.83333315  0.66666675  0.23375733
   0.83333307  0.00000000  0.23375733
   0.83333328  0.33333304  0.23375733
   0.16666681  0.66666675  0.23375733
   0.16666673  0.00000000  0.23375733
   0.16666694  0.33333304  0.23375733
   0.61111092  0.77777777  0.31173067
   0.61111141  0.11111101  0.31173067
   0.61111071  0.44444473  0.31173067
   0.94444438  0.77777777  0.31173067
   0.94444429  0.11111101  0.31173067
   0.94444417  0.44444473  0.31173067
   0.27777804  0.77777777  0.31173067
   0.27777795  0.11111101  0.31173067
   0.27777783  0.44444473  0.31173067
   0.72222214  0.88888878  0.38970400
   0.72222205  0.22222203  0.38970400
   0.72222193  0.55555574  0.38970400
   0.05555580  0.88888878  0.38970400
   0.05555572  0.22222203  0.38970400
   0.05555559  0.55555574  0.38970400
   0.38888868  0.88888878  0.38970400
   0.38888918  0.22222203  0.38970400
   0.38888905  0.55555574  0.38970400
   0.83333307  0.00000000  0.46643533
   0.83333328  0.33333304  0.46643533
   0.83333315  0.66666675  0.46643533
   0.16666673  0.00000000  0.46643533
   0.16666694  0.33333304  0.46643533
   0.16666681  0.66666675  0.46643533
   0.50000019  0.00000000  0.46643533
   0.50000040  0.33333304  0.46643533
   0.49999969  0.66666675  0.46643533
   0.94444429  0.11111101  0.54472667
   0.94444417  0.44444473  0.54472667
   0.94444438  0.77777777  0.54472667
   0.27777795  0.11111101  0.54472667
   0.27777783  0.44444473  0.54472667
   0.27777804  0.77777777  0.54472667
   0.61111141  0.11111101  0.54472667
   0.61111071  0.44444473  0.54472667
   0.61111092  0.77777777  0.54472667
   0.44444450  0.27777753  0.07873467
   0.44444437  0.61111125  0.07873467
   0.44444458  0.94444429  0.07873467
   0.77777796  0.27777753  0.07873467
   0.77777783  0.61111125  0.07873467
   0.77777804  0.94444429  0.07873467
   0.11111104  0.27777753  0.07873467
   0.11111091  0.61111125  0.07873467
   0.11111112  0.94444429  0.07873467
   0.55555538  0.38888922  0.15702600
   0.55555559  0.72222226  0.15702600
   0.55555551  0.05555551  0.15702600
   0.88888884  0.38888922  0.15702600
   0.88888905  0.72222226  0.15702600
   0.88888897  0.05555551  0.15702600
   0.22222192  0.38888922  0.15702600
   0.22222213  0.72222226  0.15702600
   0.22222205  0.05555551  0.15702600
   0.66666661  0.50000023  0.23375733
   0.66666682  0.83333327  0.23375733
   0.66666673  0.16666652  0.23375733
   0.99999969  0.50000023  0.23375733
   0.99999990  0.83333327  0.23375733
   0.99999981  0.16666652  0.23375733
   0.33333315  0.50000023  0.23375733
   0.33333336  0.83333327  0.23375733
   0.33333327  0.16666652  0.23375733
   0.77777783  0.61111125  0.31173067
   0.77777804  0.94444429  0.31173067
   0.77777796  0.27777753  0.31173067
   0.11111091  0.61111125  0.31173067
   0.11111112  0.94444429  0.31173067
   0.11111104  0.27777753  0.31173067
   0.44444437  0.61111125  0.31173067
   0.44444458  0.94444429  0.31173067
   0.44444450  0.27777753  0.31173067
   0.88888905  0.72222226  0.38970400
   0.88888897  0.05555551  0.38970400
   0.88888884  0.38888922  0.38970400
   0.22222213  0.72222226  0.38970400
   0.22222205  0.05555551  0.38970400
   0.22222192  0.38888922  0.38970400
   0.55555559  0.72222226  0.38970400
   0.55555551  0.05555551  0.38970400
   0.55555538  0.38888922  0.38970400
   0.99999990  0.83333327  0.46643533
   0.99999981  0.16666652  0.46643533
   0.99999969  0.50000023  0.46643533
   0.33333336  0.83333327  0.46643533
   0.33333327  0.16666652  0.46643533
   0.33333315  0.50000023  0.46643533
   0.66666682  0.83333327  0.46643533
   0.66666673  0.16666652  0.46643533
   0.66666661  0.50000023  0.46643533
   0.11111112  0.94444429  0.54472667
   0.11111104  0.27777753  0.54472667
   0.11111091  0.61111125  0.54472667
   0.44444458  0.94444429  0.54472667
   0.44444450  0.27777753  0.54472667
   0.44444437  0.61111125  0.54472667
   0.77777804  0.94444429  0.54472667
   0.77777796  0.27777753  0.54472667
   0.77777783  0.61111125  0.54472667
   0.33333315  0.50000023  0.73466667
   0.38888907  0.38888877  0.73466667
 
 position of ions in cartesian coordinates  (Angst):
   2.36204000-11.45372000 -6.61281000
   2.36204000-14.31714000-11.57241000
   2.36204000 -8.59029000 -1.65320000
   2.36204000-17.18057000 -6.61281000
   2.36204000-20.04400000-11.57241000
   2.36204000-14.31714000 -1.65320000
   2.36204000 -5.72686000 -6.61281000
   2.36204000 -8.59029000-11.57241000
   2.36204000 -2.86343000 -1.65320000
   4.71078000-14.31714000 -8.26601000
   4.71078000-17.18057000-13.22561000
   4.71078000-11.45372000 -3.30640000
   4.71078000-20.04400000 -8.26601000
   4.71078000-22.90743000-13.22561000
   4.71078000-17.18057000 -3.30640000
   4.71078000 -8.59029000 -8.26601000
   4.71078000-11.45372000-13.22561000
   4.71078000 -5.72686000 -3.30640000
   7.01272000-17.18057000 -9.91921000
   7.01272000-11.45372000  0.00000000
   7.01272000-14.31714000 -4.95960000
   7.01272000 -5.72686000 -9.91921000
   7.01272000  0.00000000  0.00000000
   7.01272000 -2.86343000 -4.95960000
   7.01272000-11.45372000 -9.91921000
   7.01272000 -5.72686000  0.00000000
   7.01272000 -8.59029000 -4.95960000
   9.35192000-20.04400000-11.57241000
   9.35192000-14.31714000 -1.65320000
   9.35192000-17.18057000 -6.61281000
   9.35192000 -8.59029000-11.57241000
   9.35192000 -2.86343000 -1.65320000
   9.35192000 -5.72686000 -6.61281000
   9.35192000-14.31714000-11.57241000
   9.35192000 -8.59029000 -1.65320000
   9.35192000-11.45372000 -6.61281000
  11.69112000-22.90743000-13.22561000
  11.69112000-17.18057000 -3.30640000
  11.69112000-20.04400000 -8.26601000
  11.69112000-11.45372000-13.22561000
  11.69112000 -5.72686000 -3.30640000
  11.69112000 -8.59029000 -8.26601000
  11.69112000-17.18057000-13.22561000
  11.69112000-11.45372000 -3.30640000
  11.69112000-14.31714000 -8.26601000
  13.99306000  0.00000000  0.00000000
  13.99306000 -2.86343000 -4.95960000
  13.99306000 -5.72686000 -9.91921000
  13.99306000 -5.72686000  0.00000000
  13.99306000 -8.59029000 -4.95960000
  13.99306000-11.45372000 -9.91921000
  13.99306000-11.45372000  0.00000000
  13.99306000-14.31714000 -4.95960000
  13.99306000-17.18057000 -9.91921000
  16.34180000 -2.86343000 -1.65320000
  16.34180000 -5.72686000 -6.61281000
  16.34180000 -8.59029000-11.57241000
  16.34180000 -8.59029000 -1.65320000
  16.34180000-11.45372000 -6.61281000
  16.34180000-14.31714000-11.57241000
  16.34180000-14.31714000 -1.65320000
  16.34180000-17.18057000 -6.61281000
  16.34180000-20.04400000-11.57241000
   2.36204000 -7.15857000 -4.13300000
   2.36204000-10.02200000 -9.09261000
   2.36204000-12.88543000-14.05221000
   2.36204000-12.88543000 -4.13300000
   2.36204000-15.74886000 -9.09261000
   2.36204000-18.61229000-14.05221000
   2.36204000-18.61229000 -4.13300000
   2.36204000-21.47572000 -9.09261000
   2.36204000-24.33915000-14.05221000
   4.71078000-10.02200000 -5.78621000
   4.71078000-12.88543000-10.74581000
   4.71078000 -7.15857000 -0.82660000
   4.71078000-15.74886000 -5.78621000
   4.71078000-18.61229000-10.74581000
   4.71078000-12.88543000 -0.82660000
   4.71078000 -4.29514000 -5.78621000
   4.71078000 -7.15857000-10.74581000
   4.71078000 -1.43171000 -0.82660000
   7.01272000-12.88543000 -7.43941000
   7.01272000-15.74886000-12.39901000
   7.01272000-10.02200000 -2.47980000
   7.01272000-18.61229000 -7.43941000
   7.01272000-21.47572000-12.39901000
   7.01272000-15.74886000 -2.47980000
   7.01272000 -7.15857000 -7.43941000
   7.01272000-10.02200000-12.39901000
   7.01272000 -4.29514000 -2.47980000
   9.35192000-15.74886000 -9.09261000
   9.35192000-18.61229000-14.05221000
   9.35192000-12.88543000 -4.13300000
   9.35192000-21.47572000 -9.09261000
   9.35192000-24.33915000-14.05221000
   9.35192000-18.61229000 -4.13300000
   9.35192000-10.02200000 -9.09261000
   9.35192000-12.88543000-14.05221000
   9.35192000 -7.15857000 -4.13300000
  11.69112000-18.61229000-10.74581000
  11.69112000-12.88543000 -0.82660000
  11.69112000-15.74886000 -5.78621000
  11.69112000 -7.15857000-10.74581000
  11.69112000 -1.43171000 -0.82660000
  11.69112000 -4.29514000 -5.78621000
  11.69112000-12.88543000-10.74581000
  11.69112000 -7.15857000 -0.82660000
  11.69112000-10.02200000 -5.78621000
  13.99306000-21.47572000-12.39901000
  13.99306000-15.74886000 -2.47980000
  13.99306000-18.61229000 -7.43941000
  13.99306000-10.02200000-12.39901000
  13.99306000 -4.29514000 -2.47980000
  13.99306000 -7.15857000 -7.43941000
  13.99306000-15.74886000-12.39901000
  13.99306000-10.02200000 -2.47980000
  13.99306000-12.88543000 -7.43941000
  16.34180000-24.33915000-14.05221000
  16.34180000-18.61229000 -4.13300000
  16.34180000-21.47572000 -9.09261000
  16.34180000-12.88543000-14.05221000
  16.34180000 -7.15857000 -4.13300000
  16.34180000-10.02200000 -9.09261000
  16.34180000-18.61229000-14.05221000
  16.34180000-12.88543000 -4.13300000
  16.34180000-15.74886000 -9.09261000
   2.36204000 -8.59029000 -6.61281000
   2.36204000-11.45372000-11.57241000
   2.36204000 -5.72686000 -1.65320000
   2.36204000-14.31714000 -6.61281000
   2.36204000-17.18057000-11.57241000
   2.36204000-11.45372000 -1.65320000
   2.36204000-20.04400000 -6.61281000
   2.36204000-22.90743000-11.57241000
   2.36204000-17.18057000 -1.65320000
   4.71078000-11.45372000 -8.26601000
   4.71078000-14.31714000-13.22561000
   4.71078000 -8.59029000 -3.30640000
   4.71078000-17.18057000 -8.26601000
   4.71078000-20.04400000-13.22561000
   4.71078000-14.31714000 -3.30640000
   4.71078000 -5.72686000 -8.26601000
   4.71078000 -8.59029000-13.22561000
   4.71078000 -2.86343000 -3.30640000
   7.01272000-14.31714000 -9.91921000
   7.01272000 -8.59029000  0.00000000
   7.01272000-11.45372000 -4.95960000
   7.01272000-20.04400000 -9.91921000
   7.01272000-14.31714000  0.00000000
   7.01272000-17.18057000 -4.95960000
   7.01272000 -8.59029000 -9.91921000
   7.01272000 -2.86343000  0.00000000
   7.01272000 -5.72686000 -4.95960000
   9.35192000-17.18057000-11.57241000
   9.35192000-11.45372000 -1.65320000
   9.35192000-14.31714000 -6.61281000
   9.35192000-22.90743000-11.57241000
   9.35192000-17.18057000 -1.65320000
   9.35192000-20.04400000 -6.61281000
   9.35192000-11.45372000-11.57241000
   9.35192000 -5.72686000 -1.65320000
   9.35192000 -8.59029000 -6.61281000
  11.69112000-20.04400000-13.22561000
  11.69112000-14.31714000 -3.30640000
  11.69112000-17.18057000 -8.26601000
  11.69112000 -8.59029000-13.22561000
  11.69112000 -2.86343000 -3.30640000
  11.69112000 -5.72686000 -8.26601000
  11.69112000-14.31714000-13.22561000
  11.69112000 -8.59029000 -3.30640000
  11.69112000-11.45372000 -8.26601000
  13.99306000-14.31714000  0.00000000
  13.99306000-17.18057000 -4.95960000
  13.99306000-20.04400000 -9.91921000
  13.99306000 -2.86343000  0.00000000
  13.99306000 -5.72686000 -4.95960000
  13.99306000 -8.59029000 -9.91921000
  13.99306000 -8.59029000  0.00000000
  13.99306000-11.45372000 -4.95960000
  13.99306000-14.31714000 -9.91921000
  16.34180000-17.18057000 -1.65320000
  16.34180000-20.04400000 -6.61281000
  16.34180000-22.90743000-11.57241000
  16.34180000 -5.72686000 -1.65320000
  16.34180000 -8.59029000 -6.61281000
  16.34180000-11.45372000-11.57241000
  16.34180000-11.45372000 -1.65320000
  16.34180000-14.31714000 -6.61281000
  16.34180000-17.18057000-11.57241000
   2.36204000-10.02200000 -4.13300000
   2.36204000-12.88543000 -9.09261000
   2.36204000-15.74886000-14.05221000
   2.36204000-15.74886000 -4.13300000
   2.36204000-18.61229000 -9.09261000
   2.36204000-21.47572000-14.05221000
   2.36204000 -4.29514000 -4.13300000
   2.36204000 -7.15857000 -9.09261000
   2.36204000-10.02200000-14.05221000
   4.71078000-12.88543000 -5.78621000
   4.71078000-15.74886000-10.74581000
   4.71078000-10.02200000 -0.82660000
   4.71078000-18.61229000 -5.78621000
   4.71078000-21.47572000-10.74581000
   4.71078000-15.74886000 -0.82660000
   4.71078000 -7.15857000 -5.78621000
   4.71078000-10.02200000-10.74581000
   4.71078000 -4.29514000 -0.82660000
   7.01272000-15.74886000 -7.43941000
   7.01272000-18.61229000-12.39901000
   7.01272000-12.88543000 -2.47980000
   7.01272000-21.47571346 -7.43941000
   7.01272000-24.33914346-12.39901000
   7.01272000-18.61228346 -2.47980000
   7.01272000-10.02200000 -7.43941000
   7.01272000-12.88543000-12.39901000
   7.01272000 -7.15857000 -2.47980000
   9.35192000-18.61229000 -9.09261000
   9.35192000-21.47572000-14.05221000
   9.35192000-15.74886000 -4.13300000
   9.35192000 -7.15857000 -9.09261000
   9.35192000-10.02200000-14.05221000
   9.35192000 -4.29514000 -4.13300000
   9.35192000-12.88543000 -9.09261000
   9.35192000-15.74886000-14.05221000
   9.35192000-10.02200000 -4.13300000
  11.69112000-21.47572000-10.74581000
  11.69112000-15.74886000 -0.82660000
  11.69112000-18.61229000 -5.78621000
  11.69112000-10.02200000-10.74581000
  11.69112000 -4.29514000 -0.82660000
  11.69112000 -7.15857000 -5.78621000
  11.69112000-15.74886000-10.74581000
  11.69112000-10.02200000 -0.82660000
  11.69112000-12.88543000 -5.78621000
  13.99306000-24.33914346-12.39901000
  13.99306000-18.61228346 -2.47980000
  13.99306000-21.47571346 -7.43941000
  13.99306000-12.88543000-12.39901000
  13.99306000 -7.15857000 -2.47980000
  13.99306000-10.02200000 -7.43941000
  13.99306000-18.61229000-12.39901000
  13.99306000-12.88543000 -2.47980000
  13.99306000-15.74886000 -7.43941000
  16.34180000-10.02200000-14.05221000
  16.34180000 -4.29514000 -4.13300000
  16.34180000 -7.15857000 -9.09261000
  16.34180000-15.74886000-14.05221000
  16.34180000-10.02200000 -4.13300000
  16.34180000-12.88543000 -9.09261000
  16.34180000-21.47572000-14.05221000
  16.34180000-15.74886000 -4.13300000
  16.34180000-18.61229000 -9.09261000
  22.04000000-10.02200000 -7.43941000
  22.04000000-10.02200333 -5.78620333
 


--------------------------------------------------------------------------------------------------------


 k-point  1 :   0.0000 0.0000 0.0000  plane waves:   90499
 k-point  2 :   0.5000 0.0000 0.0000  plane waves:   90530
 k-point  3 :   0.0000 0.5000 0.0000  plane waves:   90530

 maximum and minimum number of plane-waves per node :     90530    90499

 maximum number of plane-waves:     90530
 maximum index in each direction: 
   IXMAX=   24   IYMAX=   24   IZMAX=   42
   IXMIN=  -24   IYMIN=  -24   IZMIN=  -42


 serial   3D FFT for wavefunctions
 parallel 3D FFT for charge:
    minimum data exchange during FFTs selected (reduces bandwidth)


 total amount of memory used by VASP MPI-rank0   652153. kBytes
=======================================================================

   base      :      30000. kBytes
   nonlr-proj:      89932. kBytes
   fftplans  :      40601. kBytes
   grid      :      95147. kBytes
   one-center:       3950. kBytes
   wavefun   :     392523. kBytes
 
     INWAV:  cpu time    0.0001: real time    0.0001
 Broyden mixing: mesh for mixing (old mesh)
   NGX = 49   NGY = 49   NGZ = 85
  (NGX  =160   NGY  =160   NGZ  =256)
  gives a total of 204085 points

 initial charge density was supplied:
 charge density of overlapping atoms calculated
 number of electron     766.0000000 magnetization 
 keeping initial charge density in first step


--------------------------------------------------------------------------------------------------------


 Maximum index for non-local projection operator         4278
 Maximum index for augmentation-charges          758 (set IRDMAX)


--------------------------------------------------------------------------------------------------------


 First call to EWALD:  gamma=   0.090
 Maximum number of real-space cells 3x 3x 2
 Maximum number of reciprocal cells 2x 2x 4

    FEWALD:  cpu time    0.0330: real time    0.0330


----------------------------------------- Iteration    1(   1)  ---------------------------------------


    POTLOK:  cpu time    0.8364: real time    0.8963
    SETDIJ:  cpu time    0.1055: real time    0.1081
     EDDAV:  cpu time   18.4420: real time   21.2394
       DOS:  cpu time    0.0014: real time    0.0075
    --------------------------------------------
      LOOP:  cpu time   19.3874: real time   22.2769

 eigenvalue-minimisations  :  3120
 total energy-change (2. order) : 0.2117683E+04  (-0.1838270E+05)
 number of electron     766.0000000 magnetization 
 augmentation part      766.0000000 magnetization 

 Free energy of the ion-electron system (eV)
  ---------------------------------------------------
  alpha Z        PSCENC =       505.22967617
  Ewald energy   TEWEN  =     85445.86399246
  -Hartree energ DENC   =    -99537.34466507
  -exchange      EXHF   =         0.00000000
  -V(xc)+E(xc)   XCENC  =     -6607.85107072
  PAW double counting   =     17092.30507181    -9042.14386232
  entropy T*S    EENTRO =        -0.07365322
  eigenvalues    EBANDS =       242.49580372
  atomic energy  EATOM  =     14019.20197576
  Solvation  Ediel_sol  =         0.00000000
  ---------------------------------------------------
  free energy    TOTEN  =      2117.68326858 eV

  energy without entropy =     2117.75692180  energy(sigma->0) =     2117.72009519


--------------------------------------------------------------------------------------------------------




----------------------------------------- Iteration    1(   2)  ---------------------------------------


     EDDAV:  cpu time   22.9344: real time   26.2799
       DOS:  cpu time    0.0022: real time    0.0022
    --------------------------------------------
      LOOP:  cpu time   22.9384: real time   26.2906

 eigenvalue-minimisations  :  4200
 total energy-change (2. order) :-0.2857394E+04  (-0.2694450E+04)
 number of electron     766.0000000 magnetization 
 augmentation part      766.0000000 magnetization 

 Free energy of the ion-electron system (eV)
  ---------------------------------------------------
  alpha Z        PSCENC =       505.22967617
  Ewald energy   TEWEN  =     85445.86399246
  -Hartree energ DENC   =    -99537.34466507
  -exchange      EXHF   =         0.00000000
  -V(xc)+E(xc)   XCENC  =     -6607.85107072
  PAW double counting   =     17092.30507181    -9042.14386232
  entropy T*S    EENTRO =        -0.10867545
  eigenvalues    EBANDS =     -2614.86314738
  atomic energy  EATOM  =     14019.20197576
  Solvation  Ediel_sol  =         0.00000000
  ---------------------------------------------------
  free energy    TOTEN  =      -739.71070475 eV

  energy without entropy =     -739.60202930  energy(sigma->0) =     -739.65636703


--------------------------------------------------------------------------------------------------------




----------------------------------------- Iteration    1(   3)  ---------------------------------------


     EDDAV:  cpu time   23.2316: real time   26.5192
       DOS:  cpu time    0.0013: real time    0.0013
    --------------------------------------------
      LOOP:  cpu time   23.2341: real time   26.5228

 eigenvalue-minimisations  :  4224
 total energy-change (2. order) :-0.2069391E+03  (-0.1951415E+03)
 number of electron     766.0000000 magnetization 
 augmentation part      766.0000000 magnetization 

 Free energy of the ion-electron system (eV)
  ---------------------------------------------------
  alpha Z        PSCENC =       505.22967617
  Ewald energy   TEWEN  =     85445.86399246
  -Hartree energ DENC   =    -99537.34466507
  -exchange      EXHF   =         0.00000000
  -V(xc)+E(xc)   XCENC  =     -6607.85107072
  PAW double counting   =     17092.30507181    -9042.14386232
  entropy T*S    EENTRO =        -0.22844349
  eigenvalues    EBANDS =     -2821.68243900
  atomic energy  EATOM  =     14019.20197576
  Solvation  Ediel_sol  =         0.00000000
  ---------------------------------------------------
  free energy    TOTEN  =      -946.64976441 eV

  energy without entropy =     -946.42132092  energy(sigma->0) =     -946.53554267


--------------------------------------------------------------------------------------------------------




----------------------------------------- Iteration    1(   4)  ---------------------------------------


     EDDAV:  cpu time   24.1802: real time   27.5591
       DOS:  cpu time    0.0013: real time    0.0013
    --------------------------------------------
      LOOP:  cpu time   24.1827: real time   27.5628

 eigenvalue-minimisations  :  4452
 total energy-change (2. order) :-0.9677456E+01  (-0.9497801E+01)
 number of electron     766.0000000 magnetization 
 augmentation part      766.0000000 magnetization 

 Free energy of the ion-electron system (eV)
  ---------------------------------------------------
  alpha Z        PSCENC =       505.22967617
  Ewald energy   TEWEN  =     85445.86399246
  -Hartree energ DENC   =    -99537.34466507
  -exchange      EXHF   =         0.00000000
  -V(xc)+E(xc)   XCENC  =     -6607.85107072
  PAW double counting   =     17092.30507181    -9042.14386232
  entropy T*S    EENTRO =        -0.25733247
  eigenvalues    EBANDS =     -2831.33100590
  atomic energy  EATOM  =     14019.20197576
  Solvation  Ediel_sol  =         0.00000000
  ---------------------------------------------------
  free energy    TOTEN  =      -956.32722030 eV

  energy without entropy =     -956.06988782  energy(sigma->0) =     -956.19855406


--------------------------------------------------------------------------------------------------------




----------------------------------------- Iteration    1(   5)  ---------------------------------------


     EDDAV:  cpu time   27.7601: real time   31.6406
       DOS:  cpu time    0.0020: real time    0.0020
    CHARGE:  cpu time    1.6536: real time    1.7192
    MIXING:  cpu time    0.0268: real time    0.0268
    --------------------------------------------
      LOOP:  cpu time   29.4441: real time   33.3920

 eigenvalue-minimisations  :  5304
 total energy-change (2. order) :-0.4949285E+00  (-0.4928560E+00)
 number of electron     765.9999997 magnetization 
 augmentation part      -10.1208966 magnetization 

 Broyden mixing:
  rms(total) = 0.18021E+01    rms(broyden)= 0.18015E+01
  rms(prec ) = 0.25738E+01
  weight for this iteration     100.00

 Free energy of the ion-electron system (eV)
  ---------------------------------------------------
  alpha Z        PSCENC =       505.22967617
  Ewald energy   TEWEN  =     85445.86399246
  -Hartree energ DENC   =    -99537.34466507
  -exchange      EXHF   =         0.00000000
  -V(xc)+E(xc)   XCENC  =     -6607.85107072
  PAW double counting   =     17092.30507181    -9042.14386232
  entropy T*S    EENTRO =        -0.25937234
  eigenvalues    EBANDS =     -2831.82389451
  atomic energy  EATOM  =     14019.20197576
  Solvation  Ediel_sol  =         0.00000000
  ---------------------------------------------------
  free energy    TOTEN  =      -956.82214878 eV

  energy without entropy =     -956.56277644  energy(sigma->0) =     -956.69246261


--------------------------------------------------------------------------------------------------------




----------------------------------------- Iteration    1(   6)  ---------------------------------------


    POTLOK:  cpu time    0.7966: real time    0.7973
    SETDIJ:  cpu time    0.1051: real time    0.1051
     EDDAV:  cpu time   24.7641: real time   28.2394
       DOS:  cpu time    0.0024: real time    0.0024
    CHARGE:  cpu time    1.6377: real time    1.6707
    MIXING:  cpu time    0.0281: real time    0.0284
    --------------------------------------------
      LOOP:  cpu time   27.3354: real time   30.8458

 eigenvalue-minimisations  :  4596
 total energy-change (2. order) :-0.1679213E+02  (-0.1906650E+02)
 number of electron     766.0000036 magnetization 
 augmentation part       -9.7158589 magnetization 

 Broyden mixing:
  rms(total) = 0.21033E+01    rms(broyden)= 0.21010E+01
  rms(prec ) = 0.44591E+01
  weight for this iteration     100.00

 eigenvalues of (default mixing * dielectric matrix)
  average eigenvalue GAMMA=   0.5239
  0.5239

 Free energy of the ion-electron system (eV)
  ---------------------------------------------------
  alpha Z        PSCENC =       505.22967617
  Ewald energy   TEWEN  =     85445.86399246
  -Hartree energ DENC   =   -100451.10338200
  -exchange      EXHF   =         0.00000000
  -V(xc)+E(xc)   XCENC  =     -6598.30732199
  PAW double counting   =     18941.32727867   -10892.38127641
  entropy T*S    EENTRO =        -0.24403449
  eigenvalues    EBANDS =     -1943.20119127
  atomic energy  EATOM  =     14019.20197576
  Solvation  Ediel_sol  =         0.00000000
  ---------------------------------------------------
  free energy    TOTEN  =      -973.61428311 eV

  energy without entropy =     -973.37024862  energy(sigma->0) =     -973.49226587


--------------------------------------------------------------------------------------------------------




----------------------------------------- Iteration    1(   7)  ---------------------------------------


    POTLOK:  cpu time    0.8013: real time    0.8017
    SETDIJ:  cpu time    0.1060: real time    0.1060
     EDDAV:  cpu time   22.0182: real time   25.1519
       DOS:  cpu time    0.0013: real time    0.0013
    CHARGE:  cpu time    1.6552: real time    1.6889
    MIXING:  cpu time    0.0287: real time    0.0287
    --------------------------------------------
      LOOP:  cpu time   24.6124: real time   27.7818

 eigenvalue-minimisations  :  3936
 total energy-change (2. order) : 0.4182158E+02  (-0.1496212E+02)
 number of electron     765.9999998 magnetization 
 augmentation part      -10.1299364 magnetization 

 Broyden mixing:
  rms(total) = 0.97432E+00    rms(broyden)= 0.97070E+00
  rms(prec ) = 0.11863E+01
  weight for this iteration     100.00

 eigenvalues of (default mixing * dielectric matrix)
  average eigenvalue GAMMA=   1.0380
  1.8112  0.2647

 Free energy of the ion-electron system (eV)
  ---------------------------------------------------
  alpha Z        PSCENC =       505.22967617
  Ewald energy   TEWEN  =     85445.86399246
  -Hartree energ DENC   =    -99918.36767961
  -exchange      EXHF   =         0.00000000
  -V(xc)+E(xc)   XCENC  =     -6595.52017195
  PAW double counting   =     19290.36607441   -11241.58701074
  entropy T*S    EENTRO =        -0.05589922
  eigenvalues    EBANDS =     -2436.92365944
  atomic energy  EATOM  =     14019.20197576
  Solvation  Ediel_sol  =         0.00000000
  ---------------------------------------------------
  free energy    TOTEN  =      -931.79270218 eV

  energy without entropy =     -931.73680295  energy(sigma->0) =     -931.76475257


--------------------------------------------------------------------------------------------------------




----------------------------------------- Iteration    1(   8)  ---------------------------------------


    POTLOK:  cpu time    0.8030: real time    0.8034
    SETDIJ:  cpu time    0.1060: real time    0.1060
     EDDAV:  cpu time   22.4258: real time   25.6440
       DOS:  cpu time    0.0026: real time    0.0026
    CHARGE:  cpu time    1.6641: real time    1.6982
    MIXING:  cpu time    0.0299: real time    0.0300
    --------------------------------------------
      LOOP:  cpu time   25.0331: real time   28.2869

 eigenvalue-minimisations  :  4044
 total energy-change (2. order) :-0.2126827E+01  (-0.4288593E+01)
 number of electron     765.9999995 magnetization 
 augmentation part      -10.2681545 magnetization 

 Broyden mixing:
  rms(total) = 0.59664E+00    rms(broyden)= 0.59644E+00
  rms(prec ) = 0.13437E+01
  weight for this iteration     100.00

 eigenvalues of (default mixing * dielectric matrix)
  average eigenvalue GAMMA=   1.0960
  2.3343  0.2962  0.6575

 Free energy of the ion-electron system (eV)
  ---------------------------------------------------
  alpha Z        PSCENC =       505.22967617
  Ewald energy   TEWEN  =     85445.86399246
  -Hartree energ DENC   =   -100032.79553437
  -exchange      EXHF   =         0.00000000
  -V(xc)+E(xc)   XCENC  =     -6587.39435903
  PAW double counting   =     20609.59696336   -12561.50746446
  entropy T*S    EENTRO =        -0.05041683
  eigenvalues    EBANDS =     -2332.06436196
  atomic energy  EATOM  =     14019.20197576
  Solvation  Ediel_sol  =         0.00000000
  ---------------------------------------------------
  free energy    TOTEN  =      -933.91952890 eV

  energy without entropy =     -933.86911207  energy(sigma->0) =     -933.89432049


--------------------------------------------------------------------------------------------------------




----------------------------------------- Iteration    1(   9)  ---------------------------------------


    POTLOK:  cpu time    0.8088: real time    0.8092
    SETDIJ:  cpu time    0.1059: real time    0.1059
     EDDAV:  cpu time   22.6568: real time   25.9118
       DOS:  cpu time    0.0025: real time    0.0025
    CHARGE:  cpu time    1.6594: real time    1.6927
    MIXING:  cpu time    0.0311: real time    0.0312
    --------------------------------------------
      LOOP:  cpu time   25.2661: real time   28.5561

 eigenvalue-minimisations  :  4092
 total energy-change (2. order) :-0.2064130E+01  (-0.3588204E+00)
 number of electron     766.0000001 magnetization 
 augmentation part      -10.2722437 magnetization 

 Broyden mixing:
  rms(total) = 0.61179E+00    rms(broyden)= 0.61178E+00
  rms(prec ) = 0.19563E+01
  weight for this iteration     100.00

 eigenvalues of (default mixing * dielectric matrix)
  average eigenvalue GAMMA=   0.9103
  2.4470  0.7465  0.2978  0.1497

 Free energy of the ion-electron system (eV)
  ---------------------------------------------------
  alpha Z        PSCENC =       505.22967617
  Ewald energy   TEWEN  =     85445.86399246
  -Hartree energ DENC   =   -100099.87774290
  -exchange      EXHF   =         0.00000000
  -V(xc)+E(xc)   XCENC  =     -6584.31368292
  PAW double counting   =     21090.64196883   -13042.90721306
  entropy T*S    EENTRO =        -0.06525972
  eigenvalues    EBANDS =     -2269.75737388
  atomic energy  EATOM  =     14019.20197576
  Solvation  Ediel_sol  =         0.00000000
  ---------------------------------------------------
  free energy    TOTEN  =      -935.98365926 eV

  energy without entropy =     -935.91839954  energy(sigma->0) =     -935.95102940


--------------------------------------------------------------------------------------------------------




----------------------------------------- Iteration    1(  10)  ---------------------------------------


    POTLOK:  cpu time    0.8010: real time    0.8010
    SETDIJ:  cpu time    0.1065: real time    0.1065
     EDDAV:  cpu time   23.3779: real time   26.6444
       DOS:  cpu time    0.0234: real time    0.0234
    CHARGE:  cpu time    1.6446: real time    1.6777
    MIXING:  cpu time    0.0328: real time    0.0328
    --------------------------------------------
      LOOP:  cpu time   25.9877: real time   29.2885

 eigenvalue-minimisations  :  4248
 total energy-change (2. order) : 0.6397907E+01  (-0.4965763E+00)
 number of electron     765.9999998 magnetization 
 augmentation part      -10.3050146 magnetization 

 Broyden mixing:
  rms(total) = 0.12565E+00    rms(broyden)= 0.12563E+00
  rms(prec ) = 0.24255E+00
  weight for this iteration     100.00

 eigenvalues of (default mixing * dielectric matrix)
  average eigenvalue GAMMA=   0.9216
  2.4896  1.0476  0.6416  0.2873  0.1417

 Free energy of the ion-electron system (eV)
  ---------------------------------------------------
  alpha Z        PSCENC =       505.22967617
  Ewald energy   TEWEN  =     85445.86399246
  -Hartree energ DENC   =   -100207.78741180
  -exchange      EXHF   =         0.00000000
  -V(xc)+E(xc)   XCENC  =     -6579.47133181
  PAW double counting   =     21822.80067483   -13775.66881763
  entropy T*S    EENTRO =        -0.05420772
  eigenvalues    EBANDS =     -2159.70030293
  atomic energy  EATOM  =     14019.20197576
  Solvation  Ediel_sol  =         0.00000000
  ---------------------------------------------------
  free energy    TOTEN  =      -929.58575267 eV

  energy without entropy =     -929.53154495  energy(sigma->0) =     -929.55864881


--------------------------------------------------------------------------------------------------------




----------------------------------------- Iteration    1(  11)  ---------------------------------------


    POTLOK:  cpu time    0.8022: real time    0.8028
    SETDIJ:  cpu time    0.1066: real time    0.1067
     EDDAV:  cpu time   21.6037: real time   24.7342
       DOS:  cpu time    0.0012: real time    0.0012
    CHARGE:  cpu time    1.6743: real time    1.7074
    MIXING:  cpu time    0.0346: real time    0.0346
    --------------------------------------------
      LOOP:  cpu time   24.2242: real time   27.3897

 eigenvalue-minimisations  :  3840
 total energy-change (2. order) : 0.5014016E-01  (-0.2347162E+00)
 number of electron     766.0000015 magnetization 
 augmentation part      -10.1987993 magnetization 

 Broyden mixing:
  rms(total) = 0.45660E+00    rms(broyden)= 0.45437E+00
  rms(prec ) = 0.51351E+00
  weight for this iteration     100.00

 eigenvalues of (default mixing * dielectric matrix)
  average eigenvalue GAMMA=   0.7685
  2.4969  0.8772  0.6151  0.2936  0.1425  0.1859

 Free energy of the ion-electron system (eV)
  ---------------------------------------------------
  alpha Z        PSCENC =       505.22967617
  Ewald energy   TEWEN  =     85445.86399246
  -Hartree energ DENC   =   -100283.35588845
  -exchange      EXHF   =         0.00000000
  -V(xc)+E(xc)   XCENC  =     -6578.05747804
  PAW double counting   =     21938.42277473   -13891.57990203
  entropy T*S    EENTRO =        -0.13433717
  eigenvalues    EBANDS =     -2085.12642593
  atomic energy  EATOM  =     14019.20197576
  Solvation  Ediel_sol  =         0.00000000
  ---------------------------------------------------
  free energy    TOTEN  =      -929.53561252 eV

  energy without entropy =     -929.40127534  energy(sigma->0) =     -929.46844393


--------------------------------------------------------------------------------------------------------




----------------------------------------- Iteration    1(  12)  ---------------------------------------


    POTLOK:  cpu time    0.8152: real time    0.8156
    SETDIJ:  cpu time    0.1073: real time    0.1073
     EDDAV:  cpu time   21.9913: real time   25.1799
       DOS:  cpu time    0.0027: real time    0.0027
    CHARGE:  cpu time    1.6328: real time    1.6661
    MIXING:  cpu time    0.0349: real time    0.0352
    --------------------------------------------
      LOOP:  cpu time   24.5858: real time   27.8096

 eigenvalue-minimisations  :  3948
 total energy-change (2. order) :-0.1132571E-01  (-0.2357651E+00)
 number of electron     765.9999999 magnetization 
 augmentation part      -10.3657386 magnetization 

 Broyden mixing:
  rms(total) = 0.11936E+00    rms(broyden)= 0.11379E+00
  rms(prec ) = 0.14509E+00
  weight for this iteration     100.00

 eigenvalues of (default mixing * dielectric matrix)
  average eigenvalue GAMMA=   0.8369
  2.1987  1.9161  0.5514  0.5514  0.2863  0.1419  0.2127

 Free energy of the ion-electron system (eV)
  ---------------------------------------------------
  alpha Z        PSCENC =       505.22967617
  Ewald energy   TEWEN  =     85445.86399246
  -Hartree energ DENC   =   -100277.26757775
  -exchange      EXHF   =         0.00000000
  -V(xc)+E(xc)   XCENC  =     -6577.93046183
  PAW double counting   =     21947.19689214   -13900.36541533
  entropy T*S    EENTRO =        -0.05507044
  eigenvalues    EBANDS =     -2091.42094941
  atomic energy  EATOM  =     14019.20197576
  Solvation  Ediel_sol  =         0.00000000
  ---------------------------------------------------
  free energy    TOTEN  =      -929.54693823 eV

  energy without entropy =     -929.49186779  energy(sigma->0) =     -929.51940301


--------------------------------------------------------------------------------------------------------




----------------------------------------- Iteration    1(  13)  ---------------------------------------


    POTLOK:  cpu time    0.8071: real time    0.8075
    SETDIJ:  cpu time    0.1059: real time    0.1059
     EDDAV:  cpu time   21.3878: real time   24.4620
       DOS:  cpu time    0.0223: real time    0.0224
    CHARGE:  cpu time    1.6497: real time    1.6819
    MIXING:  cpu time    0.0376: real time    0.0376
    --------------------------------------------
      LOOP:  cpu time   24.0121: real time   27.1202

 eigenvalue-minimisations  :  3792
 total energy-change (2. order) :-0.1799874E+00  (-0.9765361E-02)
 number of electron     766.0000047 magnetization 
 augmentation part       -9.8883332 magnetization 

 Broyden mixing:
  rms(total) = 0.14142E+01    rms(broyden)= 0.14086E+01
  rms(prec ) = 0.16231E+01
  weight for this iteration     100.00

 eigenvalues of (default mixing * dielectric matrix)
  average eigenvalue GAMMA=   0.8525
  2.2852  2.2852  0.6326  0.6326  0.4554  0.2865  0.1417  0.1008

 Free energy of the ion-electron system (eV)
  ---------------------------------------------------
  alpha Z        PSCENC =       505.22967617
  Ewald energy   TEWEN  =     85445.86399246
  -Hartree energ DENC   =   -100318.96920826
  -exchange      EXHF   =         0.00000000
  -V(xc)+E(xc)   XCENC  =     -6577.77704373
  PAW double counting   =     21910.83441007   -13864.26631660
  entropy T*S    EENTRO =        -0.13320454
  eigenvalues    EBANDS =     -2049.71120696
  atomic energy  EATOM  =     14019.20197576
  Solvation  Ediel_sol  =         0.00000000
  ---------------------------------------------------
  free energy    TOTEN  =      -929.72692563 eV

  energy without entropy =     -929.59372109  energy(sigma->0) =     -929.66032336


--------------------------------------------------------------------------------------------------------




----------------------------------------- Iteration    1(  14)  ---------------------------------------


    POTLOK:  cpu time    0.8122: real time    0.8123
    SETDIJ:  cpu time    0.1060: real time    0.1060
     EDDAV:  cpu time   21.5472: real time   24.6153
       DOS:  cpu time    0.0015: real time    0.0015
    CHARGE:  cpu time    1.6448: real time    1.6774
    MIXING:  cpu time    0.0393: real time    0.0393
    --------------------------------------------
      LOOP:  cpu time   24.1527: real time   27.2549

 eigenvalue-minimisations  :  3816
 total energy-change (2. order) : 0.4010691E+00  (-0.3709799E+00)
 number of electron     765.9999998 magnetization 
 augmentation part      -10.3596859 magnetization 

 Broyden mixing:
  rms(total) = 0.15165E+00    rms(broyden)= 0.10564E+00
  rms(prec ) = 0.12923E+00
  weight for this iteration     100.00
  WARNING: grid for Broyden might be to small

 eigenvalues of (default mixing * dielectric matrix)
  average eigenvalue GAMMA=   0.8949
  2.5065  2.5065  0.7427  0.7427  0.5127  0.5127  0.2860  0.1418  0.1024

 Free energy of the ion-electron system (eV)
  ---------------------------------------------------
  alpha Z        PSCENC =       505.22967617
  Ewald energy   TEWEN  =     85445.86399246
  -Hartree energ DENC   =   -100333.50301800
  -exchange      EXHF   =         0.00000000
  -V(xc)+E(xc)   XCENC  =     -6577.25449380
  PAW double counting   =     21919.73280961   -13873.34549883
  entropy T*S    EENTRO =        -0.05521961
  eigenvalues    EBANDS =     -2035.19608031
  atomic energy  EATOM  =     14019.20197576
  Solvation  Ediel_sol  =         0.00000000
  ---------------------------------------------------
  free energy    TOTEN  =      -929.32585656 eV

  energy without entropy =     -929.27063695  energy(sigma->0) =     -929.29824675


--------------------------------------------------------------------------------------------------------




----------------------------------------- Iteration    1(  15)  ---------------------------------------


    POTLOK:  cpu time    0.8091: real time    0.8092
    SETDIJ:  cpu time    0.1063: real time    0.1063
     EDDAV:  cpu time   20.5162: real time   23.4258
       DOS:  cpu time    0.0017: real time    0.0017
    CHARGE:  cpu time    1.6793: real time    1.7128
    MIXING:  cpu time    0.0407: real time    0.0407
    --------------------------------------------
      LOOP:  cpu time   23.1548: real time   26.0993

 eigenvalue-minimisations  :  3564
 total energy-change (2. order) :-0.1516864E+00  (-0.4672134E-02)
 number of electron     765.9999998 magnetization 
 augmentation part      -10.3582279 magnetization 

 Broyden mixing:
  rms(total) = 0.11079E+00    rms(broyden)= 0.10861E+00
  rms(prec ) = 0.12802E+00
  weight for this iteration     100.00

 eigenvalues of (default mixing * dielectric matrix)
  average eigenvalue GAMMA=   0.9059
  2.5279  2.5279  0.9461  0.9461  0.6463  0.4671  0.4671  0.2862  0.1417  0.1025

 Free energy of the ion-electron system (eV)
  ---------------------------------------------------
  alpha Z        PSCENC =       505.22967617
  Ewald energy   TEWEN  =     85445.86399246
  -Hartree energ DENC   =   -100364.92826581
  -exchange      EXHF   =         0.00000000
  -V(xc)+E(xc)   XCENC  =     -6576.78482389
  PAW double counting   =     21949.81694065   -13903.56836233
  entropy T*S    EENTRO =        -0.05522392
  eigenvalues    EBANDS =     -2004.25345207
  atomic energy  EATOM  =     14019.20197576
  Solvation  Ediel_sol  =         0.00000000
  ---------------------------------------------------
  free energy    TOTEN  =      -929.47754299 eV

  energy without entropy =     -929.42231907  energy(sigma->0) =     -929.44993103


--------------------------------------------------------------------------------------------------------




----------------------------------------- Iteration    1(  16)  ---------------------------------------


    POTLOK:  cpu time    0.8115: real time    0.8126
    SETDIJ:  cpu time    0.1070: real time    0.1070
     EDDAV:  cpu time   21.9169: real time   25.0840
       DOS:  cpu time    0.0023: real time    0.0023
    CHARGE:  cpu time    1.6716: real time    1.7049
    MIXING:  cpu time    0.0420: real time    0.0421
    --------------------------------------------
      LOOP:  cpu time   24.5529: real time   27.7556

 eigenvalue-minimisations  :  3924
 total energy-change (2. order) :-0.1732446E-01  (-0.1424961E-02)
 number of electron     765.9999998 magnetization 
 augmentation part      -10.3590114 magnetization 

 Broyden mixing:
  rms(total) = 0.11050E+00    rms(broyden)= 0.11038E+00
  rms(prec ) = 0.12826E+00
  weight for this iteration     100.00

 eigenvalues of (default mixing * dielectric matrix)
  average eigenvalue GAMMA=   0.8955
  2.5269  2.5269  1.1454  1.1454  0.5711  0.4977  0.4977  0.2862  0.4087  0.1417
  0.1025

 Free energy of the ion-electron system (eV)
  ---------------------------------------------------
  alpha Z        PSCENC =       505.22967617
  Ewald energy   TEWEN  =     85445.86399246
  -Hartree energ DENC   =   -100376.96573834
  -exchange      EXHF   =         0.00000000
  -V(xc)+E(xc)   XCENC  =     -6576.53273806
  PAW double counting   =     21963.25334286   -13917.02697078
  entropy T*S    EENTRO =        -0.05530688
  eigenvalues    EBANDS =     -1992.46310064
  atomic energy  EATOM  =     14019.20197576
  Solvation  Ediel_sol  =         0.00000000
  ---------------------------------------------------
  free energy    TOTEN  =      -929.49486745 eV

  energy without entropy =     -929.43956057  energy(sigma->0) =     -929.46721401


--------------------------------------------------------------------------------------------------------




----------------------------------------- Iteration    1(  17)  ---------------------------------------


    POTLOK:  cpu time    0.8126: real time    0.8129
    SETDIJ:  cpu time    0.1062: real time    0.1062
     EDDAV:  cpu time   19.8107: real time   22.6435
       DOS:  cpu time    0.0154: real time    0.0154
    CHARGE:  cpu time    1.6515: real time    1.6848
    MIXING:  cpu time    0.0448: real time    0.0448
[...]
     11.69112     -8.59029     -8.26601         0.000550     -0.000151      0.000361
     11.69112    -17.18057    -13.22561         0.001030     -0.000053     -0.000033
     11.69112    -11.45372     -3.30640         0.000835      0.000064     -0.000188
     11.69112    -14.31714     -8.26601         0.001012      0.000107      0.000164
     13.99306      0.00000      0.00000        -0.001839      0.000070     -0.000013
     13.99306     -2.86343     -4.95960        -0.002134     -0.000062     -0.000068
     13.99306     -5.72686     -9.91921        -0.002686     -0.000242      0.000105
     13.99306     -5.72686      0.00000        -0.002118     -0.000106     -0.000035
     13.99306     -8.59029     -4.95960        -0.005943     -0.000165     -0.000362
     13.99306    -11.45372     -9.91921        -0.004259      0.000182      0.000188
     13.99306    -11.45372      0.00000        -0.002248      0.000074     -0.000250
     13.99306    -14.31714     -4.95960        -0.003190      0.000162     -0.000015
     13.99306    -17.18057     -9.91921        -0.002216      0.000100     -0.000067
     16.34180     -2.86343     -1.65320        -0.000342     -0.000045      0.000036
     16.34180     -5.72686     -6.61281         0.001137     -0.001008      0.000194
     16.34180     -8.59029    -11.57241         0.000731     -0.000344      0.000644
     16.34180     -8.59029     -1.65320         0.000705     -0.000179     -0.000932
     16.34180    -11.45372     -6.61281         0.007024      0.000960      0.000161
     16.34180    -14.31714    -11.57241        -0.000035      0.000442      0.000361
     16.34180    -14.31714     -1.65320         0.000160      0.000199     -0.000398
     16.34180    -17.18057     -6.61281        -0.000184      0.000458      0.000133
     16.34180    -20.04400    -11.57241        -0.000278     -0.000187     -0.000019
      2.36204     -7.15857     -4.13300        -0.000831     -0.000268     -0.000528
      2.36204    -10.02200     -9.09261        -0.001441      0.000000      0.000636
      2.36204    -12.88543    -14.05221        -0.000129      0.000162     -0.000058
      2.36204    -12.88543     -4.13300        -0.000831      0.000268     -0.000528
      2.36204    -15.74886     -9.09261        -0.000085      0.000232      0.000164
      2.36204    -18.61229    -14.05221         0.000020      0.000000     -0.000241
      2.36204    -18.61229     -4.13300         0.000000      0.000000      0.000155
      2.36204    -21.47572     -9.09261        -0.000085     -0.000232      0.000164
      2.36204    -24.33915    -14.05221        -0.000129     -0.000162     -0.000058
      4.71078    -10.02200     -5.78621        -0.000487      0.000000     -0.000332
      4.71078    -12.88543    -10.74581        -0.000055      0.000111     -0.000005
      4.71078     -7.15857     -0.82660        -0.000017      0.000070      0.000057
      4.71078    -15.74886     -5.78621         0.000025      0.000040      0.000111
      4.71078    -18.61229    -10.74581        -0.000237      0.000000     -0.000109
      4.71078    -12.88543     -0.82660        -0.000017     -0.000070      0.000057
      4.71078     -4.29514     -5.78621         0.000025     -0.000040      0.000111
      4.71078     -7.15857    -10.74581        -0.000055     -0.000111     -0.000005
      4.71078     -1.43171     -0.82660         0.000053      0.000000     -0.000043
      7.01272    -12.88543     -7.43941         0.001433      0.000164      0.000126
      7.01272    -15.74886    -12.39901         0.001427     -0.000170     -0.000040
      7.01272    -10.02200     -2.47980         0.001451      0.000000      0.000232
      7.01272    -18.61229     -7.43941         0.001481      0.000000      0.000019
      7.01272    -21.47572    -12.39901         0.001427      0.000170     -0.000040
      7.01272    -15.74886     -2.47980         0.001321     -0.000091      0.000157
      7.01272     -7.15857     -7.43941         0.001433     -0.000164      0.000126
      7.01272    -10.02200    -12.39901         0.001422      0.000000     -0.000121
      7.01272     -4.29514     -2.47980         0.001321      0.000091      0.000157
      9.35192    -15.74886     -9.09261         0.000772     -0.000074     -0.000041
      9.35192    -18.61229    -14.05221         0.000546      0.000000      0.000063
      9.35192    -12.88543     -4.13300         0.001648      0.000090     -0.000174
      9.35192    -21.47572     -9.09261         0.000772      0.000074     -0.000041
      9.35192    -24.33915    -14.05221         0.000943     -0.000075     -0.000110
      9.35192    -18.61229     -4.13300         0.001119      0.000000      0.000119
      9.35192    -10.02200     -9.09261         0.002202      0.000000      0.000388
      9.35192    -12.88543    -14.05221         0.000943      0.000075     -0.000110
      9.35192     -7.15857     -4.13300         0.001648     -0.000090     -0.000174
     11.69112    -18.61229    -10.74581         0.001030      0.000000     -0.000112
     11.69112    -12.88543     -0.82660         0.001073      0.000122     -0.000065
     11.69112    -15.74886     -5.78621         0.001058      0.000125     -0.000066
     11.69112     -7.15857    -10.74581         0.001130     -0.000076      0.000091
     11.69112     -1.43171     -0.82660         0.001019      0.000000     -0.000066
     11.69112     -4.29514     -5.78621         0.001058     -0.000125     -0.000066
     11.69112    -12.88543    -10.74581         0.001130      0.000076      0.000091
     11.69112     -7.15857     -0.82660         0.001073     -0.000122     -0.000065
     11.69112    -10.02200     -5.78621         0.000243      0.000000     -0.000265
     13.99306    -21.47572    -12.39901        -0.002208     -0.000019      0.000175
     13.99306    -15.74886     -2.47980        -0.002124      0.000144     -0.000069
     13.99306    -18.61229     -7.43941        -0.002128      0.000000     -0.000053
     13.99306    -10.02200    -12.39901        -0.002471      0.000000      0.000275
     13.99306     -4.29514     -2.47980        -0.002124     -0.000144     -0.000069
     13.99306     -7.15857     -7.43941        -0.004684     -0.000507      0.000277
     13.99306    -15.74886    -12.39901        -0.002208      0.000019      0.000175
     13.99306    -10.02200     -2.47980        -0.003626      0.000000     -0.000409
     13.99306    -12.88543     -7.43941        -0.004684      0.000507      0.000277
     16.34180    -24.33915    -14.05221        -0.000339     -0.000158      0.000099
     16.34180    -18.61229     -4.13300        -0.000499      0.000000     -0.000052
     16.34180    -21.47572     -9.09261         0.000184     -0.000691      0.000392
     16.34180    -12.88543    -14.05221        -0.000339      0.000158      0.000099
     16.34180     -7.15857     -4.13300         0.002168     -0.000746     -0.000784
     16.34180    -10.02200     -9.09261         0.005936      0.000000      0.001208
     16.34180    -18.61229    -14.05221        -0.000233      0.000000     -0.000465
     16.34180    -12.88543     -4.13300         0.002168      0.000746     -0.000784
     16.34180    -15.74886     -9.09261         0.000184      0.000691      0.000392
      2.36204     -8.59029     -6.61281        -0.001755     -0.000401     -0.000023
      2.36204    -11.45372    -11.57241        -0.000445      0.000176      0.000179
      2.36204     -5.72686     -1.65320        -0.000329     -0.000004     -0.000050
      2.36204    -14.31714     -6.61281        -0.000599      0.000526      0.000123
      2.36204    -17.18057    -11.57241         0.000044     -0.000040      0.000019
      2.36204    -11.45372     -1.65320        -0.000360      0.000011     -0.000138
      2.36204    -20.04400     -6.61281        -0.000102     -0.000120      0.000054
      2.36204    -22.90743    -11.57241        -0.000061     -0.000204      0.000074
      2.36204    -17.18057     -1.65320        -0.000149     -0.000081      0.000063
      4.71078    -11.45372     -8.26601        -0.000253      0.000297      0.000463
      4.71078    -14.31714    -13.22561        -0.000201      0.000142     -0.000098
      4.71078     -8.59029     -3.30640        -0.000085     -0.000060     -0.000406
      4.71078    -17.18057     -8.26601        -0.000008      0.000016      0.000203
      4.71078    -20.04400    -13.22561        -0.000145     -0.000042     -0.000072
      4.71078    -14.31714     -3.30640        -0.000001     -0.000051     -0.000132
      4.71078     -5.72686     -8.26601         0.000114     -0.000247      0.000181
      4.71078     -8.59029    -13.22561        -0.000045     -0.000075     -0.000105
      4.71078     -2.86343     -3.30640        -0.000127      0.000114      0.000099
      7.01272    -14.31714     -9.91921         0.001517     -0.000117      0.000106
      7.01272     -8.59029      0.00000         0.001580     -0.000095      0.000087
      7.01272    -11.45372     -4.95960         0.001222      0.000162     -0.000491
      7.01272    -20.04400     -9.91921         0.001500      0.000006     -0.000059
      7.01272    -14.31714      0.00000         0.001427      0.000019      0.000026
      7.01272    -17.18057     -4.95960         0.001306     -0.000011     -0.000151
      7.01272     -8.59029     -9.91921         0.001339      0.000004      0.000262
      7.01272     -2.86343      0.00000         0.001494      0.000066     -0.000046
      7.01272     -5.72686     -4.95960         0.001382     -0.000116     -0.000288
      9.35192    -17.18057    -11.57241         0.000679     -0.000143      0.000006
      9.35192    -11.45372     -1.65320         0.001111      0.000059      0.000193
      9.35192    -14.31714     -6.61281         0.001349      0.000102     -0.000084
      9.35192    -22.90743    -11.57241         0.000862      0.000096      0.000059
      9.35192    -17.18057     -1.65320         0.001126     -0.000102      0.000040
      9.35192    -20.04400     -6.61281         0.000839     -0.000009     -0.000063
      9.35192    -11.45372    -11.57241         0.001368      0.000025     -0.000015
      9.35192     -5.72686     -1.65320         0.001191      0.000062      0.000042
      9.35192     -8.59029     -6.61281         0.002572     -0.000176     -0.000066
     11.69112    -20.04400    -13.22561         0.001030      0.000053     -0.000033
     11.69112    -14.31714     -3.30640         0.001098     -0.000014     -0.000057
     11.69112    -17.18057     -8.26601         0.001084      0.000117      0.000074
     11.69112     -8.59029    -13.22561         0.001051     -0.000093     -0.000069
     11.69112     -2.86343     -3.30640         0.001140      0.000068      0.000131
     11.69112     -5.72686     -8.26601         0.001012     -0.000107      0.000164
     11.69112    -14.31714    -13.22561         0.001154      0.000044      0.000006
     11.69112     -8.59029     -3.30640         0.000835     -0.000064     -0.000188
     11.69112    -11.45372     -8.26601         0.000550      0.000151      0.000361
     13.99306    -14.31714      0.00000        -0.002118      0.000106     -0.000035
     13.99306    -17.18057     -4.95960        -0.002134      0.000062     -0.000068
     13.99306    -20.04400     -9.91921        -0.002216     -0.000100     -0.000067
     13.99306     -2.86343      0.00000        -0.001839     -0.000070     -0.000013
     13.99306     -5.72686     -4.95960        -0.003190     -0.000162     -0.000015
     13.99306     -8.59029     -9.91921        -0.004259     -0.000182      0.000188
     13.99306     -8.59029      0.00000        -0.002248     -0.000074     -0.000250
     13.99306    -11.45372     -4.95960        -0.005943      0.000165     -0.000362
     13.99306    -14.31714     -9.91921        -0.002686      0.000242      0.000105
     16.34180    -17.18057     -1.65320        -0.000342      0.000045      0.000036
     16.34180    -20.04400     -6.61281        -0.000184     -0.000458      0.000133
     16.34180    -22.90743    -11.57241        -0.000035     -0.000442      0.000361
     16.34180     -5.72686     -1.65320         0.000160     -0.000199     -0.000398
     16.34180     -8.59029     -6.61281         0.007024     -0.000960      0.000161
     16.34180    -11.45372    -11.57241         0.000731      0.000344      0.000644
     16.34180    -11.45372     -1.65320         0.000705      0.000179     -0.000932
     16.34180    -14.31714     -6.61281         0.001137      0.001008      0.000194
     16.34180    -17.18057    -11.57241        -0.000278      0.000187     -0.000019
      2.36204    -10.02200     -4.13300        -0.001125      0.000000     -0.000816
      2.36204    -12.88543     -9.09261        -0.000776      0.000536      0.000469
      2.36204    -15.74886    -14.05221        -0.000049      0.000030     -0.000260
      2.36204    -15.74886     -4.13300        -0.000243      0.000206     -0.000020
      2.36204    -18.61229     -9.09261         0.000028      0.000000      0.000066
      2.36204    -21.47572    -14.05221        -0.000049     -0.000030     -0.000260
      2.36204     -4.29514     -4.13300        -0.000243     -0.000206     -0.000020
      2.36204     -7.15857     -9.09261        -0.000776     -0.000536      0.000469
      2.36204    -10.02200    -14.05221        -0.000214      0.000000     -0.000017
      4.71078    -12.88543     -5.78621        -0.000288      0.000355     -0.000069
      4.71078    -15.74886    -10.74581        -0.000145      0.000064     -0.000067
      4.71078    -10.02200     -0.82660         0.000081      0.000000     -0.000020
      4.71078    -18.61229     -5.78621        -0.000163      0.000000      0.000106
      4.71078    -21.47572    -10.74581        -0.000145     -0.000064     -0.000067
      4.71078    -15.74886     -0.82660        -0.000005     -0.000135      0.000031
      4.71078     -7.15857     -5.78621        -0.000288     -0.000355     -0.000069
      4.71078    -10.02200    -10.74581        -0.000063      0.000000      0.000068
      4.71078     -4.29514     -0.82660        -0.000005      0.000135      0.000031
      7.01272    -15.74886     -7.43941         0.001545      0.000038     -0.000052
      7.01272    -18.61229    -12.39901         0.001607      0.000000     -0.000064
      7.01272    -12.88543     -2.47980         0.001356      0.000076      0.000152
      7.01272    -21.47571     -7.43941         0.001545     -0.000038     -0.000052
      7.01272    -24.33914    -12.39901         0.001273     -0.000035     -0.000095
      7.01272    -18.61228     -2.47980         0.001401      0.000000      0.000226
      7.01272    -10.02200     -7.43941         0.001292      0.000000      0.000307
      7.01272    -12.88543    -12.39901         0.001273      0.000035     -0.000095
      7.01272     -7.15857     -2.47980         0.001356     -0.000076      0.000152
      9.35192    -18.61229     -9.09261         0.000822      0.000000     -0.000084
      9.35192    -21.47572    -14.05221         0.000703      0.000102     -0.000047
      9.35192    -15.74886     -4.13300         0.001207      0.000025     -0.000014
      9.35192     -7.15857     -9.09261         0.001451      0.000042      0.000146
      9.35192    -10.02200    -14.05221         0.001024      0.000000     -0.000083
      9.35192     -4.29514     -4.13300         0.001207     -0.000025     -0.000014
      9.35192    -12.88543     -9.09261         0.001451     -0.000042      0.000146
      9.35192    -15.74886    -14.05221         0.000703     -0.000102     -0.000047
      9.35192    -10.02200     -4.13300         0.001982      0.000000     -0.000237
     11.69112    -21.47572    -10.74581         0.001160     -0.000011      0.000038
     11.69112    -15.74886     -0.82660         0.001058     -0.000200     -0.000035
     11.69112    -18.61229     -5.78621         0.001148      0.000000      0.000039
     11.69112    -10.02200    -10.74581         0.000853      0.000000      0.000091
     11.69112     -4.29514     -0.82660         0.001058      0.000200     -0.000035
     11.69112     -7.15857     -5.78621         0.000772     -0.000280     -0.000217
     11.69112    -15.74886    -10.74581         0.001160      0.000011      0.000038
     11.69112    -10.02200     -0.82660         0.001088      0.000000     -0.000049
     11.69112    -12.88543     -5.78621         0.000772      0.000280     -0.000217
     13.99306    -24.33914    -12.39901        -0.002406      0.000008      0.000289
     13.99306    -18.61228     -2.47980        -0.001889      0.000000     -0.000061
     13.99306    -21.47571     -7.43941        -0.002350     -0.000255      0.000023
     13.99306    -12.88543    -12.39901        -0.002406     -0.000008      0.000289
     13.99306     -7.15857     -2.47980        -0.002925     -0.000078     -0.000207
     13.99306    -10.02200     -7.43941        -0.007822      0.000000      0.000196
     13.99306    -18.61229    -12.39901        -0.002149      0.000000      0.000099
     13.99306    -12.88543     -2.47980        -0.002925      0.000078     -0.000207
     13.99306    -15.74886     -7.43941        -0.002350      0.000255      0.000023
     16.34180    -10.02200    -14.05221        -0.000341      0.000000      0.000181
     16.34180     -4.29514     -4.13300         0.000171     -0.000436     -0.000204
     16.34180     -7.15857     -9.09261         0.002103     -0.001121      0.000860
     16.34180    -15.74886    -14.05221        -0.000303     -0.000051     -0.000170
     16.34180    -10.02200     -4.13300         0.005728      0.000000     -0.001671
     16.34180    -12.88543     -9.09261         0.002103      0.001121      0.000860
     16.34180    -21.47572    -14.05221        -0.000303      0.000051     -0.000170
     16.34180    -15.74886     -4.13300         0.000171      0.000436     -0.000204
     16.34180    -18.61229     -9.09261        -0.000192      0.000000      0.000117
     22.04000    -10.02200     -7.43941        -0.022027     -0.000000     12.880776
     22.04000    -10.02200     -5.78620        -0.019702      0.000000    -12.880614
 -----------------------------------------------------------------------------------
    total drift:                                0.082163      0.002118      0.000166


--------------------------------------------------------------------------------------------------------



  FREE ENERGIE OF THE ION-ELECTRON SYSTEM (eV)
  ---------------------------------------------------
  free  energy   TOTEN  =      -929.49274384 eV

  energy  without entropy=     -929.41352102  energy(sigma->0) =     -929.45313243
 


--------------------------------------------------------------------------------------------------------


    POTLOK:  cpu time    0.9396: real time    0.9488


--------------------------------------------------------------------------------------------------------


     LOOP+:  cpu time  752.9531: real time  851.6048
    4ORBIT:  cpu time    0.0000: real time    0.0000

 total amount of memory used by VASP MPI-rank0   652153. kBytes
=======================================================================

   base      :      30000. kBytes
   nonlr-proj:      89932. kBytes
   fftplans  :      40601. kBytes
   grid      :      95147. kBytes
   one-center:       3950. kBytes
   wavefun   :     392523. kBytes
 
  
  
 General timing and accounting informations for this job:
 ========================================================
  
                  Total CPU time used (sec):      769.817
                            User time (sec):      110.332
                          System time (sec):      659.485
                         Elapsed time (sec):      872.203
  
                   Maximum memory used (kb):     1006532.
                   Average memory used (kb):           0.
  
                          Minor page faults:     28832873
                          Major page faults:           51
                 Voluntary context switches:        20006
