 254 254   0   0
  0.2268316E+02  0.1514622E-08  0.1514622E-08  0.2900000E-08  0.5000000E-15
  1.000000000000000E-004
  CAR 
 NiAl                                    
      6.21582777    -27.28345414  301     -0.57449563      1.00000000
    -27.283  0.0000E+00  0.0000E+00
    -27.172  0.0000E+00  0.0000E+00
    -27.060  0.0000E+00  0.0000E+00
    -26.948  0.0000E+00  0.0000E+00
    -26.837  0.0000E+00  0.0000E+00
    -26.725  0.0000E+00  0.0000E+00
    -26.613  0.0000E+00  0.0000E+00
    -26.502  0.0000E+00  0.0000E+00
    -26.390  0.0000E+00  0.0000E+00
    -26.278  0.0000E+00  0.0000E+00
    -26.167  0.0000E+00  0.0000E+00
    -26.055  0.9943E-15  0.1110E-15
    -25.943  0.2057E-05  0.2297E-06
    -25.832  0.3929E+00  0.4387E-01
    -25.720  0.1525E+02  0.1747E+01
    -25.608  0.2266E+01  0.2000E+01
    -25.497  0.1521E-03  0.2000E+01
    -25.385  0.7770E-12  0.2000E+01
    -25.273  0.0000E+00  0.2000E+01
    -25.162  0.0000E+00  0.2000E+01
    -25.050  0.0000E+00  0.2000E+01
    -24.939  0.0000E+00  0.2000E+01
    -24.827  0.0000E+00  0.2000E+01
    -24.715  0.0000E+00  0.2000E+01
    -24.604  0.0000E+00  0.2000E+01
    -24.492  0.0000E+00  0.2000E+01
    -24.380  0.0000E+00  0.2000E+01
    -24.269  0.0000E+00  0.2000E+01
    -24.157  0.0000E+00  0.2000E+01
    -24.045  0.0000E+00  0.2000E+01
    -23.934  0.0000E+00  0.2000E+01
    -23.822  0.0000E+00  0.2000E+01
    -23.710  0.0000E+00  0.2000E+01
    -23.599  0.0000E+00  0.2000E+01
    -23.487  0.0000E+00  0.2000E+01
    -23.375  0.0000E+00  0.2000E+01
    -23.264  0.0000E+00  0.2000E+01
    -23.152  0.0000E+00  0.2000E+01
    -23.040  0.0000E+00  0.2000E+01
    -22.929  0.0000E+00  0.2000E+01
    -22.817  0.0000E+00  0.2000E+01
    -22.705  0.0000E+00  0.2000E+01
    -22.594  0.0000E+00  0.2000E+01
    -22.482  0.0000E+00  0.2000E+01
    -22.370  0.0000E+00  0.2000E+01
    -22.259  0.0000E+00  0.2000E+01
    -22.147  0.0000E+00  0.2000E+01
    -22.035  0.0000E+00  0.2000E+01
    -21.924  0.0000E+00  0.2000E+01
    -21.812  0.0000E+00  0.2000E+01
    -21.700  0.0000E+00  0.2000E+01
    -21.589  0.0000E+00  0.2000E+01
    -21.477  0.0000E+00  0.2000E+01
    -21.365  0.0000E+00  0.2000E+01
    -21.254  0.0000E+00  0.2000E+01
    -21.142  0.0000E+00  0.2000E+01
    -21.030  0.0000E+00  0.2000E+01
    -20.919  0.0000E+00  0.2000E+01
    -20.807  0.0000E+00  0.2000E+01
    -20.695  0.0000E+00  0.2000E+01
    -20.584  0.0000E+00  0.2000E+01
    -20.472  0.0000E+00  0.2000E+01
    -20.360  0.0000E+00  0.2000E+01
    -20.249  0.0000E+00  0.2000E+01
    -20.137  0.0000E+00  0.2000E+01
    -20.025  0.0000E+00  0.2000E+01
    -19.914  0.0000E+00  0.2000E+01
    -19.802  0.0000E+00  0.2000E+01
    -19.690  0.0000E+00  0.2000E+01
    -19.579  0.0000E+00  0.2000E+01
    -19.467  0.0000E+00  0.2000E+01
    -19.355  0.0000E+00  0.2000E+01
    -19.244  0.0000E+00  0.2000E+01
    -19.132  0.0000E+00  0.2000E+01
    -19.020  0.0000E+00  0.2000E+01
    -18.909  0.0000E+00  0.2000E+01
    -18.797  0.0000E+00  0.2000E+01
    -18.685  0.0000E+00  0.2000E+01
    -18.574  0.0000E+00  0.2000E+01
    -18.462  0.0000E+00  0.2000E+01
    -18.350  0.0000E+00  0.2000E+01
    -18.239  0.0000E+00  0.2000E+01
    -18.127  0.0000E+00  0.2000E+01
    -18.015  0.0000E+00  0.2000E+01
    -17.904  0.0000E+00  0.2000E+01
    -17.792  0.0000E+00  0.2000E+01
    -17.680  0.0000E+00  0.2000E+01
    -17.569  0.0000E+00  0.2000E+01
    -17.457  0.0000E+00  0.2000E+01
    -17.345  0.0000E+00  0.2000E+01
    -17.234  0.0000E+00  0.2000E+01
    -17.122  0.0000E+00  0.2000E+01
    -17.010  0.0000E+00  0.2000E+01
    -16.899  0.0000E+00  0.2000E+01
    -16.787  0.0000E+00  0.2000E+01
    -16.675  0.0000E+00  0.2000E+01
    -16.564  0.0000E+00  0.2000E+01
    -16.452  0.0000E+00  0.2000E+01
    -16.340  0.0000E+00  0.2000E+01
    -16.229  0.0000E+00  0.2000E+01
    -16.117  0.0000E+00  0.2000E+01
    -16.005  0.0000E+00  0.2000E+01
    -15.894  0.0000E+00  0.2000E+01
    -15.782  0.0000E+00  0.2000E+01
    -15.670  0.0000E+00  0.2000E+01
    -15.559  0.0000E+00  0.2000E+01
    -15.447  0.0000E+00  0.2000E+01
    -15.335  0.0000E+00  0.2000E+01
    -15.224  0.0000E+00  0.2000E+01
    -15.112  0.0000E+00  0.2000E+01
    -15.000  0.0000E+00  0.2000E+01
    -14.889  0.0000E+00  0.2000E+01
    -14.777  0.0000E+00  0.2000E+01
    -14.665  0.0000E+00  0.2000E+01
    -14.554  0.0000E+00  0.2000E+01
    -14.442  0.0000E+00  0.2000E+01
    -14.330  0.0000E+00  0.2000E+01
    -14.219  0.0000E+00  0.2000E+01
    -14.107  0.0000E+00  0.2000E+01
    -13.995  0.0000E+00  0.2000E+01
    -13.884  0.0000E+00  0.2000E+01
    -13.772  0.0000E+00  0.2000E+01
    -13.660  0.0000E+00  0.2000E+01
    -13.549  0.0000E+00  0.2000E+01
    -13.437  0.0000E+00  0.2000E+01
    -13.325  0.0000E+00  0.2000E+01
    -13.214  0.0000E+00  0.2000E+01
    -13.102  0.0000E+00  0.2000E+01
    -12.990  0.0000E+00  0.2000E+01
    -12.879  0.0000E+00  0.2000E+01
    -12.767  0.0000E+00  0.2000E+01
    -12.655  0.0000E+00  0.2000E+01
    -12.544  0.0000E+00  0.2000E+01
    -12.432  0.0000E+00  0.2000E+01
    -12.320  0.0000E+00  0.2000E+01
    -12.209  0.0000E+00  0.2000E+01
    -12.097  0.0000E+00  0.2000E+01
    -11.985  0.0000E+00  0.2000E+01
    -11.874  0.0000E+00  0.2000E+01
    -11.762  0.0000E+00  0.2000E+01
    -11.650  0.0000E+00  0.2000E+01
    -11.539  0.0000E+00  0.2000E+01
    -11.427  0.4762E-07  0.2000E+01
    -11.315  0.6621E-01  0.2007E+01
    -11.204  0.1219E+02  0.3369E+01
    -11.092  0.5652E+01  0.4000E+01
    -10.980  0.2460E-02  0.4000E+01
    -10.869  0.9603E-10  0.4000E+01
    -10.757  0.0000E+00  0.4000E+01
    -10.645  0.0000E+00  0.4000E+01
    -10.534  0.0000E+00  0.4000E+01
    -10.422  0.0000E+00  0.4000E+01
    -10.310  0.2530E-12  0.4000E+01
    -10.199  0.7767E-04  0.4000E+01
    -10.087  0.1766E+01  0.4197E+01
     -9.975  0.1559E+02  0.5938E+01
     -9.864  0.5523E+00  0.6000E+01
     -9.752  0.4465E-05  0.6000E+01
     -9.640  0.2336E-12  0.6000E+01
     -9.529  0.7388E-04  0.6000E+01
     -9.417  0.1731E+01  0.6193E+01
     -9.306  0.1561E+02  0.7937E+01
     -9.194  0.5673E+00  0.8000E+01
     -9.082  0.9688E+00  0.8108E+01
     -8.971  0.3470E+01  0.8496E+01
     -8.859  0.4382E+01  0.8985E+01
     -8.747  0.2211E+02  0.1145E+02
     -8.636  0.4173E+00  0.1150E+02
     -8.524  0.2036E+01  0.1173E+02
     -8.412  0.5797E+01  0.1237E+02
     -8.301  0.3460E+02  0.1624E+02
     -8.189  0.1947E+02  0.1841E+02
     -8.077  0.2264E+02  0.2094E+02
     -7.966  0.5546E+00  0.2100E+02
     -7.854  0.1415E+02  0.2258E+02
     -7.742  0.1344E+02  0.2408E+02
     -7.631  0.2137E+02  0.2647E+02
     -7.519  0.3974E+02  0.3091E+02
     -7.407  0.4996E+02  0.3649E+02
     -7.296  0.1418E+02  0.3807E+02
     -7.184  0.4267E+01  0.3855E+02
     -7.072  0.3366E+02  0.4230E+02
     -6.961  0.6776E+02  0.4987E+02
     -6.849  0.1945E+02  0.5204E+02
     -6.737  0.1289E+02  0.5348E+02
     -6.626  0.2262E+02  0.5601E+02
     -6.514  0.2435E+02  0.5873E+02
     -6.402  0.3939E+02  0.6313E+02
     -6.291  0.7102E+02  0.7106E+02
     -6.179  0.3533E+02  0.7500E+02
     -6.067  0.3178E+02  0.7855E+02
     -5.956  0.6272E+02  0.8555E+02
     -5.844  0.8608E+02  0.9517E+02
     -5.732  0.7452E+01  0.9600E+02
     -5.621  0.4550E+01  0.9651E+02
     -5.509  0.3110E+02  0.9998E+02
     -5.397  0.9332E+02  0.1104E+03
     -5.286  0.1194E+03  0.1237E+03
     -5.174  0.5689E+02  0.1301E+03
     -5.062  0.1099E+03  0.1424E+03
     -4.951  0.1088E+03  0.1545E+03
     -4.839  0.4282E+02  0.1593E+03
     -4.727  0.1716E+03  0.1784E+03
     -4.616  0.2167E+03  0.2026E+03
     -4.504  0.2185E+03  0.2270E+03
     -4.392  0.2383E+03  0.2537E+03
     -4.281  0.3150E+03  0.2888E+03
     -4.169  0.2519E+03  0.3170E+03
     -4.057  0.2421E+03  0.3440E+03
     -3.946  0.4311E+03  0.3921E+03
     -3.834  0.5240E+03  0.4506E+03
     -3.722  0.4508E+03  0.5010E+03
     -3.611  0.4570E+03  0.5520E+03
     -3.499  0.4181E+03  0.5987E+03
     -3.387  0.3756E+03  0.6406E+03
     -3.276  0.3491E+03  0.6796E+03
     -3.164  0.5083E+03  0.7364E+03
     -3.052  0.4634E+03  0.7881E+03
     -2.941  0.4120E+03  0.8341E+03
     -2.829  0.5983E+03  0.9009E+03
     -2.717  0.4885E+03  0.9555E+03
     -2.606  0.5505E+03  0.1017E+04
     -2.494  0.6455E+03  0.1089E+04
     -2.382  0.7308E+03  0.1171E+04
     -2.271  0.8685E+03  0.1268E+04
     -2.159  0.8451E+03  0.1362E+04
     -2.047  0.8553E+03  0.1457E+04
     -1.936  0.8095E+03  0.1548E+04
     -1.824  0.5624E+03  0.1611E+04
     -1.712  0.6037E+03  0.1678E+04
     -1.601  0.5251E+03  0.1737E+04
     -1.489  0.6074E+03  0.1805E+04
     -1.377  0.8116E+03  0.1895E+04
     -1.266  0.6109E+03  0.1963E+04
     -1.154  0.5542E+03  0.2025E+04
     -1.042  0.7657E+03  0.2111E+04
     -0.931  0.8768E+03  0.2209E+04
     -0.819  0.6317E+03  0.2279E+04
     -0.707  0.8309E+03  0.2372E+04
     -0.596  0.1190E+04  0.2505E+04
     -0.484  0.9007E+03  0.2605E+04
     -0.372  0.4157E+03  0.2652E+04
     -0.261  0.1516E+03  0.2669E+04
     -0.149  0.1391E+03  0.2684E+04
     -0.037  0.1647E+03  0.2703E+04
      0.074  0.1028E+03  0.2714E+04
      0.186  0.4525E+02  0.2719E+04
      0.298  0.4635E+02  0.2724E+04
      0.409  0.6642E+02  0.2732E+04
      0.521  0.1045E+03  0.2743E+04
      0.633  0.9498E+02  0.2754E+04
      0.744  0.7877E+02  0.2763E+04
      0.856  0.9921E+02  0.2774E+04
      0.968  0.1318E+03  0.2789E+04
      1.079  0.7684E+02  0.2797E+04
      1.191  0.2817E+02  0.2800E+04
      1.303  0.9708E+02  0.2811E+04
      1.414  0.6758E+02  0.2819E+04
      1.526  0.5909E+02  0.2825E+04
      1.638  0.8137E+02  0.2834E+04
      1.749  0.9355E+02  0.2845E+04
      1.861  0.7151E+02  0.2853E+04
      1.973  0.1027E+03  0.2864E+04
      2.084  0.5488E+02  0.2871E+04
      2.196  0.7864E+02  0.2879E+04
      2.308  0.1001E+03  0.2890E+04
      2.419  0.8981E+02  0.2900E+04
      2.531  0.2664E+02  0.2903E+04
      2.643  0.7630E+02  0.2912E+04
      2.754  0.4100E+02  0.2917E+04
      2.866  0.1940E+02  0.2919E+04
      2.978  0.6027E+02  0.2925E+04
      3.089  0.1706E+03  0.2945E+04
      3.201  0.1357E+03  0.2960E+04
      3.313  0.3516E+02  0.2964E+04
      3.424  0.4180E+02  0.2968E+04
      3.536  0.9008E+02  0.2978E+04
      3.648  0.3976E+02  0.2983E+04
      3.759  0.6361E+02  0.2990E+04
      3.871  0.3098E+02  0.2993E+04
      3.983  0.2811E+02  0.2996E+04
      4.094  0.2793E+02  0.3000E+04
      4.206  0.7186E+02  0.3008E+04
      4.318  0.3871E+02  0.3012E+04
      4.429  0.7825E+02  0.3021E+04
      4.541  0.6938E+02  0.3028E+04
      4.653  0.4438E+02  0.3033E+04
      4.764  0.2342E+02  0.3036E+04
      4.876  0.1784E+00  0.3036E+04
      4.988  0.6462E-06  0.3036E+04
      5.099  0.0000E+00  0.3036E+04
      5.211  0.0000E+00  0.3036E+04
      5.323  0.0000E+00  0.3036E+04
      5.434  0.0000E+00  0.3036E+04
      5.546  0.0000E+00  0.3036E+04
      5.658  0.0000E+00  0.3036E+04
      5.769  0.0000E+00  0.3036E+04
      5.881  0.0000E+00  0.3036E+04
      5.992  0.0000E+00  0.3036E+04
      6.104  0.0000E+00  0.3036E+04
      6.216  0.0000E+00  0.3036E+04
