  254  254    1    1
  0.2268316E+02  0.1514622E-08  0.1514622E-08  0.2900000E-08  0.5000000E-15
  1.000000000000000E-004
  CAR 
 NiAl                                    
   2530      4   1518
 
  0.0000000E+00  0.0000000E+00  0.0000000E+00  0.2500000E+00
    1      -25.760427   1.000000
    2      -11.220759   1.000000
    3      -10.041470   1.000000
    4       -9.371330   1.000000
    5       -9.054445   1.000000
    6       -8.519877   1.000000
    7       -8.152732   1.000000
    8       -8.152493   1.000000
    9       -8.152280   1.000000
   10       -8.151007   1.000000
   11       -8.150143   1.000000
   12       -8.143707   1.000000
   13       -7.706105   1.000000
   14       -7.651660   1.000000
   15       -7.646829   1.000000
   16       -7.646612   1.000000
   17       -7.642873   1.000000
   18       -7.641432   1.000000
   19       -7.640553   1.000000
   20       -7.340980   1.000000
   21       -6.861244   1.000000
   22       -6.861123   1.000000
   23       -6.860561   1.000000
   24       -6.855276   1.000000
   25       -6.854990   1.000000
   26       -6.788830   1.000000
   27       -6.629648   1.000000
   28       -6.516775   1.000000
   29       -6.516609   1.000000
   30       -6.516342   1.000000
   31       -6.516031   1.000000
   32       -6.515418   1.000000
   33       -6.512138   1.000000
   34       -6.096730   1.000000
   35       -6.096415   1.000000
   36       -6.095535   1.000000
   37       -6.094604   1.000000
   38       -6.092431   1.000000
   39       -6.089684   1.000000
   40       -5.896077   1.000000
   41       -5.895930   1.000000
   42       -5.895838   1.000000
   43       -5.895690   1.000000
   44       -5.895625   1.000000
   45       -5.895604   1.000000
   46       -5.895501   1.000000
   47       -5.895274   1.000000
   48       -5.894803   1.000000
   49       -5.889269   1.000000
   50       -5.887786   1.000000
   51       -5.814999   1.000000
   52       -5.639248   1.000000
   53       -5.564876   1.000000
   54       -5.564419   1.000000
   55       -5.563219   1.000000
   56       -5.562817   1.000000
   57       -5.561242   1.000000
   58       -5.560921   1.000000
   59       -5.470123   1.000000
   60       -5.469392   1.000000
   61       -5.468332   1.000000
   62       -5.466148   1.000000
   63       -5.463096   1.000000
   64       -5.449798   1.000000
   65       -5.117816   1.000000
   66       -5.117289   1.000000
   67       -5.115948   1.000000
   68       -5.115024   1.000000
   69       -5.114067   1.000000
   70       -5.112142   1.000000
   71       -5.027284   1.000000
   72       -4.959752   1.000000
   73       -4.959607   1.000000
   74       -4.959392   1.000000
   75       -4.957958   1.000000
   76       -4.953704   1.000000
   77       -4.893569   1.000000
   78       -4.851823   1.000000
   79       -4.787264   1.000000
   80       -4.786826   1.000000
   81       -4.786788   1.000000
   82       -4.748591   1.000000
   83       -4.747535   1.000000
   84       -4.746713   1.000000
   85       -4.743719   1.000000
   86       -4.742192   1.000000
   87       -4.722960   1.000000
   88       -4.665790   1.000000
   89       -4.664997   1.000000
   90       -4.663004   1.000000
   91       -4.662221   1.000000
   92       -4.659770   1.000000
   93       -4.655957   1.000000
   94       -4.646365   1.000000
   95       -4.646211   1.000000
   96       -4.645219   1.000000
   97       -4.555054   1.000000
   98       -4.553853   1.000000
   99       -4.553594   1.000000
  100       -4.553359   1.000000
  101       -4.553171   1.000000
  102       -4.553011   1.000000
  103       -4.552856   1.000000
  104       -4.552793   1.000000
  105       -4.552755   1.000000
  106       -4.552507   1.000000
  107       -4.552404   1.000000
  108       -4.552209   1.000000
  109       -4.512545   1.000000
  110       -4.511192   1.000000
  111       -4.510801   1.000000
  112       -4.442398   1.000000
  113       -4.441354   1.000000
  114       -4.440797   1.000000
  115       -4.407600   1.000000
  116       -4.406073   1.000000
  117       -4.405894   1.000000
  118       -4.405699   1.000000
  119       -4.402663   1.000000
  120       -4.369961   1.000000
  121       -4.354063   1.000000
  122       -4.351754   1.000000
  123       -4.349953   1.000000
  124       -4.349790   1.000000
  125       -4.349538   1.000000
  126       -4.349447   1.000000
  127       -4.349273   1.000000
  128       -4.349160   1.000000
  129       -4.349029   1.000000
  130       -4.348782   1.000000
  131       -4.348574   1.000000
  132       -4.348261   1.000000
  133       -4.341796   1.000000
  134       -4.341209   1.000000
  135       -4.341011   1.000000
  136       -4.339334   1.000000
  137       -4.339062   1.000000
  138       -4.338990   1.000000
  139       -4.338763   1.000000
  140       -4.338590   1.000000
  141       -4.338390   1.000000
  142       -4.338189   1.000000
  143       -4.337684   1.000000
  144       -4.337469   1.000000
  145       -4.293480   1.000000
  146       -4.292816   1.000000
  147       -4.292709   1.000000
  148       -4.292335   1.000000
  149       -4.291188   1.000000
  150       -4.277847   1.000000
  151       -4.260840   1.000000
  152       -4.257528   1.000000
  153       -4.256459   1.000000
  154       -4.255257   1.000000
  155       -4.254454   1.000000
  156       -4.243585   1.000000
  157       -4.236775   1.000000
  158       -4.236151   1.000000
  159       -4.228839   1.000000
  160       -4.205016   1.000000
  161       -4.203494   1.000000
  162       -4.202771   1.000000
  163       -4.199122   1.000000
  164       -4.198223   1.000000
  165       -4.197962   1.000000
  166       -4.197501   1.000000
  167       -4.197358   1.000000
  168       -4.197040   1.000000
  169       -4.196528   1.000000
  170       -4.196056   1.000000
  171       -4.194653   1.000000
  172       -4.135358   1.000000
  173       -4.135215   1.000000
  174       -4.135126   1.000000
  175       -4.107438   1.000000
  176       -4.106294   1.000000
  177       -4.105951   1.000000
  178       -4.104081   1.000000
  179       -4.103104   1.000000
  180       -4.085817   1.000000
  181       -4.044962   1.000000
  182       -4.030082   1.000000
  183       -4.025519   1.000000
  184       -4.008218   1.000000
  185       -4.006761   1.000000
  186       -4.003822   1.000000
  187       -4.002370   1.000000
  188       -4.001673   1.000000
  189       -4.000989   1.000000
  190       -3.999821   1.000000
  191       -3.999698   1.000000
  192       -3.999397   1.000000
  193       -3.998974   1.000000
  194       -3.996882   1.000000
  195       -3.994441   1.000000
  196       -3.966369   1.000000
  197       -3.965487   1.000000
  198       -3.965137   1.000000
  199       -3.921565   1.000000
  200       -3.909604   1.000000
  201       -3.904714   1.000000
  202       -3.901563   1.000000
  203       -3.901430   1.000000
  204       -3.900839   1.000000
  205       -3.899355   1.000000
  206       -3.898881   1.000000
  207       -3.892024   1.000000
  208       -3.858055   1.000000
  209       -3.856615   1.000000
  210       -3.856424   1.000000
  211       -3.855591   1.000000
  212       -3.855544   1.000000
  213       -3.855418   1.000000
  214       -3.855318   1.000000
  215       -3.855235   1.000000
  216       -3.855134   1.000000
  217       -3.855007   1.000000
  218       -3.854859   1.000000
  219       -3.854704   1.000000
  220       -3.847427   1.000000
  221       -3.846554   1.000000
  222       -3.844878   1.000000
  223       -3.844171   1.000000
  224       -3.843444   1.000000
  225       -3.840570   1.000000
  226       -3.773796   1.000000
  227       -3.766886   1.000000
  228       -3.762910   1.000000
  229       -3.762326   1.000000
  230       -3.761551   1.000000
  231       -3.760876   1.000000
  232       -3.760463   1.000000
  233       -3.760118   1.000000
  234       -3.760065   1.000000
  235       -3.759930   1.000000
  236       -3.758706   1.000000
  237       -3.755910   1.000000
  238       -3.730464   1.000000
  239       -3.729658   1.000000
  240       -3.729213   1.000000
  241       -3.728833   1.000000
  242       -3.728647   1.000000
  243       -3.725774   1.000000
  244       -3.714379   1.000000
  245       -3.714145   1.000000
  246       -3.713299   1.000000
  247       -3.713186   1.000000
  248       -3.709863   1.000000
  249       -3.709536   1.000000
  250       -3.709251   1.000000
  251       -3.707966   1.000000
  252       -3.707640   1.000000
  253       -3.704903   1.000000
  254       -3.703296   1.000000
  255       -3.703248   1.000000
  256       -3.680081   1.000000
  257       -3.671881   1.000000
  258       -3.667529   1.000000
  259       -3.664419   1.000000
  260       -3.664126   1.000000
  261       -3.663995   1.000000
  262       -3.663549   1.000000
  263       -3.663423   1.000000
  264       -3.663264   1.000000
  265       -3.663092   1.000000
  266       -3.662993   1.000000
  267       -3.662824   1.000000
  268       -3.657181   1.000000
  269       -3.655347   1.000000
  270       -3.653500   1.000000
  271       -3.613338   1.000000
  272       -3.611024   1.000000
  273       -3.607630   1.000000
  274       -3.605324   1.000000
  275       -3.604445   1.000000
  276       -3.602835   1.000000
  277       -3.599686   1.000000
  278       -3.598192   1.000000
  279       -3.597155   1.000000
  280       -3.596717   1.000000
  281       -3.577140   1.000000
  282       -3.577033   1.000000
  283       -3.563360   1.000000
  284       -3.561604   1.000000
  285       -3.561344   1.000000
  286       -3.561079   1.000000
  287       -3.560700   1.000000
  288       -3.558517   1.000000
  289       -3.551417   1.000000
  290       -3.550986   1.000000
  291       -3.549901   1.000000
  292       -3.549802   1.000000
  293       -3.545198   1.000000
  294       -3.545130   1.000000
  295       -3.499216   1.000000
  296       -3.498525   1.000000
  297       -3.479837   1.000000
  298       -3.478755   1.000000
  299       -3.478520   1.000000
  300       -3.476488   1.000000
  301       -3.475733   1.000000
  302       -3.475168   1.000000
  303       -3.474358   1.000000
  304       -3.474127   1.000000
  305       -3.473803   1.000000
  306       -3.473703   1.000000
  307       -3.472822   1.000000
  308       -3.472217   1.000000
  309       -3.470583   1.000000
  310       -3.469758   1.000000
  311       -3.434668   1.000000
  312       -3.428998   1.000000
  313       -3.427545   1.000000
  314       -3.427400   1.000000
  315       -3.427107   1.000000
  316       -3.426846   1.000000
  317       -3.422261   1.000000
  318       -3.411829   1.000000
  319       -3.398080   1.000000
  320       -3.396122   1.000000
  321       -3.393481   1.000000
  322       -3.392289   1.000000
  323       -3.391784   1.000000
  324       -3.391082   1.000000
  325       -3.390874   1.000000
  326       -3.390727   1.000000
  327       -3.388783   1.000000
  328       -3.388678   1.000000
  329       -3.388166   1.000000
  330       -3.387888   1.000000
  331       -3.387512   1.000000
  332       -3.387438   1.000000
  333       -3.387206   1.000000
  334       -3.386585   1.000000
  335       -3.375405   1.000000
  336       -3.374893   1.000000
  337       -3.373776   1.000000
  338       -3.373254   1.000000
  339       -3.372330   1.000000
  340       -3.364479   1.000000
  341       -3.296994   1.000000
  342       -3.280402   1.000000
  343       -3.278076   1.000000
  344       -3.262126   1.000000
  345       -3.257530   1.000000
  346       -3.254137   1.000000
  347       -3.252526   1.000000
  348       -3.252160   1.000000
  349       -3.250802   1.000000
  350       -3.222019   1.000000
  351       -3.221268   1.000000
  352       -3.213757   1.000000
  353       -3.211404   1.000000
  354       -3.207019   1.000000
  355       -3.205707   1.000000
  356       -3.200667   1.000000
  357       -3.199653   1.000000
  358       -3.199094   1.000000
  359       -3.197783   1.000000
  360       -3.196980   1.000000
  361       -3.196826   1.000000
  362       -3.196644   1.000000
  363       -3.191468   1.000000
  364       -3.172349   1.000000
  365       -3.170713   1.000000
  366       -3.144503   1.000000
  367       -3.144235   1.000000
  368       -3.136538   1.000000
  369       -3.136260   1.000000
  370       -3.135592   1.000000
  371       -3.132653   1.000000
  372       -3.129499   1.000000
  373       -3.129347   1.000000
  374       -3.128270   1.000000
  375       -3.127838   1.000000
  376       -3.127321   1.000000
  377       -3.126780   1.000000
  378       -3.126387   1.000000
  379       -3.125831   1.000000
  380       -3.124572   1.000000
  381       -3.124189   1.000000
  382       -3.123585   1.000000
  383       -3.123467   1.000000
  384       -3.096980   1.000000
  385       -3.063455   1.000000
  386       -3.062094   1.000000
  387       -3.060012   1.000000
  388       -3.058239   1.000000
  389       -3.057910   1.000000
  390       -3.057540   1.000000
  391       -3.057297   1.000000
  392       -3.057001   1.000000
  393       -3.056567   1.000000
  394       -3.056495   1.000000
  395       -3.055577   1.000000
  396       -3.025406   1.000000
  397       -3.021838   1.000000
  398       -3.021614   1.000000
  399       -3.020826   1.000000
  400       -3.020348   1.000000
  401       -3.019813   1.000000
  402       -2.975667   1.000000
  403       -2.956279   1.000000
  404       -2.949677   1.000000
  405       -2.948867   1.000000
  406       -2.948680   1.000000
  407       -2.948515   1.000000
  408       -2.947293   1.000000
  409       -2.938820   1.000000
  410       -2.937909   1.000000
  411       -2.936757   1.000000
  412       -2.934132   1.000000
  413       -2.928156   1.000000
  414       -2.927496   1.000000
  415       -2.922101   1.000000
  416       -2.921461   1.000000
  417       -2.921400   1.000000
  418       -2.921037   1.000000
  419       -2.919588   1.000000
  420       -2.919038   1.000000
  421       -2.901861   1.000000
  422       -2.900771   1.000000
  423       -2.900106   1.000000
  424       -2.899749   1.000000
  425       -2.898473   1.000000
  426       -2.894785   1.000000
  427       -2.879752   1.000000
  428       -2.878598   1.000000
  429       -2.878512   1.000000
  430       -2.877008   1.000000
  431       -2.876303   1.000000
  432       -2.876211   1.000000
  433       -2.876154   1.000000
  434       -2.876013   1.000000
  435       -2.875714   1.000000
  436       -2.875663   1.000000
  437       -2.875486   1.000000
  438       -2.875286   1.000000
  439       -2.874843   1.000000
  440       -2.874186   1.000000
  441       -2.873778   1.000000
  442       -2.872961   1.000000
  443       -2.862297   1.000000
  444       -2.837251   1.000000
  445       -2.823245   1.000000
  446       -2.816958   1.000000
  447       -2.812800   1.000000
  448       -2.811232   1.000000
  449       -2.810887   1.000000
  450       -2.810832   1.000000
  451       -2.809936   1.000000
  452       -2.807823   1.000000
  453       -2.805582   1.000000
  454       -2.804742   1.000000
  455       -2.804429   1.000000
  456       -2.803833   1.000000
  457       -2.803633   1.000000
  458       -2.803510   1.000000
  459       -2.803282   1.000000
  460       -2.802761   1.000000
  461       -2.802695   1.000000
  462       -2.802395   1.000000
  463       -2.801988   1.000000
  464       -2.801659   1.000000
  465       -2.765667   1.000000
  466       -2.758751   1.000000
  467       -2.753332   1.000000
  468       -2.751896   1.000000
  469       -2.746917   1.000000
  470       -2.743482   1.000000
  471       -2.726719   1.000000
  472       -2.723964   1.000000
  473       -2.720526   1.000000
  474       -2.719322   1.000000
  475       -2.719073   1.000000
  476       -2.718732   1.000000
  477       -2.718535   1.000000
  478       -2.718068   1.000000
  479       -2.717245   1.000000
  480       -2.716804   1.000000
  481       -2.715361   1.000000
  482       -2.714616   1.000000
  483       -2.712972   1.000000
  484       -2.712482   1.000000
  485       -2.712103   1.000000
  486       -2.710847   1.000000
  487       -2.705673   1.000000
  488       -2.701004   1.000000
  489       -2.699362   1.000000
  490       -2.697409   1.000000
  491       -2.696381   1.000000
  492       -2.696006   1.000000
  493       -2.695868   1.000000
  494       -2.695833   1.000000
  495       -2.695505   1.000000
  496       -2.695392   1.000000
  497       -2.694621   1.000000
  498       -2.694484   1.000000
  499       -2.688726   1.000000
  500       -2.688518   1.000000
  501       -2.668386   1.000000
  502       -2.663758   1.000000
  503       -2.661252   1.000000
  504       -2.660846   1.000000
  505       -2.660402   1.000000
  506       -2.659490   1.000000
  507       -2.654844   1.000000
  508       -2.629226   1.000000
  509       -2.626353   1.000000
  510       -2.626246   1.000000
  511       -2.625614   1.000000
  512       -2.624787   1.000000
  513       -2.622003   1.000000
  514       -2.621745   1.000000
  515       -2.607194   1.000000
  516       -2.599425   1.000000
  517       -2.596568   1.000000
  518       -2.595882   1.000000
  519       -2.591233   1.000000
  520       -2.590613   1.000000
  521       -2.589706   1.000000
  522       -2.584578   1.000000
  523       -2.584131   1.000000
  524       -2.580054   1.000000
  525       -2.577467   1.000000
  526       -2.541433   1.000000
  527       -2.539133   1.000000
  528       -2.536101   1.000000
  529       -2.535350   1.000000
  530       -2.534793   1.000000
  531       -2.534647   1.000000
  532       -2.533735   1.000000
  533       -2.533509   1.000000
  534       -2.533465   1.000000
  535       -2.532687   1.000000
  536       -2.532612   1.000000
  537       -2.532086   1.000000
  538       -2.531831   1.000000
  539       -2.528156   1.000000
  540       -2.525128   1.000000
  541       -2.524128   1.000000
  542       -2.522511   1.000000
  543       -2.521703   1.000000
  544       -2.521681   1.000000
  545       -2.510766   1.000000
  546       -2.502052   1.000000
  547       -2.496340   1.000000
  548       -2.496192   1.000000
  549       -2.494469   1.000000
  550       -2.488883   1.000000
  551       -2.486581   1.000000
  552       -2.486263   1.000000
  553       -2.485751   1.000000
  554       -2.482396   1.000000
  555       -2.480364   1.000000
  556       -2.472772   1.000000
  557       -2.471872   1.000000
  558       -2.468088   1.000000
  559       -2.467458   1.000000
  560       -2.462228   1.000000
  561       -2.459888   1.000000
  562       -2.459823   1.000000
  563       -2.458912   1.000000
  564       -2.457107   1.000000
  565       -2.456718   1.000000
  566       -2.456539   1.000000
  567       -2.456283   1.000000
  568       -2.455953   1.000000
  569       -2.454973   1.000000
  570       -2.454852   1.000000
  571       -2.454583   1.000000
  572       -2.453242   1.000000
  573       -2.452574   1.000000
  574       -2.444610   1.000000
  575       -2.440698   1.000000
  576       -2.431797   1.000000
  577       -2.431476   1.000000
  578       -2.420233   1.000000
  579       -2.417033   1.000000
  580       -2.416979   1.000000
  581       -2.415283   1.000000
  582       -2.412719   1.000000
  583       -2.411470   1.000000
  584       -2.411020   1.000000
  585       -2.409922   1.000000
  586       -2.409675   1.000000
  587       -2.408525   1.000000
  588       -2.397689   1.000000
  589       -2.393955   1.000000
  590       -2.387910   1.000000
  591       -2.387309   1.000000
  592       -2.385198   1.000000
  593       -2.385034   1.000000
  594       -2.381960   1.000000
  595       -2.377951   1.000000
  596       -2.372256   1.000000
  597       -2.368795   1.000000
  598       -2.366809   1.000000
  599       -2.366618   1.000000
  600       -2.366362   1.000000
  601       -2.366035   1.000000
  602       -2.365721   1.000000
  603       -2.365615   1.000000
  604       -2.364202   1.000000
  605       -2.361890   1.000000
  606       -2.361677   1.000000
  607       -2.361247   1.000000
  608       -2.361194   1.000000
  609       -2.361093   1.000000
  610       -2.360964   1.000000
  611       -2.359060   1.000000
  612       -2.356347   1.000000
  613       -2.352216   1.000000
  614       -2.328169   1.000000
  615       -2.314061   1.000000
  616       -2.302361   1.000000
  617       -2.299736   1.000000
  618       -2.297611   1.000000
  619       -2.297286   1.000000
  620       -2.295906   1.000000
  621       -2.290970   1.000000
  622       -2.290905   1.000000
  623       -2.290084   1.000000
  624       -2.289488   1.000000
  625       -2.289437   1.000000
  626       -2.270970   1.000000
  627       -2.265558   1.000000
  628       -2.264791   1.000000
  629       -2.264127   1.000000
  630       -2.263070   1.000000
  631       -2.262975   1.000000
  632       -2.262539   1.000000
  633       -2.262282   1.000000
  634       -2.262268   1.000000
  635       -2.262085   1.000000
  636       -2.261699   1.000000
  637       -2.261417   1.000000
  638       -2.253369   1.000000
  639       -2.243566   1.000000
  640       -2.243344   1.000000
  641       -2.242715   1.000000
  642       -2.240592   1.000000
  643       -2.236249   1.000000
  644       -2.233023   1.000000
  645       -2.229962   1.000000
  646       -2.229793   1.000000
  647       -2.219259   1.000000
  648       -2.218865   1.000000
  649       -2.214398   1.000000
  650       -2.209757   1.000000
  651       -2.209534   1.000000
  652       -2.208780   1.000000
  653       -2.208377   1.000000
  654       -2.208157   1.000000
  655       -2.207697   1.000000
  656       -2.207479   1.000000
  657       -2.205389   1.000000
  658       -2.203207   1.000000
  659       -2.201985   1.000000
  660       -2.199628   1.000000
  661       -2.198357   1.000000
  662       -2.197640   1.000000
  663       -2.197551   1.000000
  664       -2.197226   1.000000
  665       -2.196645   1.000000
  666       -2.195345   1.000000
  667       -2.194229   1.000000
  668       -2.193873   1.000000
  669       -2.193617   1.000000
  670       -2.188378   1.000000
  671       -2.188132   1.000000
  672       -2.186376   1.000000
  673       -2.173339   1.000000
  674       -2.159517   1.000000
  675       -2.158537   1.000000
  676       -2.158462   1.000000
  677       -2.154126   1.000000
  678       -2.153153   1.000000
  679       -2.152461   1.000000
  680       -2.145420   1.000000
  681       -2.145351   1.000000
  682       -2.144814   1.000000
  683       -2.143771   1.000000
  684       -2.143638   1.000000
  685       -2.142776   1.000000
  686       -2.134580   1.000000
  687       -2.117872   1.000000
  688       -2.112783   1.000000
  689       -2.109089   1.000000
  690       -2.105816   1.000000
  691       -2.103864   1.000000
  692       -2.101727   1.000000
  693       -2.101040   1.000000
  694       -2.100453   1.000000
  695       -2.100386   1.000000
  696       -2.099980   1.000000
  697       -2.099379   1.000000
  698       -2.098538   1.000000
  699       -2.095755   1.000000
  700       -2.094466   1.000000
  701       -2.094127   1.000000
  702       -2.093626   1.000000
  703       -2.092987   1.000000
  704       -2.091926   1.000000
  705       -2.091152   1.000000
  706       -2.091028   1.000000
  707       -2.090712   1.000000
  708       -2.090636   1.000000
  709       -2.090016   1.000000
  710       -2.089869   1.000000
  711       -2.089335   1.000000
  712       -2.089219   1.000000
  713       -2.088893   1.000000
  714       -2.088626   1.000000
  715       -2.087442   1.000000
  716       -2.086382   1.000000
  717       -2.086068   1.000000
  718       -2.070959   1.000000
  719       -2.070786   1.000000
  720       -2.070436   1.000000
  721       -2.070287   1.000000
  722       -2.069968   1.000000
  723       -2.069688   1.000000
  724       -2.045957   1.000000
  725       -2.028770   1.000000
  726       -2.017432   1.000000
  727       -2.017094   1.000000
  728       -2.014523   1.000000
  729       -2.014364   1.000000
  730       -2.011725   1.000000
  731       -2.011587   1.000000
  732       -2.011475   1.000000
  733       -2.010221   1.000000
  734       -2.010081   1.000000
  735       -2.009814   1.000000
  736       -2.009640   1.000000
  737       -2.009291   1.000000
  738       -2.009166   1.000000
  739       -2.009039   1.000000
  740       -2.007176   1.000000
  741       -1.990157   1.000000
  742       -1.984178   1.000000
  743       -1.979198   1.000000
  744       -1.975105   1.000000
  745       -1.975026   1.000000
  746       -1.974730   1.000000
  747       -1.974100   1.000000
  748       -1.971472   1.000000
  749       -1.971187   1.000000
  750       -1.971044   1.000000
  751       -1.970525   1.000000
  752       -1.969068   1.000000
  753       -1.962950   1.000000
  754       -1.950037   1.000000
  755       -1.934045   1.000000
  756       -1.930296   1.000000
  757       -1.923014   1.000000
  758       -1.919942   1.000000
  759       -1.919781   1.000000
  760       -1.917764   1.000000
  761       -1.915303   1.000000
  762       -1.914566   1.000000
  763       -1.914318   1.000000
  764       -1.913514   1.000000
  765       -1.912284   1.000000
  766       -1.912036   1.000000
  767       -1.911040   1.000000
  768       -1.910886   1.000000
  769       -1.910718   1.000000
  770       -1.910592   1.000000
  771       -1.910010   1.000000
  772       -1.909754   1.000000
  773       -1.909637   1.000000
  774       -1.909402   1.000000
  775       -1.909166   1.000000
  776       -1.908659   1.000000
  777       -1.896589   1.000000
  778       -1.887086   1.000000
  779       -1.884366   1.000000
  780       -1.881238   1.000000
  781       -1.876485   1.000000
  782       -1.876035   1.000000
  783       -1.873002   1.000000
  784       -1.872689   1.000000
  785       -1.872545   1.000000
  786       -1.871806   1.000000
  787       -1.868402   1.000000
  788       -1.858842   1.000000
  789       -1.856178   1.000000
  790       -1.855964   1.000000
  791       -1.853540   1.000000
  792       -1.852732   1.000000
  793       -1.851933   1.000000
  794       -1.836779   1.000000
  795       -1.836369   1.000000
  796       -1.833637   1.000000
  797       -1.830920   1.000000
  798       -1.829960   1.000000
  799       -1.828173   1.000000
  800       -1.827321   1.000000
  801       -1.822790   1.000000
  802       -1.822509   1.000000
  803       -1.815987   1.000000
  804       -1.808949   1.000000
  805       -1.807771   1.000000
  806       -1.806293   1.000000
  807       -1.806105   1.000000
  808       -1.797438   1.000000
  809       -1.796237   1.000000
  810       -1.793477   1.000000
  811       -1.792029   1.000000
  812       -1.791142   1.000000
  813       -1.790141   1.000000
  814       -1.789475   1.000000
  815       -1.787838   1.000000
  816       -1.780316   1.000000
  817       -1.767050   1.000000
  818       -1.765161   1.000000
  819       -1.762887   1.000000
  820       -1.759626   1.000000
  821       -1.758108   1.000000
  822       -1.756858   1.000000
  823       -1.755602   1.000000
  824       -1.752045   1.000000
  825       -1.751593   1.000000
  826       -1.750847   1.000000
  827       -1.749558   1.000000
  828       -1.749193   1.000000
  829       -1.749079   1.000000
  830       -1.748026   1.000000
  831       -1.746288   1.000000
  832       -1.745996   1.000000
  833       -1.744087   1.000000
  834       -1.743466   1.000000
  835       -1.742879   1.000000
  836       -1.742809   1.000000
  837       -1.741885   1.000000
  838       -1.741542   1.000000
  839       -1.741381   1.000000
  840       -1.740884   1.000000
  841       -1.736158   1.000000
  842       -1.735914   1.000000
  843       -1.735492   1.000000
  844       -1.734884   1.000000
  845       -1.734682   1.000000
  846       -1.732059   1.000000
  847       -1.728329   1.000000
  848       -1.726596   1.000000
  849       -1.722426   1.000000
  850       -1.721329   1.000000
  851       -1.719961   1.000000
  852       -1.710947   1.000000
  853       -1.710174   1.000000
  854       -1.706838   1.000000
  855       -1.700315   1.000000
  856       -1.692185   1.000000
  857       -1.691693   1.000000
  858       -1.686268   1.000000
  859       -1.685728   1.000000
  860       -1.681484   1.000000
  861       -1.678822   1.000000
  862       -1.666020   1.000000
  863       -1.665848   1.000000
  864       -1.663307   1.000000
  865       -1.662909   1.000000
  866       -1.662122   1.000000
  867       -1.662054   1.000000
  868       -1.660938   1.000000
  869       -1.656320   1.000000
  870       -1.638668   1.000000
  871       -1.634136   1.000000
  872       -1.626549   1.000000
  873       -1.619952   1.000000
  874       -1.619154   1.000000
  875       -1.616996   1.000000
  876       -1.616209   1.000000
  877       -1.615385   1.000000
  878       -1.614698   1.000000
  879       -1.613603   1.000000
  880       -1.612559   1.000000
  881       -1.611974   1.000000
  882       -1.609844   1.000000
  883       -1.607840   1.000000
  884       -1.605700   1.000000
  885       -1.598072   1.000000
  886       -1.597937   1.000000
  887       -1.596431   1.000000
  888       -1.574490   1.000000
  889       -1.574150   1.000000
  890       -1.570911   1.000000
  891       -1.565673   1.000000
  892       -1.565528   1.000000
  893       -1.564693   1.000000
  894       -1.564302   1.000000
  895       -1.514506   1.000000
  896       -1.512993   1.000000
  897       -1.504091   1.000000
  898       -1.499616   1.000000
  899       -1.497488   1.000000
  900       -1.495587   1.000000
  901       -1.494949   1.000000