 254 254   0   0
  0.3019211E+02  0.1718057E-08  0.1718057E-08  0.3000000E-08  0.5000000E-15
  1.000000000000000E-004
  CAR 
 NiAl                                    
      5.58447083    -25.30411213  301      1.84757608      1.00000000
    -25.304  0.0000E+00  0.0000E+00
    -25.201  0.0000E+00  0.0000E+00
    -25.098  0.0000E+00  0.0000E+00
    -24.995  0.0000E+00  0.0000E+00
    -24.892  0.0000E+00  0.0000E+00
    -24.789  0.0000E+00  0.0000E+00
    -24.686  0.0000E+00  0.0000E+00
    -24.583  0.0000E+00  0.0000E+00
    -24.480  0.0000E+00  0.0000E+00
    -24.377  0.0000E+00  0.0000E+00
    -24.274  0.0000E+00  0.0000E+00
    -24.172  0.1547E-12  0.1593E-13
    -24.069  0.1809E-04  0.1863E-05
    -23.966  0.6169E+00  0.6352E-01
    -23.863  0.1598E+02  0.1709E+01
    -23.760  0.2822E+01  0.2000E+01
    -23.657  0.7014E-03  0.2000E+01
    -23.554  0.5771E-10  0.2000E+01
    -23.451  0.0000E+00  0.2000E+01
    -23.348  0.0000E+00  0.2000E+01
    -23.245  0.0000E+00  0.2000E+01
    -23.142  0.0000E+00  0.2000E+01
    -23.039  0.0000E+00  0.2000E+01
    -22.936  0.0000E+00  0.2000E+01
    -22.833  0.0000E+00  0.2000E+01
    -22.730  0.0000E+00  0.2000E+01
    -22.627  0.0000E+00  0.2000E+01
    -22.524  0.0000E+00  0.2000E+01
    -22.421  0.0000E+00  0.2000E+01
    -22.318  0.0000E+00  0.2000E+01
    -22.215  0.0000E+00  0.2000E+01
    -22.112  0.0000E+00  0.2000E+01
    -22.009  0.0000E+00  0.2000E+01
    -21.906  0.0000E+00  0.2000E+01
    -21.803  0.0000E+00  0.2000E+01
    -21.700  0.0000E+00  0.2000E+01
    -21.597  0.0000E+00  0.2000E+01
    -21.495  0.0000E+00  0.2000E+01
    -21.392  0.0000E+00  0.2000E+01
    -21.289  0.0000E+00  0.2000E+01
    -21.186  0.0000E+00  0.2000E+01
    -21.083  0.0000E+00  0.2000E+01
    -20.980  0.0000E+00  0.2000E+01
    -20.877  0.0000E+00  0.2000E+01
    -20.774  0.0000E+00  0.2000E+01
    -20.671  0.0000E+00  0.2000E+01
    -20.568  0.0000E+00  0.2000E+01
    -20.465  0.0000E+00  0.2000E+01
    -20.362  0.0000E+00  0.2000E+01
    -20.259  0.0000E+00  0.2000E+01
    -20.156  0.0000E+00  0.2000E+01
    -20.053  0.0000E+00  0.2000E+01
    -19.950  0.0000E+00  0.2000E+01
    -19.847  0.0000E+00  0.2000E+01
    -19.744  0.0000E+00  0.2000E+01
    -19.641  0.0000E+00  0.2000E+01
    -19.538  0.0000E+00  0.2000E+01
    -19.435  0.0000E+00  0.2000E+01
    -19.332  0.0000E+00  0.2000E+01
    -19.229  0.0000E+00  0.2000E+01
    -19.126  0.0000E+00  0.2000E+01
    -19.023  0.0000E+00  0.2000E+01
    -18.920  0.0000E+00  0.2000E+01
    -18.818  0.0000E+00  0.2000E+01
    -18.715  0.0000E+00  0.2000E+01
    -18.612  0.0000E+00  0.2000E+01
    -18.509  0.0000E+00  0.2000E+01
    -18.406  0.0000E+00  0.2000E+01
    -18.303  0.0000E+00  0.2000E+01
    -18.200  0.0000E+00  0.2000E+01
    -18.097  0.0000E+00  0.2000E+01
    -17.994  0.0000E+00  0.2000E+01
    -17.891  0.0000E+00  0.2000E+01
    -17.788  0.0000E+00  0.2000E+01
    -17.685  0.0000E+00  0.2000E+01
    -17.582  0.0000E+00  0.2000E+01
    -17.479  0.0000E+00  0.2000E+01
    -17.376  0.0000E+00  0.2000E+01
    -17.273  0.0000E+00  0.2000E+01
    -17.170  0.0000E+00  0.2000E+01
    -17.067  0.0000E+00  0.2000E+01
    -16.964  0.0000E+00  0.2000E+01
    -16.861  0.0000E+00  0.2000E+01
    -16.758  0.0000E+00  0.2000E+01
    -16.655  0.0000E+00  0.2000E+01
    -16.552  0.0000E+00  0.2000E+01
    -16.449  0.0000E+00  0.2000E+01
    -16.346  0.0000E+00  0.2000E+01
    -16.243  0.0000E+00  0.2000E+01
    -16.140  0.0000E+00  0.2000E+01
    -16.038  0.0000E+00  0.2000E+01
    -15.935  0.0000E+00  0.2000E+01
    -15.832  0.0000E+00  0.2000E+01
    -15.729  0.0000E+00  0.2000E+01
    -15.626  0.0000E+00  0.2000E+01
    -15.523  0.0000E+00  0.2000E+01
    -15.420  0.0000E+00  0.2000E+01
    -15.317  0.0000E+00  0.2000E+01
    -15.214  0.0000E+00  0.2000E+01
    -15.111  0.0000E+00  0.2000E+01
    -15.008  0.0000E+00  0.2000E+01
    -14.905  0.0000E+00  0.2000E+01
    -14.802  0.0000E+00  0.2000E+01
    -14.699  0.0000E+00  0.2000E+01
    -14.596  0.0000E+00  0.2000E+01
    -14.493  0.0000E+00  0.2000E+01
    -14.390  0.0000E+00  0.2000E+01
    -14.287  0.0000E+00  0.2000E+01
    -14.184  0.0000E+00  0.2000E+01
    -14.081  0.0000E+00  0.2000E+01
    -13.978  0.0000E+00  0.2000E+01
    -13.875  0.0000E+00  0.2000E+01
    -13.772  0.0000E+00  0.2000E+01
    -13.669  0.0000E+00  0.2000E+01
    -13.566  0.0000E+00  0.2000E+01
    -13.463  0.0000E+00  0.2000E+01
    -13.361  0.0000E+00  0.2000E+01
    -13.258  0.0000E+00  0.2000E+01
    -13.155  0.0000E+00  0.2000E+01
    -13.052  0.0000E+00  0.2000E+01
    -12.949  0.0000E+00  0.2000E+01
    -12.846  0.0000E+00  0.2000E+01
    -12.743  0.0000E+00  0.2000E+01
    -12.640  0.0000E+00  0.2000E+01
    -12.537  0.0000E+00  0.2000E+01
    -12.434  0.0000E+00  0.2000E+01
    -12.331  0.0000E+00  0.2000E+01
    -12.228  0.0000E+00  0.2000E+01
    -12.125  0.0000E+00  0.2000E+01
    -12.022  0.0000E+00  0.2000E+01
    -11.919  0.0000E+00  0.2000E+01
    -11.816  0.0000E+00  0.2000E+01
    -11.713  0.0000E+00  0.2000E+01
    -11.610  0.0000E+00  0.2000E+01
    -11.507  0.0000E+00  0.2000E+01
    -11.404  0.0000E+00  0.2000E+01
    -11.301  0.0000E+00  0.2000E+01
    -11.198  0.0000E+00  0.2000E+01
    -11.095  0.0000E+00  0.2000E+01
    -10.992  0.0000E+00  0.2000E+01
    -10.889  0.0000E+00  0.2000E+01
    -10.786  0.0000E+00  0.2000E+01
    -10.684  0.0000E+00  0.2000E+01
    -10.581  0.0000E+00  0.2000E+01
    -10.478  0.0000E+00  0.2000E+01
    -10.375  0.0000E+00  0.2000E+01
    -10.272  0.0000E+00  0.2000E+01
    -10.169  0.0000E+00  0.2000E+01
    -10.066  0.0000E+00  0.2000E+01
     -9.963  0.0000E+00  0.2000E+01
     -9.860  0.0000E+00  0.2000E+01
     -9.757  0.0000E+00  0.2000E+01
     -9.654  0.0000E+00  0.2000E+01
     -9.551  0.0000E+00  0.2000E+01
     -9.448  0.0000E+00  0.2000E+01
     -9.345  0.5118E-10  0.2000E+01
     -9.242  0.7058E-03  0.2000E+01
     -9.139  0.3238E+01  0.2333E+01
     -9.036  0.2024E+02  0.4418E+01
     -8.933  0.1650E+02  0.6117E+01
     -8.830  0.1370E+02  0.7528E+01
     -8.727  0.5623E+01  0.8107E+01
     -8.624  0.2046E+02  0.1021E+02
     -8.521  0.4005E+02  0.1434E+02
     -8.418  0.2744E+02  0.1716E+02
     -8.315  0.1791E+02  0.1901E+02
     -8.212  0.1730E+02  0.2079E+02
     -8.109  0.1794E+02  0.2264E+02
     -8.007  0.2423E+02  0.2513E+02
     -7.904  0.6267E+02  0.3158E+02
     -7.801  0.2778E+02  0.3444E+02
     -7.698  0.9557E+01  0.3543E+02
     -7.595  0.5067E+02  0.4065E+02
     -7.492  0.7211E+02  0.4807E+02
     -7.389  0.2440E+02  0.5058E+02
     -7.286  0.1266E+02  0.5189E+02
     -7.183  0.2916E+02  0.5489E+02
     -7.080  0.3849E+02  0.5885E+02
     -6.977  0.3409E+02  0.6236E+02
     -6.874  0.9424E+02  0.7207E+02
     -6.771  0.2675E+02  0.7482E+02
     -6.668  0.4206E+02  0.7915E+02
     -6.565  0.8432E+02  0.8783E+02
     -6.462  0.4081E+02  0.9203E+02
     -6.359  0.1893E+02  0.9398E+02
     -6.256  0.8979E+00  0.9408E+02
     -6.153  0.1391E+02  0.9551E+02
     -6.050  0.1129E+03  0.1071E+03
     -5.947  0.8309E+02  0.1157E+03
     -5.844  0.5697E+02  0.1215E+03
     -5.741  0.3642E+02  0.1253E+03
     -5.638  0.6100E+02  0.1316E+03
     -5.535  0.1012E+03  0.1420E+03
     -5.432  0.2682E+02  0.1448E+03
     -5.329  0.3315E+02  0.1482E+03
     -5.227  0.7232E+02  0.1556E+03
     -5.124  0.4265E+02  0.1600E+03
     -5.021  0.7754E+02  0.1680E+03
     -4.918  0.8402E+02  0.1767E+03
     -4.815  0.1531E+02  0.1782E+03
     -4.712  0.4388E+02  0.1827E+03
     -4.609  0.1268E+03  0.1958E+03
     -4.506  0.5407E+02  0.2014E+03
     -4.403  0.4997E+02  0.2065E+03
     -4.300  0.4412E+02  0.2111E+03
     -4.197  0.6601E+02  0.2179E+03
     -4.094  0.1293E+03  0.2312E+03
     -3.991  0.9396E+02  0.2408E+03
     -3.888  0.3475E+02  0.2444E+03
     -3.785  0.7159E+02  0.2518E+03
     -3.682  0.7112E+02  0.2591E+03
     -3.579  0.8338E+02  0.2677E+03
     -3.476  0.5893E+02  0.2738E+03
     -3.373  0.3307E+02  0.2772E+03
     -3.270  0.1060E+02  0.2783E+03
     -3.167  0.8138E+02  0.2866E+03
     -3.064  0.8797E+02  0.2957E+03
     -2.961  0.1064E+03  0.3066E+03
     -2.858  0.9186E+02  0.3161E+03
     -2.755  0.1504E+03  0.3316E+03
     -2.652  0.1616E+03  0.3482E+03
     -2.550  0.1041E+02  0.3493E+03
     -2.447  0.1043E+02  0.3504E+03
     -2.344  0.5835E+02  0.3564E+03
     -2.241  0.1224E+03  0.3690E+03
     -2.138  0.7869E+02  0.3771E+03
     -2.035  0.1029E+03  0.3877E+03
     -1.932  0.3337E+02  0.3911E+03
     -1.829  0.9567E+02  0.4010E+03
     -1.726  0.1493E+03  0.4163E+03
     -1.623  0.5785E+02  0.4223E+03
     -1.520  0.6025E+02  0.4285E+03
     -1.417  0.7155E+02  0.4359E+03
     -1.314  0.1186E+03  0.4481E+03
     -1.211  0.1300E+03  0.4615E+03
     -1.108  0.1239E+03  0.4742E+03
     -1.005  0.6842E+02  0.4813E+03
     -0.902  0.7038E+02  0.4885E+03
     -0.799  0.1321E+03  0.5021E+03
     -0.696  0.8616E+02  0.5110E+03
     -0.593  0.5109E+02  0.5162E+03
     -0.490  0.5255E+02  0.5216E+03
     -0.387  0.1864E+03  0.5408E+03
     -0.284  0.1145E+03  0.5526E+03
     -0.181  0.1392E+03  0.5670E+03
     -0.078  0.5728E+02  0.5729E+03
      0.025  0.2830E+02  0.5758E+03
      0.127  0.1087E+03  0.5870E+03
      0.230  0.8103E+02  0.5953E+03
      0.333  0.9450E+02  0.6050E+03
      0.436  0.6916E+02  0.6122E+03
      0.539  0.1456E+03  0.6271E+03
      0.642  0.7173E+02  0.6345E+03
      0.745  0.6205E+02  0.6409E+03
      0.848  0.4851E+02  0.6459E+03
      0.951  0.9017E+02  0.6552E+03
      1.054  0.2510E+03  0.6810E+03
      1.157  0.1241E+03  0.6938E+03
      1.260  0.8393E+02  0.7025E+03
      1.363  0.6556E+02  0.7092E+03
      1.466  0.8916E+02  0.7184E+03
      1.569  0.1196E+03  0.7307E+03
      1.672  0.1679E+03  0.7480E+03
      1.775  0.1350E+03  0.7619E+03
      1.878  0.5108E+02  0.7672E+03
      1.981  0.1053E+03  0.7780E+03
      2.084  0.1500E+03  0.7934E+03
      2.187  0.7094E+02  0.8007E+03
      2.290  0.7674E+02  0.8086E+03
      2.393  0.8009E+02  0.8169E+03
      2.496  0.1028E+03  0.8275E+03
      2.599  0.9228E+02  0.8370E+03
      2.702  0.1361E+03  0.8510E+03
      2.804  0.7847E+02  0.8591E+03
      2.907  0.1100E+03  0.8704E+03
      3.010  0.2853E+03  0.8998E+03
      3.113  0.1407E+03  0.9143E+03
      3.216  0.6676E+02  0.9211E+03
      3.319  0.9550E+02  0.9310E+03
      3.422  0.1365E+03  0.9450E+03
      3.525  0.1306E+03  0.9585E+03
      3.628  0.9026E+02  0.9678E+03
      3.731  0.1086E+03  0.9789E+03
      3.834  0.7942E+02  0.9871E+03
      3.937  0.1031E+03  0.9977E+03
      4.040  0.1717E+03  0.1015E+04
      4.143  0.1238E+03  0.1028E+04
      4.246  0.3673E+02  0.1032E+04
      4.349  0.4377E+00  0.1032E+04
      4.452  0.8111E-05  0.1032E+04
      4.555  0.5553E-13  0.1032E+04
      4.658  0.0000E+00  0.1032E+04
      4.761  0.0000E+00  0.1032E+04
      4.864  0.0000E+00  0.1032E+04
      4.967  0.0000E+00  0.1032E+04
      5.070  0.0000E+00  0.1032E+04
      5.173  0.0000E+00  0.1032E+04
      5.276  0.0000E+00  0.1032E+04
      5.379  0.0000E+00  0.1032E+04
      5.482  0.0000E+00  0.1032E+04
      5.584  0.0000E+00  0.1032E+04
