       N       E                     dE             d eps       ncg     rms          rms(c)
DAV:   1     0.214566967275E+04    0.21457E+04   -0.18430E+05  3144   0.734E+02
DAV:   2    -0.738076095900E+03   -0.28837E+04   -0.27169E+04  4200   0.193E+02
DAV:   3    -0.952096883191E+03   -0.21402E+03   -0.20545E+03  4620   0.411E+01
DAV:   4    -0.961196539724E+03   -0.90997E+01   -0.88896E+01  4272   0.845E+00
DAV:   5    -0.961676862660E+03   -0.48032E+00   -0.47409E+00  5268   0.201E+00    0.196E+01
DAV:   6    -0.977792696464E+03   -0.16116E+02   -0.19431E+02  4080   0.166E+01    0.197E+01
DAV:   7    -0.935979180125E+03    0.41814E+02   -0.13689E+02  3960   0.159E+01    0.104E+01
DAV:   8    -0.942143927333E+03   -0.61647E+01   -0.44992E+01  4080   0.815E+00    0.777E+00
DAV:   9    -0.937501672250E+03    0.46423E+01   -0.82854E+00  4032   0.837E+00    0.537E+00
DAV:  10    -0.933248102567E+03    0.42536E+01   -0.58701E+00  4104   0.399E+00    0.118E+00
DAV:  11    -0.933249544524E+03   -0.14420E-02   -0.19143E+00  3996   0.152E+00    0.790E-01
DAV:  12    -0.933223116148E+03    0.26428E-01   -0.22025E-01  4140   0.561E-01    0.559E-01
DAV:  13    -0.933193860339E+03    0.29256E-01   -0.53598E-02  4044   0.317E-01    0.378E-01
DAV:  14    -0.933173927676E+03    0.19933E-01   -0.34743E-02  3696   0.226E-01    0.210E-01
DAV:  15    -0.933174693222E+03   -0.76555E-03   -0.17719E-02  3732   0.135E-01    0.142E-01
DAV:  16    -0.933182381990E+03   -0.76888E-02   -0.68816E-03  3576   0.856E-02    0.101E-01
DAV:  17    -0.933189812216E+03   -0.74302E-02   -0.37773E-03  3492   0.593E-02    0.546E-02
DAV:  18    -0.933193721864E+03   -0.39096E-02   -0.10817E-03  3564   0.374E-02    0.324E-02
DAV:  19    -0.933195672579E+03   -0.19507E-02   -0.34151E-04  3516   0.232E-02    0.231E-02
DAV:  20    -0.933196820914E+03   -0.11483E-02   -0.15517E-04  3540   0.157E-02    0.162E-02
DAV:  21    -0.933197923929E+03   -0.11030E-02   -0.50512E-04  3372   0.137E-02    0.105E-02
DAV:  22    -0.933198906341E+03   -0.98241E-03   -0.58441E-05  3384   0.688E-03    0.722E-03
DAV:  23    -0.933200200374E+03   -0.12940E-02   -0.73685E-05  3144   0.560E-03    0.476E-03
DAV:  24    -0.933200932653E+03   -0.73228E-03   -0.39898E-05  3096   0.401E-03    0.357E-03
DAV:  25    -0.933201414771E+03   -0.48212E-03   -0.29663E-05  2820   0.319E-03    0.208E-03
DAV:  26    -0.933201635656E+03   -0.22089E-03   -0.13037E-05  2796   0.221E-03    0.110E-03
DAV:  27    -0.933201722534E+03   -0.86878E-04   -0.49936E-06  2472   0.144E-03    0.709E-04
DAV:  28    -0.933201744465E+03   -0.21931E-04   -0.92840E-07  2280   0.821E-04    0.549E-04
DAV:  29    -0.933201751634E+03   -0.71686E-05   -0.36114E-07  1908   0.568E-04    0.463E-04
DAV:  30    -0.933201753511E+03   -0.18769E-05   -0.10746E-07  1872   0.387E-04
   1 F= -.93320175E+03 E0= -.93317756E+03  d E =-.483960E-01
