 vasp.5.4.4.18Apr17-6-g9f103f2a35 (build May 02 2017 15:33:50) complex          
  
 executed on Intel-16.0.3.210-OMP date 2018.08.08  20:52:57
 running on    6 total cores
 distrk:  each k-point on    6 cores,    1 groups
 distr:  one band on NCORES_PER_BAND=   1 cores,    6 groups


--------------------------------------------------------------------------------------------------------


 INCAR:
 POTCAR:    PAW Al_GW 19Mar2012                   
 POTCAR:    PAW_PBE N 08Apr2002                   

 ----------------------------------------------------------------------------- 
|                                                                             |
|           W    W    AA    RRRRR   N    N  II  N    N   GGGG   !!!           |
|           W    W   A  A   R    R  NN   N  II  NN   N  G    G  !!!           |
|           W    W  A    A  R    R  N N  N  II  N N  N  G       !!!           |
|           W WW W  AAAAAA  RRRRR   N  N N  II  N  N N  G  GGG   !            |
|           WW  WW  A    A  R   R   N   NN  II  N   NN  G    G                |
|           W    W  A    A  R    R  N    N  II  N    N   GGGG   !!!           |
|                                                                             |
|      For optimal performance we recommend to set                            |
|        NCORE= 4 - approx SQRT( number of cores)                             |
|      NCORE specifies how many cores store one orbital (NPAR=cpu/NCORE).     |
|      This setting can  greatly improve the performance of VASP for DFT.     |
|      The default,   NCORE=1            might be grossly inefficient         |
|      on modern multi-core architectures or massively parallel machines.     |
|      Do your own testing !!!!                                               |
|      Unfortunately you need to use the default for GW and RPA calculations. |
|      (for HF NCORE is supported but not extensively tested yet)             |
|                                                                             |
 ----------------------------------------------------------------------------- 

 POTCAR:    PAW Al_GW 19Mar2012                   
   VRHFIN =Al: s2p1                                                             
   LEXCH  = PE                                                                  
   EATOM  =    53.5387 eV,    3.9350 Ry                                         
                                                                                
   TITEL  = PAW Al_GW 19Mar2012                                                 
   LULTRA =        F    use ultrasoft PP ?                                      
   IUNSCR =        1    unscreen: 0-lin 1-nonlin 2-no                           
   RPACOR =    1.500    partial core radius                                     
   POMASS =   26.982; ZVAL   =    3.000    mass and valenz                      
   RCORE  =    2.000    outmost cutoff radius                                   
   RWIGS  =    2.000; RWIGS  =    1.058    wigner-seitz radius (au A)           
   ENMAX  =  240.300; ENMIN  =  180.225 eV                                      
   ICORE  =        3    local potential                                         
   LCOR   =        T    correct aug charges                                     
   LPAW   =        T    paw PP                                                  
   EAUG   =  482.059                                                            
   DEXC   =    0.000                                                            
   RMAX   =    2.051    core radius for proj-oper                               
   RAUG   =    1.300    factor for augmentation sphere                          
   RDEP   =    2.096    radius for radial grids                                 
   RDEPT  =    1.856    core radius for aug-charge                              
                                                                                
   Atomic configuration                                                         
    7 entries                                                                   
     n  l   j            E        occ.                                          
     1  0  0.50     -1511.1048   2.0000                                         
     2  0  0.50      -108.1629   2.0000                                         
     2  1  1.50       -69.6402   6.0000                                         
     3  0  0.50        -7.7528   2.0000                                         
     3  1  1.50        -2.7121   1.0000                                         
     3  2  2.50        -2.7212   0.0000                                         
     4  3  2.50        -2.7212   0.0000                                         
   Description                                                                  
     l       E           TYP  RCUT    TYP  RCUT                                 
     0     -7.7528455     23  1.900                                             
     0     68.0291300     23  1.900                                             
     1     -2.7120682     23  1.900                                             
     1     68.0291300     23  1.900                                             
     2     -1.3605826     23  1.900                                             
     2     81.6349560     23  1.900                                             
     3     74.8320430     23  2.000                                             
  local pseudopotential read in
  partial core-charges read in
  partial kinetic energy density read in
  kinetic energy density of atom read in
  atomic valenz-charges read in
  non local Contribution for L=           0  read in
    real space projection operators read in
  non local Contribution for L=           0  read in
    real space projection operators read in
  non local Contribution for L=           1  read in
    real space projection operators read in
  non local Contribution for L=           1  read in
    real space projection operators read in
  non local Contribution for L=           2  read in
    real space projection operators read in
  non local Contribution for L=           2  read in
    real space projection operators read in
    PAW grid and wavefunctions read in
 
   number of l-projection  operators is LMAX  =           6
   number of lm-projection operators is LMMAX =          18
 
 POTCAR:    PAW_PBE N 08Apr2002                   
   VRHFIN =N: s2p3                                                              
   LEXCH  = PE                                                                  
   EATOM  =   264.5486 eV,   19.4438 Ry                                         
                                                                                
   TITEL  = PAW_PBE N 08Apr2002                                                 
   LULTRA =        F    use ultrasoft PP ?                                      
   IUNSCR =        1    unscreen: 0-lin 1-nonlin 2-no                           
   RPACOR =    1.200    partial core radius                                     
   POMASS =   14.001; ZVAL   =    5.000    mass and valenz                      
   RCORE  =    1.500    outmost cutoff radius                                   
   RWIGS  =    1.400; RWIGS  =    0.741    wigner-seitz radius (au A)           
   ENMAX  =  400.000; ENMIN  =  300.000 eV                                      
   ICORE  =        2    local potential                                         
   LCOR   =        T    correct aug charges                                     
   LPAW   =        T    paw PP                                                  
   EAUG   =  627.112                                                            
   DEXC   =    0.000                                                            
   RMAX   =    1.529    core radius for proj-oper                               
   RAUG   =    1.300    factor for augmentation sphere                          
   RDEP   =    1.514    radius for radial grids                                 
   RDEPT  =    1.338    core radius for aug-charge                              
                                                                                
   Atomic configuration                                                         
    4 entries                                                                   
     n  l   j            E        occ.                                          
     1  0  0.50      -384.7179   2.0000                                         
     2  0  0.50       -18.5828   2.0000                                         
     2  1  0.50        -7.0898   3.0000                                         
     3  2  1.50        -6.8029   0.0000                                         
   Description                                                                  
     l       E           TYP  RCUT    TYP  RCUT                                 
     0    -18.5828119     23  1.200                                             
     0    -13.5018863     23  1.200                                             
     1     -7.0897853     23  1.500                                             
     1      9.5240782     23  1.500                                             
     2     -6.8029130      7  1.500                                             
  local pseudopotential read in
  partial core-charges read in
  partial kinetic energy density read in
  atomic valenz-charges read in
  non local Contribution for L=           0  read in
    real space projection operators read in
  non local Contribution for L=           0  read in
    real space projection operators read in
  non local Contribution for L=           1  read in
    real space projection operators read in
  non local Contribution for L=           1  read in
    real space projection operators read in
    PAW grid and wavefunctions read in
 
   number of l-projection  operators is LMAX  =           4
   number of lm-projection operators is LMMAX =           8
 
 Optimization of the real space projectors (new method)

 maximal supplied QI-value         = 18.90
 optimisation between [QCUT,QGAM] = [  8.69, 17.57] = [ 21.16, 86.49] Ry 
 Optimized for a Real-space Cutoff    1.59 Angstroem

   l    n(q)    QCUT    max X(q) W(low)/X(q) W(high)/X(q)  e(spline) 
   0      8     8.693    11.519    0.12E-03    0.31E-04    0.21E-06
   0      8     8.693     5.834    0.89E-04    0.32E-04    0.16E-06
   1      8     8.693    10.132    0.25E-03    0.39E-03    0.25E-06
   1      8     8.693     3.004    0.16E-03    0.27E-03    0.22E-06
   2      7     8.693     3.169    0.39E-03    0.93E-03    0.44E-06
   2      7     8.693     1.605    0.70E-04    0.91E-04    0.19E-06
 Optimization of the real space projectors (new method)

 maximal supplied QI-value         = 25.13
 optimisation between [QCUT,QGAM] = [  8.80, 17.59] = [ 21.67, 86.68] Ry 
 Optimized for a Real-space Cutoff    2.14 Angstroem

   l    n(q)    QCUT    max X(q) W(low)/X(q) W(high)/X(q)  e(spline) 
   0     11     8.797    79.467    0.70E-04    0.19E-04    0.19E-05
   0     11     8.797    66.151    0.68E-04    0.18E-04    0.19E-05
   1     11     8.797     6.738    0.26E-03    0.11E-02    0.73E-05
   1     11     8.797     5.013    0.25E-03    0.11E-02    0.72E-05
  PAW Al_GW 19Mar2012                   :
 energy of atom  1       EATOM=  -53.5387
 kinetic energy error for atom=    0.0011 (will be added to EATOM!!)
  PAW_PBE N 08Apr2002                   :
 energy of atom  2       EATOM= -264.5486
 kinetic energy error for atom=    0.6882 (will be added to EATOM!!)
 
 
 POSCAR: New structure                           
  positions in cartesian coordinates
  No initial velocities read in
 exchange correlation table for  LEXCH =        8
   RHO(1)=    0.500       N(1)  =     2000
   RHO(2)=  100.500       N(2)  =     4000
 


--------------------------------------------------------------------------------------------------------


 ion  position               nearest neighbor table
   1  0.444  0.444  0.079-
   2  0.444  0.778  0.079-
   3  0.444  0.111  0.079-
   4  0.778  0.444  0.079-
   5  0.778  0.778  0.079-
   6  0.778  0.111  0.079-
   7  0.111  0.444  0.079-
   8  0.111  0.778  0.079-
   9  0.111  0.111  0.079-
  10  0.556  0.556  0.157-
  11  0.556  0.889  0.157-
  12  0.556  0.222  0.157-
  13  0.889  0.556  0.157-
  14  0.889  0.889  0.157-
  15  0.889  0.222  0.157-
  16  0.222  0.556  0.157-
  17  0.222  0.889  0.157-
  18  0.222  0.222  0.157-
  19  0.667  0.667  0.234-
  20  0.667  0.000  0.234-
  21  0.667  0.333  0.234-
  22  0.000  0.667  0.234-
  23  0.000  0.000  0.234-
  24  0.000  0.333  0.234-
  25  0.333  0.667  0.234-
  26  0.333  0.000  0.234-
  27  0.333  0.333  0.234-
  28  0.778  0.778  0.312-
  29  0.778  0.111  0.312-
  30  0.778  0.444  0.312-
  31  0.111  0.778  0.312-
  32  0.111  0.111  0.312-
  33  0.111  0.444  0.312-
  34  0.444  0.778  0.312-
  35  0.444  0.111  0.312-
  36  0.444  0.444  0.312-
  37  0.889  0.889  0.390-
  38  0.889  0.222  0.390-
  39  0.889  0.556  0.390-
  40  0.222  0.889  0.390-
  41  0.222  0.222  0.390-
  42  0.222  0.556  0.390-
  43  0.556  0.889  0.390-
  44  0.556  0.222  0.390-
  45  0.556  0.556  0.390-
  46  0.000  0.000  0.466-
  47  0.000  0.333  0.466-
  48  0.000  0.667  0.466-
  49  0.333  0.000  0.466-
  50  0.333  0.333  0.466-
  51  0.333  0.667  0.466-
  52  0.667  0.000  0.466-
  53  0.667  0.333  0.466-
  54  0.667  0.667  0.466-
  55  0.111  0.111  0.545-
  56  0.111  0.444  0.545-
  57  0.111  0.778  0.545-
  58  0.444  0.111  0.545-
  59  0.444  0.444  0.545-
  60  0.444  0.778  0.545-
  61  0.778  0.111  0.545-
  62  0.778  0.444  0.545-
  63  0.778  0.778  0.545-
  64  0.278  0.278  0.079-
  65  0.278  0.611  0.079-
  66  0.278  0.944  0.079-
  67  0.611  0.278  0.079-
  68  0.611  0.611  0.079-
  69  0.611  0.944  0.079-
  70  0.944  0.278  0.079-
  71  0.944  0.611  0.079-
  72  0.944  0.944  0.079-
  73  0.389  0.389  0.157-
  74  0.389  0.722  0.157-
  75  0.389  0.056  0.157-
  76  0.722  0.389  0.157-
  77  0.722  0.722  0.157-
  78  0.722  0.056  0.157-
  79  0.056  0.389  0.157-
  80  0.056  0.722  0.157-
  81  0.056  0.056  0.157-
  82  0.500  0.500  0.234-
  83  0.500  0.833  0.234-
  84  0.500  0.167  0.234-
  85  0.833  0.500  0.234-
  86  0.833  0.833  0.234-
  87  0.833  0.167  0.234-
  88  0.167  0.500  0.234-
  89  0.167  0.833  0.234-
  90  0.167  0.167  0.234-
  91  0.611  0.611  0.312-
  92  0.611  0.944  0.312-
  93  0.611  0.278  0.312-
  94  0.944  0.611  0.312-
  95  0.944  0.944  0.312-
  96  0.944  0.278  0.312-
  97  0.278  0.611  0.312-
  98  0.278  0.944  0.312-
  99  0.278  0.278  0.312-
 100  0.722  0.722  0.390-
 101  0.722  0.056  0.390-
 102  0.722  0.389  0.390-
 103  0.056  0.722  0.390-
 104  0.056  0.056  0.390-
 105  0.056  0.389  0.390-
 106  0.389  0.722  0.390-
 107  0.389  0.056  0.390-
 108  0.389  0.389  0.390-
 109  0.833  0.833  0.466-
 110  0.833  0.167  0.466-
 111  0.833  0.500  0.466-
 112  0.167  0.833  0.466-
 113  0.167  0.167  0.466-
 114  0.167  0.500  0.466-
 115  0.500  0.833  0.466-
 116  0.500  0.167  0.466-
 117  0.500  0.500  0.466-
 118  0.944  0.944  0.545-
 119  0.944  0.278  0.545-
 120  0.944  0.611  0.545-
 121  0.278  0.944  0.545-
 122  0.278  0.278  0.545-
 123  0.278  0.611  0.545-
 124  0.611  0.944  0.545-
 125  0.611  0.278  0.545-
 126  0.611  0.611  0.545-
 127  0.278  0.444  0.079-
 128  0.278  0.778  0.079-
 129  0.278  0.111  0.079-
 130  0.611  0.444  0.079-
 131  0.611  0.778  0.079-
 132  0.611  0.111  0.079-
 133  0.944  0.444  0.079-
 134  0.944  0.778  0.079-
 135  0.944  0.111  0.079-
 136  0.389  0.556  0.157-
 137  0.389  0.889  0.157-
 138  0.389  0.222  0.157-
 139  0.722  0.556  0.157-
 140  0.722  0.889  0.157-
 141  0.722  0.222  0.157-
 142  0.056  0.556  0.157-
 143  0.056  0.889  0.157-
 144  0.056  0.222  0.157-
 145  0.500  0.667  0.234-
 146  0.500  0.000  0.234-
 147  0.500  0.333  0.234-
 148  0.833  0.667  0.234-
 149  0.833  0.000  0.234-
 150  0.833  0.333  0.234-
 151  0.167  0.667  0.234-
 152  0.167  0.000  0.234-
 153  0.167  0.333  0.234-
 154  0.611  0.778  0.312-
 155  0.611  0.111  0.312-
 156  0.611  0.444  0.312-
 157  0.944  0.778  0.312-
 158  0.944  0.111  0.312-
 159  0.944  0.444  0.312-
 160  0.278  0.778  0.312-
 161  0.278  0.111  0.312-
 162  0.278  0.444  0.312-
 163  0.722  0.889  0.390-
 164  0.722  0.222  0.390-
 165  0.722  0.556  0.390-
 166  0.056  0.889  0.390-
 167  0.056  0.222  0.390-
 168  0.056  0.556  0.390-
 169  0.389  0.889  0.390-
 170  0.389  0.222  0.390-
 171  0.389  0.556  0.390-
 172  0.833  0.000  0.466-
 173  0.833  0.333  0.466-
 174  0.833  0.667  0.466-
 175  0.167  0.000  0.466-
 176  0.167  0.333  0.466-
 177  0.167  0.667  0.466-
 178  0.500  0.000  0.466-
 179  0.500  0.333  0.466-
 180  0.500  0.667  0.466-
 181  0.944  0.111  0.545-
 182  0.944  0.444  0.545-
 183  0.944  0.778  0.545-
 184  0.278  0.111  0.545-
 185  0.278  0.444  0.545-
 186  0.278  0.778  0.545-
 187  0.611  0.111  0.545-
 188  0.611  0.444  0.545-
 189  0.611  0.778  0.545-
 190  0.444  0.278  0.079-
 191  0.444  0.611  0.079-
 192  0.444  0.944  0.079-
 193  0.778  0.278  0.079-
 194  0.778  0.611  0.079-
 195  0.778  0.944  0.079-
 196  0.111  0.278  0.079-
 197  0.111  0.611  0.079-
 198  0.111  0.944  0.079-
 199  0.556  0.389  0.157-
 200  0.556  0.722  0.157-
 201  0.556  0.056  0.157-
 202  0.889  0.389  0.157-
 203  0.889  0.722  0.157-
 204  0.889  0.056  0.157-
 205  0.222  0.389  0.157-
 206  0.222  0.722  0.157-
 207  0.222  0.056  0.157-
 208  0.667  0.500  0.234-
 209  0.667  0.833  0.234-
 210  0.667  0.167  0.234-
 211  1.000  0.500  0.234-
 212  1.000  0.833  0.234-
 213  1.000  0.167  0.234-
 214  0.333  0.500  0.234-
 215  0.333  0.833  0.234-
 216  0.333  0.167  0.234-
 217  0.778  0.611  0.312-
 218  0.778  0.944  0.312-
 219  0.778  0.278  0.312-
 220  0.111  0.611  0.312-
 221  0.111  0.944  0.312-
 222  0.111  0.278  0.312-
 223  0.444  0.611  0.312-
 224  0.444  0.944  0.312-
 225  0.444  0.278  0.312-
 226  0.889  0.722  0.390-
 227  0.889  0.056  0.390-
 228  0.889  0.389  0.390-
 229  0.222  0.722  0.390-
 230  0.222  0.056  0.390-
 231  0.222  0.389  0.390-
 232  0.556  0.722  0.390-
 233  0.556  0.056  0.390-
 234  0.556  0.389  0.390-
 235  1.000  0.833  0.466-
 236  1.000  0.167  0.466-
 237  1.000  0.500  0.466-
 238  0.333  0.833  0.466-
 239  0.333  0.167  0.466-
 240  0.333  0.500  0.466-
 241  0.667  0.833  0.466-
 242  0.667  0.167  0.466-
 243  0.667  0.500  0.466-
 244  0.111  0.944  0.545-
 245  0.111  0.278  0.545-
 246  0.111  0.611  0.545-
 247  0.444  0.944  0.545-
 248  0.444  0.278  0.545-
 249  0.444  0.611  0.545-
 250  0.778  0.944  0.545-
 251  0.778  0.278  0.545-
 252  0.778  0.611  0.545-
 253  0.343  0.481  0.601- 254 1.10
 254  0.380  0.407  0.601- 253 1.10
 
  LATTYP: Found a hexagonal cell.
 ALAT       =    17.1805734625
 C/A-ratio  =     1.7461582447
  
  Lattice vectors:
  
 A1 = (   0.0000000000,  -8.5902867312,  14.8788130701)
 A2 = (   0.0000000000,  17.1805734625,   0.0000000000)
 A3 = ( -30.0000000000,   0.0000000000,   0.0000000000)


Analysis of symmetry for initial positions (statically):
=====================================================================
 Subroutine PRICEL returns:
 Original cell was already a primitive cell.
 

 Routine SETGRP: Setting up the symmetry group for a 
 hexagonal supercell.


 Subroutine GETGRP returns: Found  2 space group operations
 (whereof  1 operations were pure point group operations)
 out of a pool of 24 trial point group operations.


The static configuration has the point symmetry C_1 .
 The point group associated with its full space group is C_1h.


Analysis of symmetry for dynamics (positions and initial velocities):
=====================================================================
 Subroutine PRICEL returns:
 Original cell was already a primitive cell.
 

 Routine SETGRP: Setting up the symmetry group for a 
 hexagonal supercell.


 Subroutine GETGRP returns: Found  2 space group operations
 (whereof  1 operations were pure point group operations)
 out of a pool of 24 trial point group operations.


The dynamic configuration has the point symmetry C_1 .
 The point group associated with its full space group is C_1h.


 Subroutine INISYM returns: Found  2 space group operations
 (whereof  1 operations are pure point group operations),
 and found     1 'primitive' translations

 
 
 KPOINTS: Automatic generation                    

Automatic generation of k-mesh.
Space group operators:
 irot       det(A)        alpha          n_x          n_y          n_z        tau_x        tau_y        tau_z
    1     1.000000     0.000000     1.000000     0.000000     0.000000     0.000000     0.000000     0.000000
    2    -1.000000   180.000000     0.000000     1.000000     0.000000    -0.833333     0.000000     0.000000
 
 Subroutine IBZKPT returns following result:
 ===========================================
 
 Found      3 irreducible k-points:
 
 Following reciprocal coordinates:
            Coordinates               Weight
  0.000000  0.000000  0.000000      1.000000
  0.500000  0.000000  0.000000      2.000000
  0.000000  0.500000  0.000000      1.000000
 
 Following cartesian coordinates:
            Coordinates               Weight
  0.000000  0.000000  0.000000      1.000000
  0.000000 -0.029103  0.016802      2.000000
  0.000000  0.000000 -0.033605      1.000000
 


--------------------------------------------------------------------------------------------------------




 Dimension of arrays:
   k-points           NKPTS =      3   k-points in BZ     NKDIM =      3   number of bands    NBANDS=    516
   number of dos      NEDOS =    301   number of ions     NIONS =    254
   non local maximal  LDIM  =      6   non local SUM 2l+1 LMDIM =     18
   total plane-waves  NPLWV = 819200
   max r-space proj   IRMAX =   4449   max aug-charges    IRDMAX=   4357
   dimension x,y,z NGX =    80 NGY =   80 NGZ =  128
   dimension x,y,z NGXF=   160 NGYF=  160 NGZF=  256
   support grid    NGXF=   160 NGYF=  160 NGZF=  256
   ions per type =             252   2
   NGX,Y,Z   is equivalent  to a cutoff of   7.74,  7.74,  7.09 a.u.
   NGXF,Y,Z  is equivalent  to a cutoff of  15.48, 15.48, 14.19 a.u.

 SYSTEM =  NiAl                                    
 POSCAR =  New structure                           

 Startparameter for this run:
   NWRITE =      2    write-flag & timer
   PREC   = normal    normal or accurate (medium, high low for compatibility)
   ISTART =      0    job   : 0-new  1-cont  2-samecut
   ICHARG =      2    charge: 1-file 2-atom 10-const
   ISPIN  =      1    spin polarized calculation?
   LNONCOLLINEAR =      F non collinear calculations
   LSORBIT =      F    spin-orbit coupling
   INIWAV =      1    electr: 0-lowe 1-rand  2-diag
   LASPH  =      F    aspherical Exc in radial PAW
   METAGGA=      F    non-selfconsistent MetaGGA calc.

 Electronic Relaxation 1
   ENCUT  =  300.0 eV  22.05 Ry    4.70 a.u.  24.26 24.26 42.37*2*pi/ulx,y,z
   ENINI  =  300.0     initial cutoff
   ENAUG  =  627.1 eV  augmentation charge cutoff
   NELM   =     60;   NELMIN=  6; NELMDL= -5     # of ELM steps 
   EDIFF  = 0.5E-05   stopping-criterion for ELM
   LREAL  =      T    real-space projection
   NLSPLINE    = F    spline interpolate recip. space projectors
   LCOMPAT=      F    compatible to vasp.4.4
   GGA_COMPAT  = T    GGA compatible to vasp.4.4-vasp.4.6
   LMAXPAW     = -100 max onsite density
   LMAXMIX     =    2 max onsite mixed and CHGCAR
   VOSKOWN=      0    Vosko Wilk Nusair interpolation
   ROPT   =   -0.00050  -0.00050
 Ionic relaxation
   EDIFFG = 0.5E-04   stopping-criterion for IOM
   NSW    =      0    number of steps for IOM
   NBLOCK =      1;   KBLOCK =      1    inner block; outer block 
   IBRION =     -1    ionic relax: 0-MD 1-quasi-New 2-CG
   NFREE  =      0    steps in history (QN), initial steepest desc. (CG)
   ISIF   =      0    stress and relaxation
   IWAVPR =     10    prediction:  0-non 1-charg 2-wave 3-comb
   ISYM   =      2    0-nonsym 1-usesym 2-fastsym
   LCORR  =      T    Harris-Foulkes like correction to forces

   POTIM  = 0.5000    time-step for ionic-motion
   TEIN   =    0.0    initial temperature
   TEBEG  =    0.0;   TEEND  =   0.0 temperature during run
   SMASS  =  -3.00    Nose mass-parameter (am)
   estimated Nose-frequenzy (Omega)   =  0.10E-29 period in steps =****** mass=  -0.675E-26a.u.
   SCALEE = 1.0000    scale energy and forces
   NPACO  =    256;   APACO  = 16.0  distance and # of slots for P.C.
   PSTRESS=    0.0 pullay stress

  Mass of Ions in am
   POMASS =  26.98 14.00
  Ionic Valenz
   ZVAL   =   3.00  5.00
  Atomic Wigner-Seitz radii
   RWIGS  =  -1.00 -1.00
  virtual crystal weights 
   VCA    =   1.00  1.00
   NELECT =     766.0000    total number of electrons
   NUPDOWN=      -1.0000    fix difference up-down

 DOS related values:
   EMIN   =  10.00;   EMAX   =-10.00  energy-range for DOS
   EFERMI =   0.00
   ISMEAR =     0;   SIGMA  =   0.05  broadening in eV -4-tet -1-fermi 0-gaus

 Electronic relaxation 2 (details)
   IALGO  =     38    algorithm
   LDIAG  =      T    sub-space diagonalisation (order eigenvalues)
   LSUBROT=      F    optimize rotation matrix (better conditioning)
   TURBO    =      0    0=normal 1=particle mesh
   IRESTART =      0    0=no restart 2=restart with 2 vectors
   NREBOOT  =      0    no. of reboots
   NMIN     =      0    reboot dimension
   EREF     =   0.00    reference energy to select bands
   IMIX   =      4    mixing-type and parameters
     AMIX     =   0.40;   BMIX     =  1.00
     AMIX_MAG =   1.60;   BMIX_MAG =  1.00
     AMIN     =   0.10
     WC   =   100.;   INIMIX=   1;  MIXPRE=   1;  MAXMIX= -45

 Intra band minimization:
   WEIMIN = 0.0000     energy-eigenvalue tresh-hold
   EBREAK =  0.24E-08  absolut break condition
   DEPER  =   0.30     relativ break condition  

   TIME   =   0.40     timestep for ELM

  volume/ion in A,a.u.               =      30.19       203.75
  Fermi-wavevector in a.u.,A,eV,Ry     =   0.759583  1.435404  7.850108  0.576967
  Thomas-Fermi vector in A             =   1.858410
 
 Write flags
   LWAVE        =      F    write WAVECAR
   LDOWNSAMPLE  =      F    k-point downsampling of WAVECAR
   LCHARG       =      F    write CHGCAR
   LVTOT        =      F    write LOCPOT, total local potential
   LVHAR        =      F    write LOCPOT, Hartree potential only
   LELF         =      F    write electronic localiz. function (ELF)
   LORBIT       =      0    0 simple, 1 ext, 2 COOP (PROOUT), +10 PAW based schemes


 Dipole corrections
   LMONO  =      F    monopole corrections only (constant potential shift)
   LDIPOL =      F    correct potential (dipole corrections)
   IDIPOL =      0    1-x, 2-y, 3-z, 4-all directions 
   EPSILON=  1.0000000 bulk dielectric constant

 Exchange correlation treatment:
   GGA     =    --    GGA type
   LEXCH   =     8    internal setting for exchange type
   VOSKOWN=      0    Vosko Wilk Nusair interpolation
   LHFCALC =     F    Hartree Fock is set to
   LHFONE  =     F    Hartree Fock one center treatment
   AEXX    =    0.0000 exact exchange contribution

 Linear response parameters
   LEPSILON=     F    determine dielectric tensor
   LRPA    =     F    only Hartree local field effects (RPA)
   LNABLA  =     F    use nabla operator in PAW spheres
   LVEL    =     F    velocity operator in full k-point grid
   LINTERFAST=   F  fast interpolation
   KINTER  =     0    interpolate to denser k-point grid
   CSHIFT  =0.1000    complex shift for real part using Kramers Kronig
   OMEGAMAX=  -1.0    maximum frequency
   DEG_THRESHOLD= 0.2000000E-02 threshold for treating states as degnerate
   RTIME   =   -0.100 relaxation time in fs
  (WPLASMAI=    0.000 imaginary part of plasma frequency in eV, 0.658/RTIME)
   DFIELD  = 0.0000000 0.0000000 0.0000000 field for delta impulse in time
 
 Orbital magnetization related:
   ORBITALMAG=     F  switch on orbital magnetization
   LCHIMAG   =     F  perturbation theory with respect to B field
   DQ        =  0.001000  dq finite difference perturbation B field
   LLRAUG    =     F  two centre corrections for induced B field



--------------------------------------------------------------------------------------------------------


 Static calculation
 charge density and potential will be updated during run
 non-spin polarized calculation
 Variant of blocked Davidson
 Davidson routine will perform the subspace rotation
 perform sub-space diagonalisation
    after iterative eigenvector-optimisation
 modified Broyden-mixing scheme, WC =      100.0
 initial mixing is a Kerker type mixing with AMIX =  0.4000 and BMIX =      1.0000
 Hartree-type preconditioning will be used
 using additional bands          133
 real space projection scheme for non local part
 use partial core corrections
 calculate Harris-corrections to forces 
   (improved forces if not selfconsistent)
 use gradient corrections 
 use of overlap-Matrix (Vanderbilt PP)
 Gauss-broadening in eV      SIGMA  =   0.05


--------------------------------------------------------------------------------------------------------


  energy-cutoff  :      300.00
  volume of cell :     7668.80
      direct lattice vectors                 reciprocal lattice vectors
     0.000000000-17.180573462  0.000000000     0.000000000 -0.058205275  0.033604831
     0.000000000 -8.590286731-14.878813070     0.000000000  0.000000000 -0.067209662
    30.000000000  0.000000000  0.000000000     0.033333333  0.000000000  0.000000000

  length of vectors
    17.180573462 17.180573462 30.000000000     0.067209662  0.067209662  0.033333333


 
 k-points in units of 2pi/SCALE and weight: Automatic generation                    
   0.00000000  0.00000000  0.00000000       0.250
   0.00000000 -0.02910264  0.01680242       0.500
   0.00000000  0.00000000 -0.03360483       0.250
 
 k-points in reciprocal lattice and weights: Automatic generation                    
   0.00000000  0.00000000  0.00000000       0.250
   0.50000000  0.00000000  0.00000000       0.500
   0.00000000  0.50000000  0.00000000       0.250
 
 position of ions in fractional coordinates (direct lattice) 
   0.44444456  0.44444473  0.07873467
   0.44444419  0.77777777  0.07873467
   0.44444468  0.11111101  0.07873467
   0.77777744  0.44444473  0.07873467
   0.77777765  0.77777777  0.07873467
   0.77777756  0.11111101  0.07873467
   0.11111110  0.44444473  0.07873467
   0.11111131  0.77777777  0.07873467
   0.11111122  0.11111101  0.07873467
   0.55555520  0.55555574  0.15702600
   0.55555541  0.88888878  0.15702600
   0.55555591  0.22222203  0.15702600
   0.88888866  0.55555574  0.15702600
   0.88888887  0.88888878  0.15702600
   0.88888878  0.22222203  0.15702600
   0.22222232  0.55555574  0.15702600
   0.22222253  0.88888878  0.15702600
   0.22222245  0.22222203  0.15702600
   0.66666642  0.66666675  0.23375733
   0.66666692  0.00000000  0.23375733
   0.66666655  0.33333304  0.23375733
   0.00000008  0.66666675  0.23375733
   0.00000000  0.00000000  0.23375733
   0.00000021  0.33333304  0.23375733
   0.33333354  0.66666675  0.23375733
   0.33333346  0.00000000  0.23375733
   0.33333367  0.33333304  0.23375733
   0.77777765  0.77777777  0.31173067
   0.77777756  0.11111101  0.31173067
   0.77777744  0.44444473  0.31173067
   0.11111131  0.77777777  0.31173067
   0.11111122  0.11111101  0.31173067
   0.11111110  0.44444473  0.31173067
   0.44444419  0.77777777  0.31173067
   0.44444468  0.11111101  0.31173067
   0.44444456  0.44444473  0.31173067
   0.88888887  0.88888878  0.38970400
   0.88888878  0.22222203  0.38970400
   0.88888866  0.55555574  0.38970400
   0.22222253  0.88888878  0.38970400
   0.22222245  0.22222203  0.38970400
   0.22222232  0.55555574  0.38970400
   0.55555541  0.88888878  0.38970400
   0.55555591  0.22222203  0.38970400
   0.55555520  0.55555574  0.38970400
   0.00000000  0.00000000  0.46643533
   0.00000021  0.33333304  0.46643533
   0.00000008  0.66666675  0.46643533
   0.33333346  0.00000000  0.46643533
   0.33333367  0.33333304  0.46643533
   0.33333354  0.66666675  0.46643533
   0.66666692  0.00000000  0.46643533
   0.66666655  0.33333304  0.46643533
   0.66666642  0.66666675  0.46643533
   0.11111122  0.11111101  0.54472667
   0.11111110  0.44444473  0.54472667
   0.11111131  0.77777777  0.54472667
   0.44444468  0.11111101  0.54472667
   0.44444456  0.44444473  0.54472667
   0.44444419  0.77777777  0.54472667
   0.77777756  0.11111101  0.54472667
   0.77777744  0.44444473  0.54472667
   0.77777765  0.77777777  0.54472667
   0.27777777  0.27777753  0.07873467
   0.27777764  0.61111125  0.07873467
   0.27777785  0.94444429  0.07873467
   0.61111123  0.27777753  0.07873467
   0.61111110  0.61111125  0.07873467
   0.61111131  0.94444429  0.07873467
   0.94444469  0.27777753  0.07873467
   0.94444456  0.61111125  0.07873467
   0.94444477  0.94444429  0.07873467
   0.38888865  0.38888922  0.15702600
   0.38888886  0.72222226  0.15702600
   0.38888878  0.05555551  0.15702600
   0.72222211  0.38888922  0.15702600
   0.72222232  0.72222226  0.15702600
   0.72222224  0.05555551  0.15702600
   0.05555519  0.38888922  0.15702600
   0.05555540  0.72222226  0.15702600
   0.05555532  0.05555551  0.15702600
   0.49999988  0.50000023  0.23375733
   0.50000009  0.83333327  0.23375733
   0.50000000  0.16666652  0.23375733
   0.83333334  0.50000023  0.23375733
   0.83333355  0.83333327  0.23375733
   0.83333346  0.16666652  0.23375733
   0.16666642  0.50000023  0.23375733
   0.16666663  0.83333327  0.23375733
   0.16666654  0.16666652  0.23375733
   0.61111110  0.61111125  0.31173067
   0.61111131  0.94444429  0.31173067
   0.61111123  0.27777753  0.31173067
   0.94444456  0.61111125  0.31173067
   0.94444477  0.94444429  0.31173067
   0.94444469  0.27777753  0.31173067
   0.27777764  0.61111125  0.31173067
   0.27777785  0.94444429  0.31173067
   0.27777777  0.27777753  0.31173067
   0.72222232  0.72222226  0.38970400
   0.72222224  0.05555551  0.38970400
   0.72222211  0.38888922  0.38970400
   0.05555540  0.72222226  0.38970400
   0.05555532  0.05555551  0.38970400
   0.05555519  0.38888922  0.38970400
   0.38888886  0.72222226  0.38970400
   0.38888878  0.05555551  0.38970400
   0.38888865  0.38888922  0.38970400
   0.83333355  0.83333327  0.46643533
   0.83333346  0.16666652  0.46643533
   0.83333334  0.50000023  0.46643533
   0.16666663  0.83333327  0.46643533
   0.16666654  0.16666652  0.46643533
   0.16666642  0.50000023  0.46643533
   0.50000009  0.83333327  0.46643533
   0.50000000  0.16666652  0.46643533
   0.49999988  0.50000023  0.46643533
   0.94444477  0.94444429  0.54472667
   0.94444469  0.27777753  0.54472667
   0.94444456  0.61111125  0.54472667
   0.27777785  0.94444429  0.54472667
   0.27777777  0.27777753  0.54472667
   0.27777764  0.61111125  0.54472667
   0.61111131  0.94444429  0.54472667
   0.61111123  0.27777753  0.54472667
   0.61111110  0.61111125  0.54472667
   0.27777783  0.44444473  0.07873467
   0.27777804  0.77777777  0.07873467
   0.27777795  0.11111101  0.07873467
   0.61111071  0.44444473  0.07873467
   0.61111092  0.77777777  0.07873467
   0.61111141  0.11111101  0.07873467
   0.94444417  0.44444473  0.07873467
   0.94444438  0.77777777  0.07873467
   0.94444429  0.11111101  0.07873467
   0.38888905  0.55555574  0.15702600
   0.38888868  0.88888878  0.15702600
   0.38888918  0.22222203  0.15702600
   0.72222193  0.55555574  0.15702600
   0.72222214  0.88888878  0.15702600
   0.72222205  0.22222203  0.15702600
   0.05555559  0.55555574  0.15702600
   0.05555580  0.88888878  0.15702600
   0.05555572  0.22222203  0.15702600
   0.49999969  0.66666675  0.23375733
   0.50000019  0.00000000  0.23375733
   0.50000040  0.33333304  0.23375733
   0.83333315  0.66666675  0.23375733
   0.83333307  0.00000000  0.23375733
   0.83333328  0.33333304  0.23375733
   0.16666681  0.66666675  0.23375733
   0.16666673  0.00000000  0.23375733
   0.16666694  0.33333304  0.23375733
   0.61111092  0.77777777  0.31173067
   0.61111141  0.11111101  0.31173067
   0.61111071  0.44444473  0.31173067
   0.94444438  0.77777777  0.31173067
   0.94444429  0.11111101  0.31173067
   0.94444417  0.44444473  0.31173067
   0.27777804  0.77777777  0.31173067
   0.27777795  0.11111101  0.31173067
   0.27777783  0.44444473  0.31173067
   0.72222214  0.88888878  0.38970400
   0.72222205  0.22222203  0.38970400
   0.72222193  0.55555574  0.38970400
   0.05555580  0.88888878  0.38970400
   0.05555572  0.22222203  0.38970400
   0.05555559  0.55555574  0.38970400
   0.38888868  0.88888878  0.38970400
   0.38888918  0.22222203  0.38970400
   0.38888905  0.55555574  0.38970400
   0.83333307  0.00000000  0.46643533
   0.83333328  0.33333304  0.46643533
   0.83333315  0.66666675  0.46643533
   0.16666673  0.00000000  0.46643533
   0.16666694  0.33333304  0.46643533
   0.16666681  0.66666675  0.46643533
   0.50000019  0.00000000  0.46643533
   0.50000040  0.33333304  0.46643533
   0.49999969  0.66666675  0.46643533
   0.94444429  0.11111101  0.54472667
   0.94444417  0.44444473  0.54472667
   0.94444438  0.77777777  0.54472667
   0.27777795  0.11111101  0.54472667
   0.27777783  0.44444473  0.54472667
   0.27777804  0.77777777  0.54472667
   0.61111141  0.11111101  0.54472667
   0.61111071  0.44444473  0.54472667
   0.61111092  0.77777777  0.54472667
   0.44444450  0.27777753  0.07873467
   0.44444437  0.61111125  0.07873467
   0.44444458  0.94444429  0.07873467
   0.77777796  0.27777753  0.07873467
   0.77777783  0.61111125  0.07873467
   0.77777804  0.94444429  0.07873467
   0.11111104  0.27777753  0.07873467
   0.11111091  0.61111125  0.07873467
   0.11111112  0.94444429  0.07873467
   0.55555538  0.38888922  0.15702600
   0.55555559  0.72222226  0.15702600
   0.55555551  0.05555551  0.15702600
   0.88888884  0.38888922  0.15702600
   0.88888905  0.72222226  0.15702600
   0.88888897  0.05555551  0.15702600
   0.22222192  0.38888922  0.15702600
   0.22222213  0.72222226  0.15702600
   0.22222205  0.05555551  0.15702600
   0.66666661  0.50000023  0.23375733
   0.66666682  0.83333327  0.23375733
   0.66666673  0.16666652  0.23375733
   0.99999969  0.50000023  0.23375733
   0.99999990  0.83333327  0.23375733
   0.99999981  0.16666652  0.23375733
   0.33333315  0.50000023  0.23375733
   0.33333336  0.83333327  0.23375733
   0.33333327  0.16666652  0.23375733
   0.77777783  0.61111125  0.31173067
   0.77777804  0.94444429  0.31173067
   0.77777796  0.27777753  0.31173067
   0.11111091  0.61111125  0.31173067
   0.11111112  0.94444429  0.31173067
   0.11111104  0.27777753  0.31173067
   0.44444437  0.61111125  0.31173067
   0.44444458  0.94444429  0.31173067
   0.44444450  0.27777753  0.31173067
   0.88888905  0.72222226  0.38970400
   0.88888897  0.05555551  0.38970400
   0.88888884  0.38888922  0.38970400
   0.22222213  0.72222226  0.38970400
   0.22222205  0.05555551  0.38970400
   0.22222192  0.38888922  0.38970400
   0.55555559  0.72222226  0.38970400
   0.55555551  0.05555551  0.38970400
   0.55555538  0.38888922  0.38970400
   0.99999990  0.83333327  0.46643533
   0.99999981  0.16666652  0.46643533
   0.99999969  0.50000023  0.46643533
   0.33333336  0.83333327  0.46643533
   0.33333327  0.16666652  0.46643533
   0.33333315  0.50000023  0.46643533
   0.66666682  0.83333327  0.46643533
   0.66666673  0.16666652  0.46643533
   0.66666661  0.50000023  0.46643533
   0.11111112  0.94444429  0.54472667
   0.11111104  0.27777753  0.54472667
   0.11111091  0.61111125  0.54472667
   0.44444458  0.94444429  0.54472667
   0.44444450  0.27777753  0.54472667
   0.44444437  0.61111125  0.54472667
   0.77777804  0.94444429  0.54472667
   0.77777796  0.27777753  0.54472667
   0.77777783  0.61111125  0.54472667
   0.34272267  0.48122118  0.60133333
   0.37958737  0.40749218  0.60133333
 
 position of ions in cartesian coordinates  (Angst):
   2.36204000-11.45372000 -6.61281000
   2.36204000-14.31714000-11.57241000
   2.36204000 -8.59029000 -1.65320000
   2.36204000-17.18057000 -6.61281000
   2.36204000-20.04400000-11.57241000
   2.36204000-14.31714000 -1.65320000
   2.36204000 -5.72686000 -6.61281000
   2.36204000 -8.59029000-11.57241000
   2.36204000 -2.86343000 -1.65320000
   4.71078000-14.31714000 -8.26601000
   4.71078000-17.18057000-13.22561000
   4.71078000-11.45372000 -3.30640000
   4.71078000-20.04400000 -8.26601000
   4.71078000-22.90743000-13.22561000
   4.71078000-17.18057000 -3.30640000
   4.71078000 -8.59029000 -8.26601000
   4.71078000-11.45372000-13.22561000
   4.71078000 -5.72686000 -3.30640000
   7.01272000-17.18057000 -9.91921000
   7.01272000-11.45372000  0.00000000
   7.01272000-14.31714000 -4.95960000
   7.01272000 -5.72686000 -9.91921000
   7.01272000  0.00000000  0.00000000
   7.01272000 -2.86343000 -4.95960000
   7.01272000-11.45372000 -9.91921000
   7.01272000 -5.72686000  0.00000000
   7.01272000 -8.59029000 -4.95960000
   9.35192000-20.04400000-11.57241000
   9.35192000-14.31714000 -1.65320000
   9.35192000-17.18057000 -6.61281000
   9.35192000 -8.59029000-11.57241000
   9.35192000 -2.86343000 -1.65320000
   9.35192000 -5.72686000 -6.61281000
   9.35192000-14.31714000-11.57241000
   9.35192000 -8.59029000 -1.65320000
   9.35192000-11.45372000 -6.61281000
  11.69112000-22.90743000-13.22561000
  11.69112000-17.18057000 -3.30640000
  11.69112000-20.04400000 -8.26601000
  11.69112000-11.45372000-13.22561000
  11.69112000 -5.72686000 -3.30640000
  11.69112000 -8.59029000 -8.26601000
  11.69112000-17.18057000-13.22561000
  11.69112000-11.45372000 -3.30640000
  11.69112000-14.31714000 -8.26601000
  13.99306000  0.00000000  0.00000000
  13.99306000 -2.86343000 -4.95960000
  13.99306000 -5.72686000 -9.91921000
  13.99306000 -5.72686000  0.00000000
  13.99306000 -8.59029000 -4.95960000
  13.99306000-11.45372000 -9.91921000
  13.99306000-11.45372000  0.00000000
  13.99306000-14.31714000 -4.95960000
  13.99306000-17.18057000 -9.91921000
  16.34180000 -2.86343000 -1.65320000
  16.34180000 -5.72686000 -6.61281000
  16.34180000 -8.59029000-11.57241000
  16.34180000 -8.59029000 -1.65320000
  16.34180000-11.45372000 -6.61281000
  16.34180000-14.31714000-11.57241000
  16.34180000-14.31714000 -1.65320000
  16.34180000-17.18057000 -6.61281000
  16.34180000-20.04400000-11.57241000
   2.36204000 -7.15857000 -4.13300000
   2.36204000-10.02200000 -9.09261000
   2.36204000-12.88543000-14.05221000
   2.36204000-12.88543000 -4.13300000
   2.36204000-15.74886000 -9.09261000
   2.36204000-18.61229000-14.05221000
   2.36204000-18.61229000 -4.13300000
   2.36204000-21.47572000 -9.09261000
   2.36204000-24.33915000-14.05221000
   4.71078000-10.02200000 -5.78621000
   4.71078000-12.88543000-10.74581000
   4.71078000 -7.15857000 -0.82660000
   4.71078000-15.74886000 -5.78621000
   4.71078000-18.61229000-10.74581000
   4.71078000-12.88543000 -0.82660000
   4.71078000 -4.29514000 -5.78621000
   4.71078000 -7.15857000-10.74581000
   4.71078000 -1.43171000 -0.82660000
   7.01272000-12.88543000 -7.43941000
   7.01272000-15.74886000-12.39901000
   7.01272000-10.02200000 -2.47980000
   7.01272000-18.61229000 -7.43941000
   7.01272000-21.47572000-12.39901000
   7.01272000-15.74886000 -2.47980000
   7.01272000 -7.15857000 -7.43941000
   7.01272000-10.02200000-12.39901000
   7.01272000 -4.29514000 -2.47980000
   9.35192000-15.74886000 -9.09261000
   9.35192000-18.61229000-14.05221000
   9.35192000-12.88543000 -4.13300000
   9.35192000-21.47572000 -9.09261000
   9.35192000-24.33915000-14.05221000
   9.35192000-18.61229000 -4.13300000
   9.35192000-10.02200000 -9.09261000
   9.35192000-12.88543000-14.05221000
   9.35192000 -7.15857000 -4.13300000
  11.69112000-18.61229000-10.74581000
  11.69112000-12.88543000 -0.82660000
  11.69112000-15.74886000 -5.78621000
  11.69112000 -7.15857000-10.74581000
  11.69112000 -1.43171000 -0.82660000
  11.69112000 -4.29514000 -5.78621000
  11.69112000-12.88543000-10.74581000
  11.69112000 -7.15857000 -0.82660000
  11.69112000-10.02200000 -5.78621000
  13.99306000-21.47572000-12.39901000
  13.99306000-15.74886000 -2.47980000
  13.99306000-18.61229000 -7.43941000
  13.99306000-10.02200000-12.39901000
  13.99306000 -4.29514000 -2.47980000
  13.99306000 -7.15857000 -7.43941000
  13.99306000-15.74886000-12.39901000
  13.99306000-10.02200000 -2.47980000
  13.99306000-12.88543000 -7.43941000
  16.34180000-24.33915000-14.05221000
  16.34180000-18.61229000 -4.13300000
  16.34180000-21.47572000 -9.09261000
  16.34180000-12.88543000-14.05221000
  16.34180000 -7.15857000 -4.13300000
  16.34180000-10.02200000 -9.09261000
  16.34180000-18.61229000-14.05221000
  16.34180000-12.88543000 -4.13300000
  16.34180000-15.74886000 -9.09261000
   2.36204000 -8.59029000 -6.61281000
   2.36204000-11.45372000-11.57241000
   2.36204000 -5.72686000 -1.65320000
   2.36204000-14.31714000 -6.61281000
   2.36204000-17.18057000-11.57241000
   2.36204000-11.45372000 -1.65320000
   2.36204000-20.04400000 -6.61281000
   2.36204000-22.90743000-11.57241000
   2.36204000-17.18057000 -1.65320000
   4.71078000-11.45372000 -8.26601000
   4.71078000-14.31714000-13.22561000
   4.71078000 -8.59029000 -3.30640000
   4.71078000-17.18057000 -8.26601000
   4.71078000-20.04400000-13.22561000
   4.71078000-14.31714000 -3.30640000
   4.71078000 -5.72686000 -8.26601000
   4.71078000 -8.59029000-13.22561000
   4.71078000 -2.86343000 -3.30640000
   7.01272000-14.31714000 -9.91921000
   7.01272000 -8.59029000  0.00000000
   7.01272000-11.45372000 -4.95960000
   7.01272000-20.04400000 -9.91921000
   7.01272000-14.31714000  0.00000000
   7.01272000-17.18057000 -4.95960000
   7.01272000 -8.59029000 -9.91921000
   7.01272000 -2.86343000  0.00000000
   7.01272000 -5.72686000 -4.95960000
   9.35192000-17.18057000-11.57241000
   9.35192000-11.45372000 -1.65320000
   9.35192000-14.31714000 -6.61281000
   9.35192000-22.90743000-11.57241000
   9.35192000-17.18057000 -1.65320000
   9.35192000-20.04400000 -6.61281000
   9.35192000-11.45372000-11.57241000
   9.35192000 -5.72686000 -1.65320000
   9.35192000 -8.59029000 -6.61281000
  11.69112000-20.04400000-13.22561000
  11.69112000-14.31714000 -3.30640000
  11.69112000-17.18057000 -8.26601000
  11.69112000 -8.59029000-13.22561000
  11.69112000 -2.86343000 -3.30640000
  11.69112000 -5.72686000 -8.26601000
  11.69112000-14.31714000-13.22561000
  11.69112000 -8.59029000 -3.30640000
  11.69112000-11.45372000 -8.26601000
  13.99306000-14.31714000  0.00000000
  13.99306000-17.18057000 -4.95960000
  13.99306000-20.04400000 -9.91921000
  13.99306000 -2.86343000  0.00000000
  13.99306000 -5.72686000 -4.95960000
  13.99306000 -8.59029000 -9.91921000
  13.99306000 -8.59029000  0.00000000
  13.99306000-11.45372000 -4.95960000
  13.99306000-14.31714000 -9.91921000
  16.34180000-17.18057000 -1.65320000
  16.34180000-20.04400000 -6.61281000
  16.34180000-22.90743000-11.57241000
  16.34180000 -5.72686000 -1.65320000
  16.34180000 -8.59029000 -6.61281000
  16.34180000-11.45372000-11.57241000
  16.34180000-11.45372000 -1.65320000
  16.34180000-14.31714000 -6.61281000
  16.34180000-17.18057000-11.57241000
   2.36204000-10.02200000 -4.13300000
   2.36204000-12.88543000 -9.09261000
   2.36204000-15.74886000-14.05221000
   2.36204000-15.74886000 -4.13300000
   2.36204000-18.61229000 -9.09261000
   2.36204000-21.47572000-14.05221000
   2.36204000 -4.29514000 -4.13300000
   2.36204000 -7.15857000 -9.09261000
   2.36204000-10.02200000-14.05221000
   4.71078000-12.88543000 -5.78621000
   4.71078000-15.74886000-10.74581000
   4.71078000-10.02200000 -0.82660000
   4.71078000-18.61229000 -5.78621000
   4.71078000-21.47572000-10.74581000
   4.71078000-15.74886000 -0.82660000
   4.71078000 -7.15857000 -5.78621000
   4.71078000-10.02200000-10.74581000
   4.71078000 -4.29514000 -0.82660000
   7.01272000-15.74886000 -7.43941000
   7.01272000-18.61229000-12.39901000
   7.01272000-12.88543000 -2.47980000
   7.01272000-21.47571346 -7.43941000
   7.01272000-24.33914346-12.39901000
   7.01272000-18.61228346 -2.47980000
   7.01272000-10.02200000 -7.43941000
   7.01272000-12.88543000-12.39901000
   7.01272000 -7.15857000 -2.47980000
   9.35192000-18.61229000 -9.09261000
   9.35192000-21.47572000-14.05221000
   9.35192000-15.74886000 -4.13300000
   9.35192000 -7.15857000 -9.09261000
   9.35192000-10.02200000-14.05221000
   9.35192000 -4.29514000 -4.13300000
   9.35192000-12.88543000 -9.09261000
   9.35192000-15.74886000-14.05221000
   9.35192000-10.02200000 -4.13300000
  11.69112000-21.47572000-10.74581000
  11.69112000-15.74886000 -0.82660000
  11.69112000-18.61229000 -5.78621000
  11.69112000-10.02200000-10.74581000
  11.69112000 -4.29514000 -0.82660000
  11.69112000 -7.15857000 -5.78621000
  11.69112000-15.74886000-10.74581000
  11.69112000-10.02200000 -0.82660000
  11.69112000-12.88543000 -5.78621000
  13.99306000-24.33914346-12.39901000
  13.99306000-18.61228346 -2.47980000
  13.99306000-21.47571346 -7.43941000
  13.99306000-12.88543000-12.39901000
  13.99306000 -7.15857000 -2.47980000
  13.99306000-10.02200000 -7.43941000
  13.99306000-18.61229000-12.39901000
  13.99306000-12.88543000 -2.47980000
  13.99306000-15.74886000 -7.43941000
  16.34180000-10.02200000-14.05221000
  16.34180000 -4.29514000 -4.13300000
  16.34180000 -7.15857000 -9.09261000
  16.34180000-15.74886000-14.05221000
  16.34180000-10.02200000 -4.13300000
  16.34180000-12.88543000 -9.09261000
  16.34180000-21.47572000-14.05221000
  16.34180000-15.74886000 -4.13300000
  16.34180000-18.61229000 -9.09261000
  18.04000000-10.02200000 -7.16000000
  18.04000000-10.02200333 -6.06300000
 


--------------------------------------------------------------------------------------------------------


 k-point  1 :   0.0000 0.0000 0.0000  plane waves:   90499
 k-point  2 :   0.5000 0.0000 0.0000  plane waves:   90530
 k-point  3 :   0.0000 0.5000 0.0000  plane waves:   90530

 maximum and minimum number of plane-waves per node :     90530    90499

 maximum number of plane-waves:     90530
 maximum index in each direction: 
   IXMAX=   24   IYMAX=   24   IZMAX=   42
   IXMIN=  -24   IYMIN=  -24   IZMIN=  -42


 serial   3D FFT for wavefunctions
 parallel 3D FFT for charge:
    minimum data exchange during FFTs selected (reduces bandwidth)


 total amount of memory used by VASP MPI-rank0   652072. kBytes
=======================================================================

   base      :      30000. kBytes
   nonlr-proj:      89851. kBytes
   fftplans  :      40601. kBytes
   grid      :      95147. kBytes
   one-center:       3950. kBytes
   wavefun   :     392523. kBytes
 
     INWAV:  cpu time    0.0001: real time    0.0003
 Broyden mixing: mesh for mixing (old mesh)
   NGX = 49   NGY = 49   NGZ = 85
  (NGX  =160   NGY  =160   NGZ  =256)
  gives a total of 204085 points

 initial charge density was supplied:
 charge density of overlapping atoms calculated
 number of electron     766.0000000 magnetization 
 keeping initial charge density in first step


--------------------------------------------------------------------------------------------------------


 Maximum index for non-local projection operator         4260
 Maximum index for augmentation-charges          758 (set IRDMAX)


--------------------------------------------------------------------------------------------------------


 First call to EWALD:  gamma=   0.090
 Maximum number of real-space cells 3x 3x 2
 Maximum number of reciprocal cells 2x 2x 4

    FEWALD:  cpu time    0.0358: real time    0.0358


----------------------------------------- Iteration    1(   1)  ---------------------------------------


    POTLOK:  cpu time    0.8971: real time    0.9768
    SETDIJ:  cpu time    0.1061: real time    0.1094
     EDDAV:  cpu time   19.4229: real time   22.3778
       DOS:  cpu time    0.0342: real time    0.0346
    --------------------------------------------
      LOOP:  cpu time   20.4626: real time   23.7421

 eigenvalue-minimisations  :  3144
 total energy-change (2. order) : 0.2145670E+04  (-0.1842997E+05)
 number of electron     766.0000000 magnetization 
 augmentation part      766.0000000 magnetization 

 Free energy of the ion-electron system (eV)
  ---------------------------------------------------
  alpha Z        PSCENC =       505.22967617
  Ewald energy   TEWEN  =     88627.36627989
  -Hartree energ DENC   =   -102669.79359459
  -exchange      EXHF   =         0.00000000
  -V(xc)+E(xc)   XCENC  =     -6603.89599330
  PAW double counting   =     17092.30507181    -9042.14386232
  entropy T*S    EENTRO =        -0.05985154
  eigenvalues    EBANDS =       217.45997088
  atomic energy  EATOM  =     14019.20197576
  Solvation  Ediel_sol  =         0.00000000
  ---------------------------------------------------
  free energy    TOTEN  =      2145.66967275 eV

  energy without entropy =     2145.72952429  energy(sigma->0) =     2145.69959852


--------------------------------------------------------------------------------------------------------




----------------------------------------- Iteration    1(   2)  ---------------------------------------


     EDDAV:  cpu time   24.6685: real time   27.9937
       DOS:  cpu time    0.0330: real time    0.0330
    --------------------------------------------
      LOOP:  cpu time   24.7029: real time   28.0298

 eigenvalue-minimisations  :  4200
 total energy-change (2. order) :-0.2883746E+04  (-0.2716887E+04)
 number of electron     766.0000000 magnetization 
 augmentation part      766.0000000 magnetization 

 Free energy of the ion-electron system (eV)
  ---------------------------------------------------
  alpha Z        PSCENC =       505.22967617
  Ewald energy   TEWEN  =     88627.36627989
  -Hartree energ DENC   =   -102669.79359459
  -exchange      EXHF   =         0.00000000
  -V(xc)+E(xc)   XCENC  =     -6603.89599330
  PAW double counting   =     17092.30507181    -9042.14386232
  entropy T*S    EENTRO =        -0.10551199
  eigenvalues    EBANDS =     -2666.24013732
  atomic energy  EATOM  =     14019.20197576
  Solvation  Ediel_sol  =         0.00000000
  ---------------------------------------------------
  free energy    TOTEN  =      -738.07609590 eV

  energy without entropy =     -737.97058391  energy(sigma->0) =     -738.02333990


--------------------------------------------------------------------------------------------------------




----------------------------------------- Iteration    1(   3)  ---------------------------------------


     EDDAV:  cpu time   26.3238: real time   29.8228
       DOS:  cpu time    0.0144: real time    0.0144
    --------------------------------------------
      LOOP:  cpu time   26.3395: real time   29.8400

 eigenvalue-minimisations  :  4620
 total energy-change (2. order) :-0.2140208E+03  (-0.2054530E+03)
 number of electron     766.0000000 magnetization 
 augmentation part      766.0000000 magnetization 

 Free energy of the ion-electron system (eV)
  ---------------------------------------------------
  alpha Z        PSCENC =       505.22967617
  Ewald energy   TEWEN  =     88627.36627989
  -Hartree energ DENC   =   -102669.79359459
  -exchange      EXHF   =         0.00000000
  -V(xc)+E(xc)   XCENC  =     -6603.89599330
  PAW double counting   =     17092.30507181    -9042.14386232
  entropy T*S    EENTRO =        -0.22292571
  eigenvalues    EBANDS =     -2880.14351089
  atomic energy  EATOM  =     14019.20197576
  Solvation  Ediel_sol  =         0.00000000
  ---------------------------------------------------
  free energy    TOTEN  =      -952.09688319 eV

  energy without entropy =     -951.87395748  energy(sigma->0) =     -951.98542034


--------------------------------------------------------------------------------------------------------




----------------------------------------- Iteration    1(   4)  ---------------------------------------


     EDDAV:  cpu time   24.6933: real time   27.9918
       DOS:  cpu time    0.0025: real time    0.0025
    --------------------------------------------
      LOOP:  cpu time   24.6971: real time   27.9973

 eigenvalue-minimisations  :  4272
 total energy-change (2. order) :-0.9099657E+01  (-0.8889564E+01)
 number of electron     766.0000000 magnetization 
 augmentation part      766.0000000 magnetization 

 Free energy of the ion-electron system (eV)
  ---------------------------------------------------
  alpha Z        PSCENC =       505.22967617
  Ewald energy   TEWEN  =     88627.36627989
  -Hartree energ DENC   =   -102669.79359459
  -exchange      EXHF   =         0.00000000
  -V(xc)+E(xc)   XCENC  =     -6603.89599330
  PAW double counting   =     17092.30507181    -9042.14386232
  entropy T*S    EENTRO =        -0.24826783
  eigenvalues    EBANDS =     -2889.21782531
  atomic energy  EATOM  =     14019.20197576
  Solvation  Ediel_sol  =         0.00000000
  ---------------------------------------------------
  free energy    TOTEN  =      -961.19653972 eV

  energy without entropy =     -960.94827190  energy(sigma->0) =     -961.07240581


--------------------------------------------------------------------------------------------------------




----------------------------------------- Iteration    1(   5)  ---------------------------------------


     EDDAV:  cpu time   29.5834: real time   33.3559
       DOS:  cpu time    0.0016: real time    0.0016
    CHARGE:  cpu time    2.0538: real time    2.1453
    MIXING:  cpu time    0.0285: real time    0.0285
    --------------------------------------------
      LOOP:  cpu time   31.6688: real time   35.5350

 eigenvalue-minimisations  :  5268
 total energy-change (2. order) :-0.4803229E+00  (-0.4740942E+00)
 number of electron     765.9999972 magnetization 
 augmentation part       -9.8918652 magnetization 

 Broyden mixing:
  rms(total) = 0.19643E+01    rms(broyden)= 0.19628E+01
  rms(prec ) = 0.27038E+01
  weight for this iteration     100.00

 Free energy of the ion-electron system (eV)
  ---------------------------------------------------
  alpha Z        PSCENC =       505.22967617
  Ewald energy   TEWEN  =     88627.36627989
  -Hartree energ DENC   =   -102669.79359459
  -exchange      EXHF   =         0.00000000
  -V(xc)+E(xc)   XCENC  =     -6603.89599330
  PAW double counting   =     17092.30507181    -9042.14386232
  entropy T*S    EENTRO =        -0.24945572
  eigenvalues    EBANDS =     -2889.69696034
  atomic energy  EATOM  =     14019.20197576
  Solvation  Ediel_sol  =         0.00000000
  ---------------------------------------------------
  free energy    TOTEN  =      -961.67686266 eV

  energy without entropy =     -961.42740694  energy(sigma->0) =     -961.55213480


--------------------------------------------------------------------------------------------------------




----------------------------------------- Iteration    1(   6)  ---------------------------------------


    POTLOK:  cpu time    0.8600: real time    0.8625
    SETDIJ:  cpu time    0.1080: real time    0.1081
     EDDAV:  cpu time   23.9681: real time   27.2219
       DOS:  cpu time    0.0020: real time    0.0020
    CHARGE:  cpu time    2.0332: real time    2.0771
    MIXING:  cpu time    0.0284: real time    0.0286
    --------------------------------------------
      LOOP:  cpu time   27.0012: real time   30.3029

 eigenvalue-minimisations  :  4080
 total energy-change (2. order) :-0.1611583E+02  (-0.1943106E+02)
 number of electron     765.9999974 magnetization 
 augmentation part       -9.7192542 magnetization 

 Broyden mixing:
  rms(total) = 0.19674E+01    rms(broyden)= 0.19673E+01
  rms(prec ) = 0.43280E+01
  weight for this iteration     100.00

 eigenvalues of (default mixing * dielectric matrix)
  average eigenvalue GAMMA=   0.7458
  0.7458

 Free energy of the ion-electron system (eV)
  ---------------------------------------------------
  alpha Z        PSCENC =       505.22967617
  Ewald energy   TEWEN  =     88627.36627989
  -Hartree energ DENC   =   -103602.40701956
  -exchange      EXHF   =         0.00000000
  -V(xc)+E(xc)   XCENC  =     -6593.80862990
  PAW double counting   =     19117.82537999   -11069.11308509
  entropy T*S    EENTRO =        -0.17455152
  eigenvalues    EBANDS =     -1981.91272220
  atomic energy  EATOM  =     14019.20197576
  Solvation  Ediel_sol  =         0.00000000
  ---------------------------------------------------
  free energy    TOTEN  =      -977.79269646 eV

  energy without entropy =     -977.61814495  energy(sigma->0) =     -977.70542071


--------------------------------------------------------------------------------------------------------




----------------------------------------- Iteration    1(   7)  ---------------------------------------


    POTLOK:  cpu time    0.8716: real time    0.8745
    SETDIJ:  cpu time    0.1086: real time    0.1088
     EDDAV:  cpu time   23.4447: real time   26.5663
       DOS:  cpu time    0.0060: real time    0.0061
    CHARGE:  cpu time    2.0517: real time    2.0950
    MIXING:  cpu time    0.0293: real time    0.0293
    --------------------------------------------
      LOOP:  cpu time   26.5136: real time   29.6827

 eigenvalue-minimisations  :  3960
 total energy-change (2. order) : 0.4181352E+02  (-0.1368896E+02)
 number of electron     765.9999975 magnetization 
 augmentation part       -9.9075788 magnetization 

 Broyden mixing:
  rms(total) = 0.10384E+01    rms(broyden)= 0.10380E+01
  rms(prec ) = 0.13408E+01
  weight for this iteration     100.00

 eigenvalues of (default mixing * dielectric matrix)
  average eigenvalue GAMMA=   1.1402
  1.9856  0.2947

 Free energy of the ion-electron system (eV)
  ---------------------------------------------------
  alpha Z        PSCENC =       505.22967617
  Ewald energy   TEWEN  =     88627.36627989
  -Hartree energ DENC   =   -103075.19750478
  -exchange      EXHF   =         0.00000000
  -V(xc)+E(xc)   XCENC  =     -6591.41437679
  PAW double counting   =     19522.63954162   -11474.09801247
  entropy T*S    EENTRO =        -0.06706263
  eigenvalues    EBANDS =     -2469.63969689
  atomic energy  EATOM  =     14019.20197576
  Solvation  Ediel_sol  =         0.00000000
  ---------------------------------------------------
  free energy    TOTEN  =      -935.97918012 eV

  energy without entropy =     -935.91211749  energy(sigma->0) =     -935.94564881


--------------------------------------------------------------------------------------------------------




----------------------------------------- Iteration    1(   8)  ---------------------------------------


    POTLOK:  cpu time    0.8738: real time    0.8765
    SETDIJ:  cpu time    0.1087: real time    0.1087
     EDDAV:  cpu time   23.9687: real time   27.1604
       DOS:  cpu time    0.0025: real time    0.0026
    CHARGE:  cpu time    2.0349: real time    2.0783
    MIXING:  cpu time    0.0313: real time    0.0315
    --------------------------------------------
      LOOP:  cpu time   27.0219: real time   30.2620

 eigenvalue-minimisations  :  4080
 total energy-change (2. order) :-0.6164747E+01  (-0.4499213E+01)
 number of electron     765.9999970 magnetization 
 augmentation part       -9.9863431 magnetization 

 Broyden mixing:
  rms(total) = 0.77657E+00    rms(broyden)= 0.77654E+00
  rms(prec ) = 0.23069E+01
  weight for this iteration     100.00

 eigenvalues of (default mixing * dielectric matrix)
  average eigenvalue GAMMA=   1.0551
  2.3434  0.5337  0.2881

 Free energy of the ion-electron system (eV)
  ---------------------------------------------------
  alpha Z        PSCENC =       505.22967617
  Ewald energy   TEWEN  =     88627.36627989
  -Hartree energ DENC   =   -103220.56658743
  -exchange      EXHF   =         0.00000000
  -V(xc)+E(xc)   XCENC  =     -6582.69829640
  PAW double counting   =     21032.11452267   -12984.43746762
  entropy T*S    EENTRO =        -0.09728239
  eigenvalues    EBANDS =     -2338.25674798
  atomic energy  EATOM  =     14019.20197576
  Solvation  Ediel_sol  =         0.00000000
  ---------------------------------------------------
  free energy    TOTEN  =      -942.14392733 eV

  energy without entropy =     -942.04664495  energy(sigma->0) =     -942.09528614


--------------------------------------------------------------------------------------------------------




----------------------------------------- Iteration    1(   9)  ---------------------------------------


    POTLOK:  cpu time    0.8760: real time    0.8794
    SETDIJ:  cpu time    0.1088: real time    0.1089
     EDDAV:  cpu time   23.8537: real time   26.9773
       DOS:  cpu time    0.0122: real time    0.0122
    CHARGE:  cpu time    2.0065: real time    2.0483
    MIXING:  cpu time    0.0326: real time    0.0326
    --------------------------------------------
      LOOP:  cpu time   26.8916: real time   30.0615

 eigenvalue-minimisations  :  4032
 total energy-change (2. order) : 0.4642255E+01  (-0.8285413E+00)
 number of electron     765.9999977 magnetization 
 augmentation part      -10.0477073 magnetization 

 Broyden mixing:
  rms(total) = 0.53663E+00    rms(broyden)= 0.53659E+00
  rms(prec ) = 0.15108E+01
  weight for this iteration     100.00

 eigenvalues of (default mixing * dielectric matrix)
  average eigenvalue GAMMA=   0.9133
  2.4884  0.7325  0.2937  0.1388

 Free energy of the ion-electron system (eV)
  ---------------------------------------------------
  alpha Z        PSCENC =       505.22967617
  Ewald energy   TEWEN  =     88627.36627989
  -Hartree energ DENC   =   -103292.22266536
  -exchange      EXHF   =         0.00000000
  -V(xc)+E(xc)   XCENC  =     -6579.67143493
  PAW double counting   =     21536.24541449   -13488.91351554
  entropy T*S    EENTRO =        -0.04758107
  eigenvalues    EBANDS =     -2264.68982166
  atomic energy  EATOM  =     14019.20197576
  Solvation  Ediel_sol  =         0.00000000
  ---------------------------------------------------
  free energy    TOTEN  =      -937.50167225 eV

  energy without entropy =     -937.45409118  energy(sigma->0) =     -937.47788171


--------------------------------------------------------------------------------------------------------




----------------------------------------- Iteration    1(  10)  ---------------------------------------


    POTLOK:  cpu time    0.8771: real time    0.8783
    SETDIJ:  cpu time    0.1085: real time    0.1087
     EDDAV:  cpu time   24.1469: real time   27.4345
       DOS:  cpu time    0.0018: real time    0.0018
    CHARGE:  cpu time    2.0312: real time    2.0747
    MIXING:  cpu time    0.0340: real time    0.0340
    --------------------------------------------
      LOOP:  cpu time   27.2014: real time   30.5351

 eigenvalue-minimisations  :  4104
 total energy-change (2. order) : 0.4253570E+01  (-0.5870148E+00)
 number of electron     765.9999975 magnetization 
 augmentation part      -10.0730960 magnetization 

 Broyden mixing:
  rms(total) = 0.11763E+00    rms(broyden)= 0.11741E+00
  rms(prec ) = 0.17914E+00
  weight for this iteration     100.00

 eigenvalues of (default mixing * dielectric matrix)
  average eigenvalue GAMMA=   0.9070
  2.4890  0.9575  0.6554  0.2927  0.1406

 Free energy of the ion-electron system (eV)
  ---------------------------------------------------
  alpha Z        PSCENC =       505.22967617
  Ewald energy   TEWEN  =     88627.36627989
  -Hartree energ DENC   =   -103414.72481124
  -exchange      EXHF   =         0.00000000
  -V(xc)+E(xc)   XCENC  =     -6573.90606401
  PAW double counting   =     22471.99013661   -14425.40850636
  entropy T*S    EENTRO =        -0.05252264
  eigenvalues    EBANDS =     -2142.94426675
  atomic energy  EATOM  =     14019.20197576
  Solvation  Ediel_sol  =         0.00000000
  ---------------------------------------------------
  free energy    TOTEN  =      -933.24810257 eV

  energy without entropy =     -933.19557993  energy(sigma->0) =     -933.22184125


--------------------------------------------------------------------------------------------------------




----------------------------------------- Iteration    1(  11)  ---------------------------------------


    POTLOK:  cpu time    0.8740: real time    0.8768
    SETDIJ:  cpu time    0.1086: real time    0.1087
     EDDAV:  cpu time   23.4441: real time   26.5638
       DOS:  cpu time    0.0024: real time    0.0024
    CHARGE:  cpu time    2.0481: real time    2.0913
    MIXING:  cpu time    0.0353: real time    0.0356
    --------------------------------------------
      LOOP:  cpu time   26.5142: real time   29.6815

 eigenvalue-minimisations  :  3996
 total energy-change (2. order) :-0.1441957E-02  (-0.1914288E+00)
 number of electron     765.9999975 magnetization 
 augmentation part      -10.1235477 magnetization 

 Broyden mixing:
  rms(total) = 0.79037E-01    rms(broyden)= 0.79027E-01
  rms(prec ) = 0.10642E+00
  weight for this iteration     100.00

 eigenvalues of (default mixing * dielectric matrix)
  average eigenvalue GAMMA=   0.9758
  2.3273  1.7100  0.6930  0.6930  0.2904  0.1409

 Free energy of the ion-electron system (eV)
  ---------------------------------------------------
  alpha Z        PSCENC =       505.22967617
  Ewald energy   TEWEN  =     88627.36627989
  -Hartree energ DENC   =   -103465.93789702
  -exchange      EXHF   =         0.00000000
  -V(xc)+E(xc)   XCENC  =     -6573.10043138
  PAW double counting   =     22515.27657860   -14468.93630426
  entropy T*S    EENTRO =        -0.04805649
  eigenvalues    EBANDS =     -2092.30136580
  atomic energy  EATOM  =     14019.20197576
  Solvation  Ediel_sol  =         0.00000000
  ---------------------------------------------------
  free energy    TOTEN  =      -933.24954452 eV

  energy without entropy =     -933.20148803  energy(sigma->0) =     -933.22551628


--------------------------------------------------------------------------------------------------------




----------------------------------------- Iteration    1(  12)  ---------------------------------------


    POTLOK:  cpu time    0.8773: real time    0.8791
    SETDIJ:  cpu time    0.1085: real time    0.1090
     EDDAV:  cpu time   24.2749: real time   27.4680
       DOS:  cpu time    0.0022: real time    0.0022
    CHARGE:  cpu time    2.0698: real time    2.1149
    MIXING:  cpu time    0.0372: real time    0.0374
    --------------------------------------------
      LOOP:  cpu time   27.3717: real time   30.6139

 eigenvalue-minimisations  :  4140
 total energy-change (2. order) : 0.2642838E-01  (-0.2202541E-01)
 number of electron     765.9999975 magnetization 
 augmentation part      -10.1225507 magnetization 

 Broyden mixing:
  rms(total) = 0.55901E-01    rms(broyden)= 0.55896E-01
  rms(prec ) = 0.81175E-01
  weight for this iteration     100.00

 eigenvalues of (default mixing * dielectric matrix)
  average eigenvalue GAMMA=   1.0903
  2.4637  2.4637  0.8143  0.8143  0.6444  0.2908  0.1409

 Free energy of the ion-electron system (eV)
  ---------------------------------------------------
  alpha Z        PSCENC =       505.22967617
  Ewald energy   TEWEN  =     88627.36627989
  -Hartree energ DENC   =   -103508.42980947
  -exchange      EXHF   =         0.00000000
  -V(xc)+E(xc)   XCENC  =     -6572.71734153
  PAW double counting   =     22508.56414066   -14462.52033856
  entropy T*S    EENTRO =        -0.05118339
  eigenvalues    EBANDS =     -2049.86651567
  atomic energy  EATOM  =     14019.20197576
  Solvation  Ediel_sol  =         0.00000000
  ---------------------------------------------------
  free energy    TOTEN  =      -933.22311615 eV

  energy without entropy =     -933.17193276  energy(sigma->0) =     -933.19752445


--------------------------------------------------------------------------------------------------------




----------------------------------------- Iteration    1(  13)  ---------------------------------------


    POTLOK:  cpu time    0.8757: real time    0.8781
    SETDIJ:  cpu time    0.1086: real time    0.1091
     EDDAV:  cpu time   23.9723: real time   27.1965
       DOS:  cpu time    0.0175: real time    0.0175
    CHARGE:  cpu time    2.0401: real time    2.0818
    MIXING:  cpu time    0.0381: real time    0.0382
    --------------------------------------------
      LOOP:  cpu time   27.0547: real time   30.3289

 eigenvalue-minimisations  :  4044
 total energy-change (2. order) : 0.2925581E-01  (-0.5359833E-02)
 number of electron     765.9999976 magnetization 
 augmentation part      -10.1160180 magnetization 

 Broyden mixing:
  rms(total) = 0.37834E-01    rms(broyden)= 0.37819E-01
  rms(prec ) = 0.61615E-01
  weight for this iteration     100.00

 eigenvalues of (default mixing * dielectric matrix)
  average eigenvalue GAMMA=   1.0752
  2.5852  2.5852  0.9052  0.9052  0.1409  0.2907  0.5944  0.5944

 Free energy of the ion-electron system (eV)
  ---------------------------------------------------
  alpha Z        PSCENC =       505.22967617
  Ewald energy   TEWEN  =     88627.36627989
  -Hartree energ DENC   =   -103544.73311827
  -exchange      EXHF   =         0.00000000
  -V(xc)+E(xc)   XCENC  =     -6572.21887516
  PAW double counting   =     22528.87531047   -14483.04187262
  entropy T*S    EENTRO =        -0.05009196
  eigenvalues    EBANDS =     -2013.82314461
  atomic energy  EATOM  =     14019.20197576
  Solvation  Ediel_sol  =         0.00000000
  ---------------------------------------------------
  free energy    TOTEN  =      -933.19386034 eV

  energy without entropy =     -933.14376838  energy(sigma->0) =     -933.16881436


--------------------------------------------------------------------------------------------------------




----------------------------------------- Iteration    1(  14)  ---------------------------------------


    POTLOK:  cpu time    0.8868: real time    0.8884
    SETDIJ:  cpu time    0.1087: real time    0.1088
     EDDAV:  cpu time   22.1498: real time   25.1607
       DOS:  cpu time    0.0019: real time    0.0019
    CHARGE:  cpu time    2.0534: real time    2.0966
    MIXING:  cpu time    0.0396: real time    0.0397
    --------------------------------------------
      LOOP:  cpu time   25.2421: real time   28.2991

 eigenvalue-minimisations  :  3696
 total energy-change (2. order) : 0.1993266E-01  (-0.3474287E-02)
 number of electron     765.9999976 magnetization 
 augmentation part      -10.1156686 magnetization 

 Broyden mixing:
  rms(total) = 0.20995E-01    rms(broyden)= 0.20992E-01
  rms(prec ) = 0.33936E-01
  weight for this iteration     100.00

 eigenvalues of (default mixing * dielectric matrix)
  average eigenvalue GAMMA=   1.0701
  2.6413  2.6413  1.0437  1.0437  0.1409  0.2908  0.6769  0.6769  0.4751

 Free energy of the ion-electron system (eV)
  ---------------------------------------------------
  alpha Z        PSCENC =       505.22967617
  Ewald energy   TEWEN  =     88627.36627989
  -Hartree energ DENC   =   -103573.98950504
  -exchange      EXHF   =         0.00000000
  -V(xc)+E(xc)   XCENC  =     -6571.76812526
  PAW double counting   =     22550.48120907   -14504.74799779
  entropy T*S    EENTRO =        -0.04910304
  eigenvalues    EBANDS =     -1984.89833743
  atomic energy  EATOM  =     14019.20197576
  Solvation  Ediel_sol  =         0.00000000
  ---------------------------------------------------
  free energy    TOTEN  =      -933.17392768 eV

  energy without entropy =     -933.12482464  energy(sigma->0) =     -933.14937616


--------------------------------------------------------------------------------------------------------




----------------------------------------- Iteration    1(  15)  ---------------------------------------


    POTLOK:  cpu time    0.8871: real time    0.8900
    SETDIJ:  cpu time    0.1087: real time    0.1090
     EDDAV:  cpu time   22.4939: real time   25.5768
       DOS:  cpu time    0.0025: real time    0.0025
    CHARGE:  cpu time    2.0411: real time    2.0836
    MIXING:  cpu time    0.0433: real time    0.0441
    --------------------------------------------
      LOOP:  cpu time   25.5783: real time   28.7088

 eigenvalue-minimisations  :  3732
 total energy-change (2. order) :-0.7655462E-03  (-0.1771885E-02)
 number of electron     765.9999976 magnetization 
 augmentation part      -10.1143463 magnetization 

 Broyden mixing:
  rms(total) = 0.14224E-01    rms(broyden)= 0.14223E-01
  rms(prec ) = 0.22517E-01
  weight for this iteration     100.00

 eigenvalues of (default mixing * dielectric matrix)
  average eigenvalue GAMMA=   1.1732
  3.1769  2.6786  1.3564  1.3564  0.1409  0.2908  0.7706  0.7706  0.7254  0.4651

 Free energy of the ion-electron system (eV)
  ---------------------------------------------------
  alpha Z        PSCENC =       505.22967617
  Ewald energy   TEWEN  =     88627.36627989
  -Hartree energ DENC   =   -103595.34917258
  -exchange      EXHF   =         0.00000000
  -V(xc)+E(xc)   XCENC  =     -6571.53925842
  PAW double counting   =     22550.74164017   -14505.01003186
  entropy T*S    EENTRO =        -0.04849382
  eigenvalues    EBANDS =     -1963.76730853
  atomic energy  EATOM  =     14019.20197576
  Solvation  Ediel_sol  =         0.00000000
  ---------------------------------------------------
  free energy    TOTEN  =      -933.17469322 eV

  energy without entropy =     -933.12619940  energy(sigma->0) =     -933.15044631


--------------------------------------------------------------------------------------------------------




----------------------------------------- Iteration    1(  16)  ---------------------------------------


    POTLOK:  cpu time    0.8890: real time    0.8923
    SETDIJ:  cpu time    0.1083: real time    0.1085
     EDDAV:  cpu time   21.3884: real time   24.3560
       DOS:  cpu time    0.0318: real time    0.0318
    CHARGE:  cpu time    2.0526: real time    2.0960
    MIXING:  cpu time    0.0431: real time    0.0571
    --------------------------------------------
      LOOP:  cpu time   24.5151: real time   27.5447

 eigenvalue-minimisations  :  3576
 total energy-change (2. order) :-0.7688768E-02  (-0.6881571E-03)
 number of electron     765.9999976 magnetization 
 augmentation part      -10.1143948 magnetization 

 Broyden mixing:
  rms(total) = 0.10070E-01    rms(broyden)= 0.10066E-01
  rms(prec ) = 0.15642E-01
  weight for this iteration     100.00

 eigenvalues of (default mixing * dielectric matrix)
  average eigenvalue GAMMA=   1.2779
  3.9345  2.6990  2.1356  1.3899  0.1409  0.2908  0.8178  0.8178  0.6841  0.6841
  0.4620

 Free energy of the ion-electron system (eV)
  ---------------------------------------------------
  alpha Z        PSCENC =       505.22967617
  Ewald energy   TEWEN  =     88627.36627989
  -Hartree energ DENC   =   -103614.19038534
  -exchange      EXHF   =         0.00000000
  -V(xc)+E(xc)   XCENC  =     -6571.44498200
  PAW double counting   =     22536.75394483   -14490.97043214
  entropy T*S    EENTRO =        -0.04823552
  eigenvalues    EBANDS =     -1945.08022364
  atomic energy  EATOM  =     14019.20197576
  Solvation  Ediel_sol  =         0.00000000
  ---------------------------------------------------
  free energy    TOTEN  =      -933.18238199 eV

  energy without entropy =     -933.13414647  energy(sigma->0) =     -933.15826423


--------------------------------------------------------------------------------------------------------




----------------------------------------- Iteration    1(  17)  ---------------------------------------


    POTLOK:  cpu time    0.8982: real time    0.9009
    SETDIJ:  cpu time    0.1095: real time    0.1096
     EDDAV:  cpu time   21.2096: real time   24.1389
       DOS:  cpu time    0.0026: real time    0.0026
    CHARGE:  cpu time    2.0216: real time    2.0648
    MIXING:  cpu time    0.0465: real time    0.0466
    --------------------------------------------
[...]
     11.69112     -8.59029     -8.26601        -0.060591     -0.015751     -0.000753
     11.69112    -17.18057    -13.22561         0.009898      0.005687     -0.023409
     11.69112    -11.45372     -3.30640         0.003368     -0.002354     -0.032655
     11.69112    -14.31714     -8.26601         0.004012      0.028216      0.005819
     13.99306      0.00000      0.00000         0.002887     -0.002357      0.012297
     13.99306     -2.86343     -4.95960         0.004205     -0.011536      0.004876
     13.99306     -5.72686     -9.91921         0.003814      0.029502     -0.008845
     13.99306     -5.72686      0.00000         0.004631     -0.000025     -0.005679
     13.99306     -8.59029     -4.95960        -0.107505      0.007642      0.004035
     13.99306    -11.45372     -9.91921        -0.009814      0.024884      0.022582
     13.99306    -11.45372      0.00000        -0.001182     -0.003497      0.009602
     13.99306    -14.31714     -4.95960         0.021779      0.016344     -0.008617
     13.99306    -17.18057     -9.91921        -0.015272      0.018442      0.015046
     16.34180     -2.86343     -1.65320        -0.014495     -0.018302      0.009483
     16.34180     -5.72686     -6.61281         0.038918     -0.000604     -0.012119
     16.34180     -8.59029    -11.57241         0.037691      0.005483     -0.001913
     16.34180     -8.59029     -1.65320         0.031494      0.003364     -0.003730
     16.34180    -11.45372     -6.61281        -1.245044     -1.048236     -0.055277
     16.34180    -14.31714    -11.57241         0.011646      0.009728     -0.000048
     16.34180    -14.31714     -1.65320         0.011044      0.005801     -0.002918
     16.34180    -17.18057     -6.61281         0.002514      0.013107     -0.003640
     16.34180    -20.04400    -11.57241        -0.000177     -0.014699     -0.011280
      2.36204     -7.15857     -4.13300        -0.008490     -0.008816     -0.001361
      2.36204    -10.02200     -9.09261        -0.021391     -0.000000     -0.000405
      2.36204    -12.88543    -14.05221        -0.005570      0.003185     -0.007619
      2.36204    -12.88543     -4.13300        -0.008490      0.008816     -0.001361
      2.36204    -15.74886     -9.09261         0.009538     -0.012803     -0.012355
      2.36204    -18.61229    -14.05221         0.000484     -0.000000     -0.007739
      2.36204    -18.61229     -4.13300        -0.006395     -0.000000     -0.001753
      2.36204    -21.47572     -9.09261         0.009538      0.012803     -0.012355
      2.36204    -24.33915    -14.05221        -0.005570     -0.003185     -0.007619
      4.71078    -10.02200     -5.78621         0.002744      0.000000      0.013815
      4.71078    -12.88543    -10.74581        -0.003895      0.018807      0.006585
      4.71078     -7.15857     -0.82660         0.000052      0.006101     -0.004137
      4.71078    -15.74886     -5.78621        -0.007674      0.006271      0.001160
      4.71078    -18.61229    -10.74581        -0.002322     -0.000000      0.007244
      4.71078    -12.88543     -0.82660         0.000052     -0.006101     -0.004137
      4.71078     -4.29514     -5.78621        -0.007674     -0.006271      0.001160
      4.71078     -7.15857    -10.74581        -0.003895     -0.018807      0.006585
      4.71078     -1.43171     -0.82660        -0.010263     -0.000000     -0.008943
      7.01272    -12.88543     -7.43941         0.008938      0.006387     -0.002444
      7.01272    -15.74886    -12.39901         0.006652     -0.011826      0.005304
      7.01272    -10.02200     -2.47980         0.000798     -0.000000     -0.020571
      7.01272    -18.61229     -7.43941         0.003363     -0.000000      0.002788
      7.01272    -21.47572    -12.39901         0.006652      0.011826      0.005304
      7.01272    -15.74886     -2.47980         0.002331      0.000965      0.009303
      7.01272     -7.15857     -7.43941         0.008938     -0.006387     -0.002444
      7.01272    -10.02200    -12.39901        -0.004683     -0.000000      0.011650
      7.01272     -4.29514     -2.47980         0.002331     -0.000965      0.009303
      9.35192    -15.74886     -9.09261        -0.005696     -0.007294      0.006640
      9.35192    -18.61229    -14.05221        -0.008818     -0.000000     -0.000260
      9.35192    -12.88543     -4.13300         0.021314      0.025227     -0.017207
      9.35192    -21.47572     -9.09261        -0.005696      0.007294      0.006640
      9.35192    -24.33915    -14.05221         0.012183     -0.005872     -0.007389
      9.35192    -18.61229     -4.13300        -0.005319     -0.000000     -0.002531
      9.35192    -10.02200     -9.09261         0.007834     -0.000000     -0.003376
      9.35192    -12.88543    -14.05221         0.012183      0.005872     -0.007389
      9.35192     -7.15857     -4.13300         0.021314     -0.025227     -0.017207
     11.69112    -18.61229    -10.74581         0.019672     -0.000000      0.012924
     11.69112    -12.88543     -0.82660         0.006954      0.003006     -0.003455
     11.69112    -15.74886     -5.78621        -0.009980     -0.002956      0.004253
     11.69112     -7.15857    -10.74581        -0.008085     -0.007937      0.018703
     11.69112     -1.43171     -0.82660         0.001012     -0.000000      0.015507
     11.69112     -4.29514     -5.78621        -0.009980      0.002956      0.004253
     11.69112    -12.88543    -10.74581        -0.008085      0.007937      0.018703
     11.69112     -7.15857     -0.82660         0.006954     -0.003006     -0.003455
     11.69112    -10.02200     -5.78621        -0.085121     -0.000000     -0.009203
     13.99306    -21.47572    -12.39901        -0.005402     -0.011214      0.001553
     13.99306    -15.74886     -2.47980         0.009916      0.005006     -0.010144
     13.99306    -18.61229     -7.43941        -0.006707     -0.000000     -0.006581
     13.99306    -10.02200    -12.39901         0.013329     -0.000000     -0.009599
     13.99306     -4.29514     -2.47980         0.009916     -0.005006     -0.010144
     13.99306     -7.15857     -7.43941        -0.087517      0.012792      0.017536
     13.99306    -15.74886    -12.39901        -0.005402      0.011214      0.001553
     13.99306    -10.02200     -2.47980         0.005313     -0.000000     -0.026604
     13.99306    -12.88543     -7.43941        -0.087517     -0.012792      0.017536
     16.34180    -24.33915    -14.05221        -0.000655     -0.005472      0.005488
     16.34180    -18.61229     -4.13300        -0.002409     -0.000000     -0.012045
     16.34180    -21.47572     -9.09261         0.014647     -0.010537      0.011522
     16.34180    -12.88543    -14.05221        -0.000655      0.005472      0.005488
     16.34180     -7.15857     -4.13300         0.050586     -0.032731     -0.005405
     16.34180    -10.02200     -9.09261        -0.262512     -0.000000     -0.097813
     16.34180    -18.61229    -14.05221         0.011200     -0.000000     -0.013888
     16.34180    -12.88543     -4.13300         0.050586      0.032731     -0.005405
     16.34180    -15.74886     -9.09261         0.014647      0.010537      0.011522
      2.36204     -8.59029     -6.61281        -0.038315      0.011612      0.005940
      2.36204    -11.45372    -11.57241        -0.008304     -0.003460     -0.002296
      2.36204     -5.72686     -1.65320        -0.008972      0.004493     -0.001210
      2.36204    -14.31714     -6.61281        -0.002213      0.001642      0.014684
      2.36204    -17.18057    -11.57241        -0.010961      0.015190      0.001947
      2.36204    -11.45372     -1.65320         0.002661     -0.008699     -0.003867
      2.36204    -20.04400     -6.61281        -0.001552      0.003373      0.007772
      2.36204    -22.90743    -11.57241         0.001658     -0.002438      0.000373
      2.36204    -17.18057     -1.65320        -0.008788      0.000567     -0.000026
      4.71078    -11.45372     -8.26601        -0.006777     -0.015101     -0.005833
      4.71078    -14.31714    -13.22561        -0.005906     -0.004075     -0.003144
      4.71078     -8.59029     -3.30640        -0.006678     -0.010801     -0.006554
      4.71078    -17.18057     -8.26601        -0.002278     -0.016413     -0.001513
      4.71078    -20.04400    -13.22561        -0.019146     -0.005108      0.005660
      4.71078    -14.31714     -3.30640        -0.002542     -0.002087     -0.001445
      4.71078     -5.72686     -8.26601         0.008286     -0.017404      0.012779
      4.71078     -8.59029    -13.22561        -0.010257     -0.002949      0.003648
      4.71078     -2.86343     -3.30640        -0.016119      0.004784      0.005341
      7.01272    -14.31714     -9.91921         0.003887      0.007431      0.005784
      7.01272     -8.59029      0.00000         0.011845     -0.007868      0.001467
      7.01272    -11.45372     -4.95960         0.019415     -0.004116      0.006637
      7.01272    -20.04400     -9.91921         0.001676     -0.001060     -0.008034
      7.01272    -14.31714      0.00000         0.000268      0.003438      0.001077
      7.01272    -17.18057     -4.95960         0.010534     -0.010664     -0.007751
      7.01272     -8.59029     -9.91921         0.006143      0.000158      0.020529
      7.01272     -2.86343      0.00000        -0.000839     -0.000602     -0.016379
      7.01272     -5.72686     -4.95960         0.005495     -0.026266     -0.012479
      9.35192    -17.18057    -11.57241        -0.017496      0.009158     -0.012123
      9.35192    -11.45372     -1.65320        -0.010199      0.003533     -0.015580
      9.35192    -14.31714     -6.61281         0.004609      0.035391     -0.003773
      9.35192    -22.90743    -11.57241         0.004313     -0.002256     -0.006512
      9.35192    -17.18057     -1.65320         0.001298      0.009375      0.004098
      9.35192    -20.04400     -6.61281         0.008112      0.004335      0.001092
      9.35192    -11.45372    -11.57241        -0.004521     -0.000295      0.018175
      9.35192     -5.72686     -1.65320         0.003064      0.003059      0.002812
      9.35192     -8.59029     -6.61281         0.000349      0.022222      0.003334
     11.69112    -20.04400    -13.22561         0.009898     -0.005687     -0.023409
     11.69112    -14.31714     -3.30640        -0.014724      0.003358     -0.005191
     11.69112    -17.18057     -8.26601         0.011945      0.017452     -0.001573
     11.69112     -8.59029    -13.22561         0.001468     -0.000616      0.007755
     11.69112     -2.86343     -3.30640         0.001483     -0.019478     -0.012257
     11.69112     -5.72686     -8.26601         0.004012     -0.028216      0.005819
     11.69112    -14.31714    -13.22561        -0.006284      0.006435      0.007600
     11.69112     -8.59029     -3.30640         0.003368      0.002354     -0.032655
     11.69112    -11.45372     -8.26601        -0.060591      0.015751     -0.000753
     13.99306    -14.31714      0.00000         0.004631      0.000025     -0.005679
     13.99306    -17.18057     -4.95960         0.004205      0.011536      0.004876
     13.99306    -20.04400     -9.91921        -0.015272     -0.018442      0.015046
     13.99306     -2.86343      0.00000         0.002887      0.002357      0.012297
     13.99306     -5.72686     -4.95960         0.021779     -0.016344     -0.008617
     13.99306     -8.59029     -9.91921        -0.009814     -0.024884      0.022582
     13.99306     -8.59029      0.00000        -0.001182      0.003497      0.009602
     13.99306    -11.45372     -4.95960        -0.107505     -0.007642      0.004035
     13.99306    -14.31714     -9.91921         0.003814     -0.029502     -0.008845
     16.34180    -17.18057     -1.65320        -0.014495      0.018302      0.009483
     16.34180    -20.04400     -6.61281         0.002514     -0.013107     -0.003640
     16.34180    -22.90743    -11.57241         0.011646     -0.009728     -0.000048
     16.34180     -5.72686     -1.65320         0.011044     -0.005801     -0.002918
     16.34180     -8.59029     -6.61281        -1.245044      1.048236     -0.055277
     16.34180    -11.45372    -11.57241         0.037691     -0.005483     -0.001913
     16.34180    -11.45372     -1.65320         0.031494     -0.003364     -0.003730
     16.34180    -14.31714     -6.61281         0.038918      0.000604     -0.012119
     16.34180    -17.18057    -11.57241        -0.000177      0.014699     -0.011280
      2.36204    -10.02200     -4.13300        -0.027273     -0.000000     -0.011289
      2.36204    -12.88543     -9.09261        -0.005743      0.023679     -0.007535
      2.36204    -15.74886    -14.05221        -0.006243     -0.000255      0.008346
      2.36204    -15.74886     -4.13300        -0.002235     -0.005708      0.002825
      2.36204    -18.61229     -9.09261        -0.016976     -0.000000     -0.004069
      2.36204    -21.47572    -14.05221        -0.006243      0.000255      0.008346
      2.36204     -4.29514     -4.13300        -0.002235      0.005708      0.002825
      2.36204     -7.15857     -9.09261        -0.005743     -0.023679     -0.007535
      2.36204    -10.02200    -14.05221        -0.005515     -0.000000      0.004008
      4.71078    -12.88543     -5.78621        -0.002659      0.007764     -0.011038
      4.71078    -15.74886    -10.74581        -0.006817     -0.013146     -0.006426
      4.71078    -10.02200     -0.82660         0.005294     -0.000000     -0.008272
      4.71078    -18.61229     -5.78621        -0.008050     -0.000000     -0.002151
      4.71078    -21.47572    -10.74581        -0.006817      0.013146     -0.006426
      4.71078    -15.74886     -0.82660        -0.008862     -0.007304     -0.003573
      4.71078     -7.15857     -5.78621        -0.002659     -0.007764     -0.011038
      4.71078    -10.02200    -10.74581         0.005161     -0.000000      0.009684
      4.71078     -4.29514     -0.82660        -0.008862      0.007304     -0.003573
      7.01272    -15.74886     -7.43941        -0.003083      0.007264     -0.001193
      7.01272    -18.61229    -12.39901         0.023601     -0.000000     -0.002723
      7.01272    -12.88543     -2.47980        -0.001722      0.015237     -0.017678
      7.01272    -21.47571     -7.43941        -0.003083     -0.007264     -0.001193
      7.01272    -24.33914    -12.39901         0.001692      0.005979      0.008787
      7.01272    -18.61228     -2.47980         0.005493     -0.000000      0.003514
      7.01272    -10.02200     -7.43941         0.037250     -0.000000     -0.010349
      7.01272    -12.88543    -12.39901         0.001692     -0.005979      0.008787
      7.01272     -7.15857     -2.47980        -0.001722     -0.015237     -0.017678
      9.35192    -18.61229     -9.09261        -0.012713     -0.000000      0.011926
      9.35192    -21.47572    -14.05221        -0.000736      0.000067      0.001591
      9.35192    -15.74886     -4.13300        -0.003599     -0.010621      0.004978
      9.35192     -7.15857     -9.09261         0.014954     -0.023823      0.022910
      9.35192    -10.02200    -14.05221         0.014045     -0.000000     -0.004543
      9.35192     -4.29514     -4.13300        -0.003599      0.010621      0.004978
      9.35192    -12.88543     -9.09261         0.014954      0.023823      0.022910
      9.35192    -15.74886    -14.05221        -0.000736     -0.000067      0.001591
      9.35192    -10.02200     -4.13300         0.017270     -0.000000     -0.001440
     11.69112    -21.47572    -10.74581         0.019284     -0.011709      0.012661
     11.69112    -15.74886     -0.82660        -0.001649      0.004986     -0.002753
     11.69112    -18.61229     -5.78621        -0.009587     -0.000000      0.007823
     11.69112    -10.02200    -10.74581         0.005670     -0.000000      0.021767
     11.69112     -4.29514     -0.82660        -0.001649     -0.004986     -0.002753
     11.69112     -7.15857     -5.78621        -0.020103     -0.000538      0.016291
     11.69112    -15.74886    -10.74581         0.019284      0.011709      0.012661
     11.69112    -10.02200     -0.82660        -0.000043     -0.000000      0.006034
     11.69112    -12.88543     -5.78621        -0.020103      0.000538      0.016291
     13.99306    -24.33914    -12.39901         0.019416     -0.001520     -0.008435
     13.99306    -18.61228     -2.47980        -0.013092     -0.000000     -0.001458
     13.99306    -21.47571     -7.43941         0.012899      0.021998     -0.007488
     13.99306    -12.88543    -12.39901         0.019416      0.001520     -0.008435
     13.99306     -7.15857     -2.47980         0.004603     -0.000070      0.010384
     13.99306    -10.02200     -7.43941         0.136619     -0.000000      0.060613
     13.99306    -18.61229    -12.39901        -0.011572     -0.000000     -0.004396
     13.99306    -12.88543     -2.47980         0.004603      0.000070      0.010384
     13.99306    -15.74886     -7.43941         0.012899     -0.021998     -0.007488
     16.34180    -10.02200    -14.05221         0.005067     -0.000000      0.011592
     16.34180     -4.29514     -4.13300         0.013276     -0.010033     -0.001209
     16.34180     -7.15857     -9.09261         0.011417     -0.038476      0.022428
     16.34180    -15.74886    -14.05221         0.006568     -0.004717     -0.003890
     16.34180    -10.02200     -4.13300        -0.308421      0.000000      0.176617
     16.34180    -12.88543     -9.09261         0.011417      0.038476      0.022428
     16.34180    -21.47572    -14.05221         0.006568      0.004717     -0.003890
     16.34180    -15.74886     -4.13300         0.013276      0.010033     -0.001209
     16.34180    -18.61229     -9.09261         0.004564     -0.000000      0.012854
     18.04000    -10.02200     -7.16000         1.673392     -0.000000    -12.784284
     18.04000    -10.02200     -6.06300         1.469479      0.000000     12.705248
 -----------------------------------------------------------------------------------
    total drift:                                0.120620      0.000021     -0.004164


--------------------------------------------------------------------------------------------------------



  FREE ENERGIE OF THE ION-ELECTRON SYSTEM (eV)
  ---------------------------------------------------
  free  energy   TOTEN  =      -933.20175351 eV

  energy  without entropy=     -933.15335746  energy(sigma->0) =     -933.17755549
 


--------------------------------------------------------------------------------------------------------


    POTLOK:  cpu time    1.0060: real time    1.0093


--------------------------------------------------------------------------------------------------------


     LOOP+:  cpu time  736.1566: real time  827.1467
    4ORBIT:  cpu time    0.0000: real time    0.0000

 total amount of memory used by VASP MPI-rank0   652072. kBytes
=======================================================================

   base      :      30000. kBytes
   nonlr-proj:      89851. kBytes
   fftplans  :      40601. kBytes
   grid      :      95147. kBytes
   one-center:       3950. kBytes
   wavefun   :     392523. kBytes
 
  
  
 General timing and accounting informations for this job:
 ========================================================
  
                  Total CPU time used (sec):      753.625
                            User time (sec):      643.083
                          System time (sec):      110.542
                         Elapsed time (sec):      848.474
  
                   Maximum memory used (kb):     1003248.
                   Average memory used (kb):           0.
  
                          Minor page faults:     26385658
                          Major page faults:           43
                 Voluntary context switches:        18469
