 254 254   0   0
  0.2268316E+02  0.1514622E-08  0.1514622E-08  0.2900000E-08  0.5000000E-15
  1.000000000000000E-004
  CAR 
 NiAl                                    
      5.84363718    -20.16227135  301     -0.59019517      1.00000000
    -20.162  0.0000E+00  0.0000E+00
    -20.076  0.0000E+00  0.0000E+00
    -19.989  0.0000E+00  0.0000E+00
    -19.902  0.0000E+00  0.0000E+00
    -19.816  0.0000E+00  0.0000E+00
    -19.729  0.0000E+00  0.0000E+00
    -19.642  0.0000E+00  0.0000E+00
    -19.555  0.0000E+00  0.0000E+00
    -19.469  0.0000E+00  0.0000E+00
    -19.382  0.0000E+00  0.0000E+00
    -19.295  0.0000E+00  0.0000E+00
    -19.209  0.1161E-08  0.1007E-09
    -19.122  0.6884E-03  0.5968E-04
    -19.035  0.1363E+01  0.1182E+00
    -18.949  0.1740E+02  0.1626E+01
    -18.862  0.4301E+01  0.1999E+01
    -18.775  0.9613E-02  0.2000E+01
    -18.689  0.7959E-07  0.2000E+01
    -18.602  0.6404E-15  0.2000E+01
    -18.515  0.0000E+00  0.2000E+01
    -18.429  0.0000E+00  0.2000E+01
    -18.342  0.0000E+00  0.2000E+01
    -18.255  0.0000E+00  0.2000E+01
    -18.168  0.0000E+00  0.2000E+01
    -18.082  0.0000E+00  0.2000E+01
    -17.995  0.0000E+00  0.2000E+01
    -17.908  0.0000E+00  0.2000E+01
    -17.822  0.0000E+00  0.2000E+01
    -17.735  0.0000E+00  0.2000E+01
    -17.648  0.0000E+00  0.2000E+01
    -17.562  0.0000E+00  0.2000E+01
    -17.475  0.0000E+00  0.2000E+01
    -17.388  0.0000E+00  0.2000E+01
    -17.302  0.0000E+00  0.2000E+01
    -17.215  0.0000E+00  0.2000E+01
    -17.128  0.0000E+00  0.2000E+01
    -17.042  0.0000E+00  0.2000E+01
    -16.955  0.0000E+00  0.2000E+01
    -16.868  0.0000E+00  0.2000E+01
    -16.782  0.0000E+00  0.2000E+01
    -16.695  0.0000E+00  0.2000E+01
    -16.608  0.0000E+00  0.2000E+01
    -16.521  0.0000E+00  0.2000E+01
    -16.435  0.0000E+00  0.2000E+01
    -16.348  0.0000E+00  0.2000E+01
    -16.261  0.0000E+00  0.2000E+01
    -16.175  0.0000E+00  0.2000E+01
    -16.088  0.0000E+00  0.2000E+01
    -16.001  0.0000E+00  0.2000E+01
    -15.915  0.0000E+00  0.2000E+01
    -15.828  0.0000E+00  0.2000E+01
    -15.741  0.0000E+00  0.2000E+01
    -15.655  0.0000E+00  0.2000E+01
    -15.568  0.0000E+00  0.2000E+01
    -15.481  0.0000E+00  0.2000E+01
    -15.395  0.0000E+00  0.2000E+01
    -15.308  0.0000E+00  0.2000E+01
    -15.221  0.0000E+00  0.2000E+01
    -15.134  0.0000E+00  0.2000E+01
    -15.048  0.0000E+00  0.2000E+01
    -14.961  0.0000E+00  0.2000E+01
    -14.874  0.0000E+00  0.2000E+01
    -14.788  0.0000E+00  0.2000E+01
    -14.701  0.0000E+00  0.2000E+01
    -14.614  0.0000E+00  0.2000E+01
    -14.528  0.0000E+00  0.2000E+01
    -14.441  0.0000E+00  0.2000E+01
    -14.354  0.0000E+00  0.2000E+01
    -14.268  0.0000E+00  0.2000E+01
    -14.181  0.0000E+00  0.2000E+01
    -14.094  0.0000E+00  0.2000E+01
    -14.008  0.0000E+00  0.2000E+01
    -13.921  0.0000E+00  0.2000E+01
    -13.834  0.0000E+00  0.2000E+01
    -13.747  0.0000E+00  0.2000E+01
    -13.661  0.0000E+00  0.2000E+01
    -13.574  0.0000E+00  0.2000E+01
    -13.487  0.0000E+00  0.2000E+01
    -13.401  0.0000E+00  0.2000E+01
    -13.314  0.0000E+00  0.2000E+01
    -13.227  0.0000E+00  0.2000E+01
    -13.141  0.0000E+00  0.2000E+01
    -13.054  0.0000E+00  0.2000E+01
    -12.967  0.0000E+00  0.2000E+01
    -12.881  0.0000E+00  0.2000E+01
    -12.794  0.0000E+00  0.2000E+01
    -12.707  0.0000E+00  0.2000E+01
    -12.621  0.0000E+00  0.2000E+01
    -12.534  0.0000E+00  0.2000E+01
    -12.447  0.0000E+00  0.2000E+01
    -12.360  0.0000E+00  0.2000E+01
    -12.274  0.0000E+00  0.2000E+01
    -12.187  0.0000E+00  0.2000E+01
    -12.100  0.0000E+00  0.2000E+01
    -12.014  0.0000E+00  0.2000E+01
    -11.927  0.0000E+00  0.2000E+01
    -11.840  0.0000E+00  0.2000E+01
    -11.754  0.0000E+00  0.2000E+01
    -11.667  0.0000E+00  0.2000E+01
    -11.580  0.0000E+00  0.2000E+01
    -11.494  0.7364E-14  0.2000E+01
    -11.407  0.2034E-06  0.2000E+01
    -11.320  0.1688E-01  0.2001E+01
    -11.234  0.5352E+01  0.2465E+01
    -11.147  0.1672E+02  0.3915E+01
    -11.060  0.9814E+00  0.4000E+01
    -10.974  0.3458E-03  0.4000E+01
    -10.887  0.3991E-09  0.4000E+01
    -10.800  0.0000E+00  0.4000E+01
    -10.713  0.0000E+00  0.4000E+01
    -10.627  0.0000E+00  0.4000E+01
    -10.540  0.0000E+00  0.4000E+01
    -10.453  0.0000E+00  0.4000E+01
    -10.367  0.0000E+00  0.4000E+01
    -10.280  0.0000E+00  0.4000E+01
    -10.193  0.0000E+00  0.4000E+01
    -10.107  0.0000E+00  0.4000E+01
    -10.020  0.0000E+00  0.4000E+01
     -9.933  0.0000E+00  0.4000E+01
     -9.847  0.0000E+00  0.4000E+01
     -9.760  0.0000E+00  0.4000E+01
     -9.673  0.0000E+00  0.4000E+01
     -9.587  0.0000E+00  0.4000E+01
     -9.500  0.0000E+00  0.4000E+01
     -9.413  0.0000E+00  0.4000E+01
     -9.326  0.3868E-11  0.4000E+01
     -9.240  0.1014E-04  0.4000E+01
     -9.153  0.8304E-01  0.4007E+01
     -9.066  0.3405E+01  0.4302E+01
     -8.980  0.2263E+01  0.4499E+01
     -8.893  0.2899E+01  0.4750E+01
     -8.806  0.2679E+02  0.7072E+01
     -8.720  0.4929E+01  0.7499E+01
     -8.633  0.4822E-01  0.7504E+01
     -8.546  0.2839E+01  0.7750E+01
     -8.460  0.3707E+01  0.8071E+01
     -8.373  0.2524E+02  0.1026E+02
     -8.286  0.3712E+02  0.1348E+02
     -8.200  0.1274E+02  0.1458E+02
     -8.113  0.2597E+02  0.1683E+02
     -8.026  0.1941E+01  0.1700E+02
     -7.939  0.1357E+01  0.1712E+02
     -7.853  0.2479E+02  0.1927E+02
     -7.766  0.9036E+01  0.2005E+02
     -7.679  0.1563E+02  0.2141E+02
     -7.593  0.2549E+02  0.2361E+02
     -7.506  0.6302E+02  0.2908E+02
     -7.419  0.3903E+02  0.3246E+02
     -7.333  0.4536E+00  0.3250E+02
     -7.246  0.1116E-01  0.3250E+02
     -7.159  0.6247E+01  0.3304E+02
     -7.073  0.6076E+02  0.3831E+02
     -6.986  0.6800E+02  0.4420E+02
     -6.899  0.1279E+02  0.4531E+02
     -6.813  0.2410E+02  0.4740E+02
     -6.726  0.4147E+01  0.4776E+02
     -6.639  0.3032E+02  0.5039E+02
     -6.553  0.1839E+02  0.5198E+02
     -6.466  0.4790E+02  0.5614E+02
     -6.379  0.3978E+02  0.5958E+02
     -6.292  0.8327E+02  0.6680E+02
     -6.206  0.2536E+02  0.6900E+02
     -6.119  0.2323E+02  0.7101E+02
     -6.032  0.4984E+02  0.7534E+02
     -5.946  0.9109E+02  0.8323E+02
     -5.859  0.7343E+02  0.8960E+02
     -5.772  0.4694E+01  0.9000E+02
     -5.686  0.2844E+01  0.9025E+02
     -5.599  0.1341E+02  0.9141E+02
     -5.512  0.4135E+02  0.9500E+02
     -5.426  0.9565E+02  0.1033E+03
     -5.339  0.1527E+03  0.1165E+03
     -5.252  0.4694E+02  0.1206E+03
     -5.166  0.8552E+02  0.1280E+03
     -5.079  0.1248E+03  0.1388E+03
     -4.992  0.1090E+03  0.1483E+03
     -4.905  0.6212E+02  0.1537E+03
     -4.819  0.5241E+02  0.1582E+03
     -4.732  0.2769E+03  0.1822E+03
     -4.645  0.2230E+03  0.2015E+03
     -4.559  0.1831E+03  0.2174E+03
     -4.472  0.2348E+03  0.2378E+03
     -4.385  0.2714E+03  0.2613E+03
     -4.299  0.3140E+03  0.2885E+03
     -4.212  0.2240E+03  0.3079E+03
     -4.125  0.2725E+03  0.3316E+03
     -4.039  0.2917E+03  0.3569E+03
     -3.952  0.4529E+03  0.3961E+03
     -3.865  0.5335E+03  0.4424E+03
     -3.779  0.4455E+03  0.4810E+03
     -3.692  0.4770E+03  0.5223E+03
     -3.605  0.4487E+03  0.5612E+03
     -3.518  0.4084E+03  0.5966E+03
     -3.432  0.3823E+03  0.6298E+03
     -3.345  0.3360E+03  0.6589E+03
     -3.258  0.3837E+03  0.6922E+03
     -3.172  0.5509E+03  0.7399E+03
     -3.085  0.4818E+03  0.7817E+03
     -2.998  0.3410E+03  0.8112E+03
     -2.912  0.5766E+03  0.8612E+03
     -2.825  0.5578E+03  0.9096E+03
     -2.738  0.4738E+03  0.9506E+03
     -2.652  0.5637E+03  0.9995E+03
     -2.565  0.5609E+03  0.1048E+04
     -2.478  0.6885E+03  0.1108E+04
     -2.392  0.7482E+03  0.1173E+04
     -2.305  0.8484E+03  0.1246E+04
     -2.218  0.9287E+03  0.1327E+04
     -2.132  0.7701E+03  0.1393E+04
     -2.045  0.8972E+03  0.1471E+04
     -1.958  0.8268E+03  0.1543E+04
     -1.871  0.5538E+03  0.1591E+04
     -1.785  0.6120E+03  0.1644E+04
     -1.698  0.5708E+03  0.1693E+04
     -1.611  0.5159E+03  0.1738E+04
     -1.525  0.5836E+03  0.1789E+04
     -1.438  0.8025E+03  0.1858E+04
     -1.351  0.7832E+03  0.1926E+04
     -1.265  0.4997E+03  0.1970E+04
     -1.178  0.5505E+03  0.2017E+04
     -1.091  0.7978E+03  0.2086E+04
     -1.005  0.7825E+03  0.2154E+04
     -0.918  0.8611E+03  0.2229E+04
     -0.831  0.6084E+03  0.2282E+04
     -0.745  0.7856E+03  0.2350E+04
     -0.658  0.1093E+04  0.2445E+04
     -0.571  0.1213E+04  0.2550E+04
     -0.484  0.7532E+03  0.2615E+04
     -0.398  0.4018E+03  0.2650E+04
     -0.311  0.1888E+03  0.2666E+04
     -0.224  0.1268E+03  0.2677E+04
     -0.138  0.1809E+03  0.2693E+04
     -0.051  0.1645E+03  0.2707E+04
      0.036  0.1330E+03  0.2719E+04
      0.122  0.2542E+02  0.2721E+04
      0.209  0.7037E+02  0.2727E+04
      0.296  0.1936E+02  0.2729E+04
      0.382  0.6442E+02  0.2734E+04
      0.469  0.1347E+03  0.2746E+04
      0.556  0.7783E+02  0.2753E+04
      0.642  0.1077E+03  0.2762E+04
      0.729  0.5955E+02  0.2767E+04
      0.816  0.8841E+02  0.2775E+04
      0.903  0.1299E+03  0.2786E+04
      0.989  0.1513E+03  0.2799E+04
      1.076  0.3446E+02  0.2802E+04
      1.163  0.2486E+02  0.2804E+04
      1.249  0.4818E+02  0.2808E+04
      1.336  0.1489E+03  0.2821E+04
      1.423  0.3141E+02  0.2824E+04
      1.509  0.3636E+02  0.2827E+04
      1.596  0.9709E+02  0.2836E+04
      1.683  0.9540E+02  0.2844E+04
      1.769  0.8751E+02  0.2851E+04
      1.856  0.7073E+02  0.2858E+04
      1.943  0.1135E+03  0.2867E+04
      2.029  0.6495E+02  0.2873E+04
      2.116  0.3000E+02  0.2876E+04
      2.203  0.1005E+03  0.2884E+04
      2.289  0.9994E+02  0.2893E+04
      2.376  0.1171E+03  0.2903E+04
      2.463  0.2790E+02  0.2906E+04
      2.550  0.3800E+02  0.2909E+04
      2.636  0.7783E+02  0.2916E+04
      2.723  0.2083E+02  0.2917E+04
      2.810  0.5384E+01  0.2918E+04
      2.896  0.4932E+02  0.2922E+04
      2.983  0.8314E+02  0.2929E+04
      3.070  0.2114E+03  0.2948E+04
      3.156  0.1673E+03  0.2962E+04
      3.243  0.3957E+02  0.2966E+04
      3.330  0.2733E+02  0.2968E+04
      3.416  0.2043E+02  0.2970E+04
      3.503  0.1269E+03  0.2981E+04
      3.590  0.3094E+02  0.2984E+04
      3.676  0.3518E+02  0.2987E+04
      3.763  0.9147E+02  0.2994E+04
      3.850  0.1245E+02  0.2996E+04
      3.937  0.2572E+02  0.2998E+04
      4.023  0.1387E+02  0.2999E+04
      4.110  0.2706E+02  0.3001E+04
      4.197  0.9722E+02  0.3010E+04
      4.283  0.2468E+02  0.3012E+04
      4.370  0.5199E+02  0.3016E+04
      4.457  0.1026E+03  0.3025E+04
      4.543  0.5942E+02  0.3030E+04
      4.630  0.4168E+02  0.3034E+04
      4.717  0.2138E+02  0.3036E+04
      4.803  0.7575E+00  0.3036E+04
      4.890  0.3467E-03  0.3036E+04
      4.977  0.5814E-09  0.3036E+04
      5.063  0.0000E+00  0.3036E+04
      5.150  0.0000E+00  0.3036E+04
      5.237  0.0000E+00  0.3036E+04
      5.324  0.0000E+00  0.3036E+04
      5.410  0.0000E+00  0.3036E+04
      5.497  0.0000E+00  0.3036E+04
      5.584  0.0000E+00  0.3036E+04
      5.670  0.0000E+00  0.3036E+04
      5.757  0.0000E+00  0.3036E+04
      5.844  0.0000E+00  0.3036E+04
