  254  254    1    1
  0.2268316E+02  0.1514622E-08  0.1514622E-08  0.2900000E-08  0.5000000E-15
  1.000000000000000E-004
  CAR 
 NiAl                                    
   2530      4   1518
 
  0.0000000E+00  0.0000000E+00  0.0000000E+00  0.2500000E+00
    1      -18.980050   1.000000
    2      -11.207655   1.000000
    3       -9.075808   1.000000
    4       -8.546229   1.000000
    5       -8.169181   1.000000
    6       -8.169098   1.000000
    7       -8.169071   1.000000
    8       -8.169027   1.000000
    9       -8.168927   1.000000
   10       -8.168871   1.000000
   11       -7.719546   1.000000
   12       -7.663310   1.000000
   13       -7.663295   1.000000
   14       -7.663211   1.000000
   15       -7.663180   1.000000
   16       -7.663139   1.000000
   17       -7.663078   1.000000
   18       -6.877946   1.000000
   19       -6.877793   1.000000
   20       -6.877703   1.000000
   21       -6.877686   1.000000
   22       -6.877626   1.000000
   23       -6.877549   1.000000
   24       -6.694795   1.000000
   25       -6.533528   1.000000
   26       -6.533503   1.000000
   27       -6.533469   1.000000
   28       -6.533450   1.000000
   29       -6.533416   1.000000
   30       -6.533397   1.000000
   31       -6.113204   1.000000
   32       -6.113178   1.000000
   33       -6.113173   1.000000
   34       -6.113136   1.000000
   35       -6.113093   1.000000
   36       -6.113070   1.000000
   37       -5.912709   1.000000
   38       -5.912368   1.000000
   39       -5.912367   1.000000
   40       -5.912360   1.000000
   41       -5.912345   1.000000
   42       -5.912340   1.000000
   43       -5.912319   1.000000
   44       -5.911871   1.000000
   45       -5.911767   1.000000
   46       -5.911737   1.000000
   47       -5.911704   1.000000
   48       -5.911652   1.000000
   49       -5.684784   1.000000
   50       -5.580793   1.000000
   51       -5.580772   1.000000
   52       -5.580770   1.000000
   53       -5.580760   1.000000
   54       -5.580730   1.000000
   55       -5.580726   1.000000
   56       -5.486258   1.000000
   57       -5.486074   1.000000
   58       -5.486050   1.000000
   59       -5.486038   1.000000
   60       -5.485986   1.000000
   61       -5.485957   1.000000
   62       -5.208310   1.000000
   63       -5.133180   1.000000
   64       -5.133119   1.000000
   65       -5.133088   1.000000
   66       -5.133074   1.000000
   67       -5.133069   1.000000
   68       -5.133024   1.000000
   69       -5.050370   1.000000
   70       -4.979593   1.000000
   71       -4.976117   1.000000
   72       -4.975783   1.000000
   73       -4.975746   1.000000
   74       -4.975689   1.000000
   75       -4.975619   1.000000
   76       -4.878657   1.000000
   77       -4.803398   1.000000
   78       -4.803395   1.000000
   79       -4.803336   1.000000
   80       -4.779567   1.000000
   81       -4.768873   1.000000
   82       -4.763892   1.000000
   83       -4.763880   1.000000
   84       -4.763817   1.000000
   85       -4.763793   1.000000
   86       -4.756507   1.000000
   87       -4.750011   1.000000
   88       -4.680303   1.000000
   89       -4.680286   1.000000
   90       -4.680269   1.000000
   91       -4.680253   1.000000
   92       -4.680012   1.000000
   93       -4.679327   1.000000
   94       -4.662442   1.000000
   95       -4.662427   1.000000
   96       -4.662352   1.000000
   97       -4.569616   1.000000
   98       -4.569598   1.000000
   99       -4.569577   1.000000
  100       -4.569565   1.000000
  101       -4.569509   1.000000
  102       -4.569489   1.000000
  103       -4.569436   1.000000
  104       -4.569415   1.000000
  105       -4.569381   1.000000
  106       -4.569344   1.000000
  107       -4.569329   1.000000
  108       -4.569310   1.000000
  109       -4.527328   1.000000
  110       -4.527317   1.000000
  111       -4.527243   1.000000
  112       -4.456872   1.000000
  113       -4.456866   1.000000
  114       -4.456775   1.000000
  115       -4.421855   1.000000
  116       -4.421805   1.000000
  117       -4.421715   1.000000
  118       -4.421686   1.000000
  119       -4.421658   1.000000
  120       -4.419389   1.000000
  121       -4.365953   1.000000
  122       -4.365942   1.000000
  123       -4.365893   1.000000
  124       -4.365889   1.000000
  125       -4.365863   1.000000
  126       -4.365834   1.000000
  127       -4.365830   1.000000
  128       -4.365807   1.000000
  129       -4.365787   1.000000
  130       -4.365760   1.000000
  131       -4.365743   1.000000
  132       -4.365714   1.000000
  133       -4.355219   1.000000
  134       -4.355115   1.000000
  135       -4.355092   1.000000
  136       -4.355077   1.000000
  137       -4.355062   1.000000
  138       -4.355030   1.000000
  139       -4.355013   1.000000
  140       -4.354981   1.000000
  141       -4.354977   1.000000
  142       -4.354946   1.000000
  143       -4.354930   1.000000
  144       -4.354847   1.000000
  145       -4.308775   1.000000
  146       -4.308720   1.000000
  147       -4.308713   1.000000
  148       -4.308581   1.000000
  149       -4.308508   1.000000
  150       -4.307815   1.000000
  151       -4.272584   1.000000
  152       -4.272541   1.000000
  153       -4.272533   1.000000
  154       -4.272489   1.000000
  155       -4.272403   1.000000
  156       -4.272342   1.000000
  157       -4.251935   1.000000
  158       -4.251928   1.000000
  159       -4.251811   1.000000
  160       -4.213888   1.000000
  161       -4.213828   1.000000
  162       -4.213797   1.000000
  163       -4.213775   1.000000
  164       -4.213763   1.000000
  165       -4.213737   1.000000
  166       -4.213702   1.000000
  167       -4.213694   1.000000
  168       -4.213661   1.000000
  169       -4.213648   1.000000
  170       -4.213613   1.000000
  171       -4.213586   1.000000
  172       -4.151321   1.000000
  173       -4.151319   1.000000
  174       -4.151141   1.000000
  175       -4.122422   1.000000
  176       -4.122400   1.000000
  177       -4.122355   1.000000
  178       -4.122342   1.000000
  179       -4.122315   1.000000
  180       -4.121985   1.000000
  181       -4.043404   1.000000
  182       -4.043392   1.000000
  183       -4.043285   1.000000
  184       -4.016006   1.000000
  185       -4.015937   1.000000
  186       -4.015923   1.000000
  187       -4.015906   1.000000
  188       -4.015871   1.000000
  189       -4.015844   1.000000
  190       -4.015835   1.000000
  191       -4.015806   1.000000
  192       -4.015750   1.000000
  193       -4.015723   1.000000
  194       -4.015682   1.000000
  195       -4.015666   1.000000
  196       -3.982097   1.000000
  197       -3.982091   1.000000
  198       -3.981946   1.000000
  199       -3.917939   1.000000
  200       -3.917925   1.000000
  201       -3.917780   1.000000
  202       -3.916919   1.000000
  203       -3.916904   1.000000
  204       -3.916861   1.000000
  205       -3.916841   1.000000
  206       -3.916727   1.000000
  207       -3.916694   1.000000
  208       -3.871658   1.000000
  209       -3.871550   1.000000
  210       -3.871483   1.000000
  211       -3.871462   1.000000
  212       -3.871373   1.000000
  213       -3.871369   1.000000
  214       -3.871363   1.000000
  215       -3.871342   1.000000
  216       -3.871258   1.000000
  217       -3.871228   1.000000
  218       -3.871223   1.000000
  219       -3.871111   1.000000
  220       -3.859861   1.000000
  221       -3.859843   1.000000
  222       -3.859809   1.000000
  223       -3.859783   1.000000
  224       -3.859683   1.000000
  225       -3.859642   1.000000
  226       -3.776727   1.000000
  227       -3.776683   1.000000
  228       -3.776654   1.000000
  229       -3.776621   1.000000
  230       -3.776605   1.000000
  231       -3.776567   1.000000
  232       -3.776536   1.000000
  233       -3.776511   1.000000
  234       -3.776496   1.000000
  235       -3.776476   1.000000
  236       -3.776437   1.000000
  237       -3.776385   1.000000
  238       -3.745198   1.000000
  239       -3.745190   1.000000
  240       -3.745115   1.000000
  241       -3.745110   1.000000
  242       -3.745073   1.000000
  243       -3.744966   1.000000
  244       -3.729500   1.000000
  245       -3.729481   1.000000
  246       -3.729212   1.000000
  247       -3.729209   1.000000
  248       -3.725454   1.000000
  249       -3.725423   1.000000
  250       -3.725404   1.000000
  251       -3.725379   1.000000
  252       -3.725330   1.000000
  253       -3.725292   1.000000
  254       -3.719834   1.000000
  255       -3.719818   1.000000
  256       -3.679325   1.000000
  257       -3.679215   1.000000
  258       -3.679201   1.000000
  259       -3.679172   1.000000
  260       -3.679137   1.000000
  261       -3.679131   1.000000
  262       -3.679096   1.000000
  263       -3.679091   1.000000
  264       -3.679060   1.000000
  265       -3.679024   1.000000
  266       -3.678937   1.000000
  267       -3.678863   1.000000
  268       -3.668673   1.000000
  269       -3.668670   1.000000
  270       -3.668574   1.000000
  271       -3.619989   1.000000
  272       -3.619953   1.000000
  273       -3.619930   1.000000
  274       -3.619892   1.000000
  275       -3.619755   1.000000
  276       -3.619708   1.000000
  277       -3.613241   1.000000
  278       -3.613229   1.000000
  279       -3.612655   1.000000
  280       -3.612645   1.000000
  281       -3.593421   1.000000
  282       -3.593412   1.000000
  283       -3.577400   1.000000
  284       -3.577348   1.000000
  285       -3.577275   1.000000
  286       -3.577243   1.000000
  287       -3.577199   1.000000
  288       -3.577155   1.000000
  289       -3.566458   1.000000
  290       -3.566447   1.000000
  291       -3.565894   1.000000
  292       -3.565884   1.000000
  293       -3.561485   1.000000
  294       -3.561475   1.000000
  295       -3.495815   1.000000
  296       -3.495799   1.000000
  297       -3.494488   1.000000
  298       -3.494475   1.000000
  299       -3.489873   1.000000
  300       -3.489839   1.000000
  301       -3.489758   1.000000
  302       -3.489720   1.000000
  303       -3.489697   1.000000
  304       -3.489676   1.000000
  305       -3.489648   1.000000
  306       -3.489604   1.000000
  307       -3.489569   1.000000
  308       -3.489564   1.000000
  309       -3.489534   1.000000
  310       -3.489486   1.000000
  311       -3.443241   1.000000
  312       -3.443216   1.000000
  313       -3.443142   1.000000
  314       -3.443123   1.000000
  315       -3.443091   1.000000
  316       -3.443065   1.000000
  317       -3.407590   1.000000
  318       -3.407538   1.000000
  319       -3.407456   1.000000
  320       -3.407440   1.000000
  321       -3.407393   1.000000
  322       -3.407344   1.000000
  323       -3.403829   1.000000
  324       -3.403783   1.000000
  325       -3.403742   1.000000
  326       -3.403698   1.000000
  327       -3.403657   1.000000
  328       -3.403643   1.000000
  329       -3.403619   1.000000
  330       -3.403596   1.000000
  331       -3.403577   1.000000
  332       -3.403505   1.000000
  333       -3.403468   1.000000
  334       -3.403425   1.000000
  335       -3.387291   1.000000
  336       -3.387271   1.000000
  337       -3.387230   1.000000
  338       -3.387226   1.000000
  339       -3.387128   1.000000
  340       -3.387104   1.000000
  341       -3.292606   1.000000
  342       -3.292589   1.000000
  343       -3.292574   1.000000
  344       -3.267350   1.000000
  345       -3.267328   1.000000
  346       -3.267229   1.000000
  347       -3.267217   1.000000
  348       -3.267164   1.000000
  349       -3.267157   1.000000
  350       -3.227785   1.000000
  351       -3.227781   1.000000
  352       -3.213687   1.000000
  353       -3.213668   1.000000
  354       -3.213635   1.000000
  355       -3.213631   1.000000
  356       -3.213602   1.000000
  357       -3.213588   1.000000
  358       -3.213547   1.000000
  359       -3.213522   1.000000
  360       -3.213494   1.000000
  361       -3.213488   1.000000
  362       -3.213468   1.000000
  363       -3.213447   1.000000
  364       -3.187209   1.000000
  365       -3.187203   1.000000
  366       -3.149255   1.000000
  367       -3.149245   1.000000
  368       -3.149238   1.000000
  369       -3.149222   1.000000
  370       -3.149188   1.000000
  371       -3.149141   1.000000
  372       -3.143999   1.000000
  373       -3.143991   1.000000
  374       -3.143971   1.000000
  375       -3.143938   1.000000
  376       -3.143831   1.000000
  377       -3.143824   1.000000
  378       -3.140040   1.000000
  379       -3.139968   1.000000
  380       -3.139897   1.000000
  381       -3.139862   1.000000
  382       -3.139856   1.000000
  383       -3.139811   1.000000
  384       -3.073345   1.000000
  385       -3.073320   1.000000
  386       -3.073296   1.000000
  387       -3.073275   1.000000
  388       -3.073255   1.000000
  389       -3.073211   1.000000
  390       -3.073207   1.000000
  391       -3.073182   1.000000
  392       -3.073151   1.000000
  393       -3.073136   1.000000
  394       -3.073125   1.000000
  395       -3.073068   1.000000
  396       -3.036416   1.000000
  397       -3.036392   1.000000
  398       -3.036308   1.000000
  399       -3.036295   1.000000
  400       -3.036267   1.000000
  401       -3.036239   1.000000
  402       -2.964546   1.000000
  403       -2.964534   1.000000
  404       -2.964461   1.000000
  405       -2.964423   1.000000
  406       -2.964399   1.000000
  407       -2.964292   1.000000
  408       -2.952733   1.000000
  409       -2.952728   1.000000
  410       -2.952640   1.000000
  411       -2.952614   1.000000
  412       -2.952590   1.000000
  413       -2.952389   1.000000
  414       -2.936829   1.000000
  415       -2.936821   1.000000
  416       -2.936791   1.000000
  417       -2.936762   1.000000
  418       -2.936742   1.000000
  419       -2.936668   1.000000
  420       -2.913834   1.000000
  421       -2.913816   1.000000
  422       -2.913719   1.000000
  423       -2.913694   1.000000
  424       -2.913682   1.000000
  425       -2.913568   1.000000
  426       -2.892376   1.000000
  427       -2.892353   1.000000
  428       -2.892332   1.000000
  429       -2.892314   1.000000
  430       -2.892286   1.000000
  431       -2.892268   1.000000
  432       -2.892255   1.000000
  433       -2.892229   1.000000
  434       -2.892210   1.000000
  435       -2.892181   1.000000
  436       -2.892138   1.000000
  437       -2.892128   1.000000
  438       -2.889448   1.000000
  439       -2.889436   1.000000
  440       -2.889412   1.000000
  441       -2.889392   1.000000
  442       -2.889384   1.000000
  443       -2.889343   1.000000
  444       -2.828636   1.000000
  445       -2.828605   1.000000
  446       -2.828584   1.000000
  447       -2.825669   1.000000
  448       -2.825644   1.000000
  449       -2.825596   1.000000
  450       -2.825575   1.000000
  451       -2.825522   1.000000
  452       -2.825483   1.000000
  453       -2.819490   1.000000
  454       -2.819471   1.000000
  455       -2.819441   1.000000
  456       -2.819426   1.000000
  457       -2.819390   1.000000
  458       -2.819367   1.000000
  459       -2.819322   1.000000
  460       -2.819278   1.000000
  461       -2.819252   1.000000
  462       -2.819216   1.000000
  463       -2.819208   1.000000
  464       -2.819170   1.000000
  465       -2.767945   1.000000
  466       -2.767938   1.000000
  467       -2.767498   1.000000
  468       -2.767490   1.000000
  469       -2.735040   1.000000
  470       -2.735023   1.000000
  471       -2.734955   1.000000
  472       -2.734881   1.000000
  473       -2.734838   1.000000
  474       -2.734820   1.000000
  475       -2.731890   1.000000
  476       -2.731852   1.000000
  477       -2.731846   1.000000
  478       -2.731815   1.000000
  479       -2.731797   1.000000
  480       -2.731767   1.000000
  481       -2.726555   1.000000
  482       -2.726513   1.000000
  483       -2.726413   1.000000
  484       -2.726405   1.000000
  485       -2.726385   1.000000
  486       -2.726375   1.000000
  487       -2.711687   1.000000
  488       -2.711622   1.000000
  489       -2.711585   1.000000
  490       -2.711555   1.000000
  491       -2.711544   1.000000
  492       -2.711525   1.000000
  493       -2.711498   1.000000
  494       -2.711491   1.000000
  495       -2.711459   1.000000
  496       -2.711429   1.000000
  497       -2.711420   1.000000
  498       -2.711345   1.000000
  499       -2.705056   1.000000
  500       -2.705054   1.000000
  501       -2.675366   1.000000
  502       -2.675319   1.000000
  503       -2.675223   1.000000
  504       -2.675199   1.000000
  505       -2.675080   1.000000
  506       -2.674945   1.000000
  507       -2.641536   1.000000
  508       -2.641498   1.000000
  509       -2.641485   1.000000
  510       -2.641472   1.000000
  511       -2.641439   1.000000
  512       -2.641434   1.000000
  513       -2.637555   1.000000
  514       -2.607552   1.000000
  515       -2.607547   1.000000
  516       -2.606958   1.000000
  517       -2.606947   1.000000
  518       -2.601111   1.000000
  519       -2.601085   1.000000
  520       -2.601000   1.000000
  521       -2.600974   1.000000
  522       -2.600964   1.000000
  523       -2.600847   1.000000
  524       -2.596411   1.000000
  525       -2.549765   1.000000
  526       -2.549728   1.000000
  527       -2.549712   1.000000
  528       -2.549696   1.000000
  529       -2.549666   1.000000
  530       -2.549653   1.000000
  531       -2.549638   1.000000
  532       -2.549591   1.000000
  533       -2.549577   1.000000
  534       -2.549569   1.000000
  535       -2.549548   1.000000
  536       -2.549523   1.000000
  537       -2.537887   1.000000
  538       -2.537878   1.000000
  539       -2.537807   1.000000
  540       -2.537735   1.000000
  541       -2.537727   1.000000
  542       -2.537416   1.000000
  543       -2.536802   1.000000
  544       -2.536797   1.000000
  545       -2.536659   1.000000
  546       -2.512261   1.000000
  547       -2.512207   1.000000
  548       -2.512201   1.000000
  549       -2.501390   1.000000
  550       -2.501375   1.000000
  551       -2.501325   1.000000
  552       -2.501307   1.000000
  553       -2.501224   1.000000
  554       -2.500952   1.000000
  555       -2.483185   1.000000
  556       -2.483121   1.000000
  557       -2.483053   1.000000
  558       -2.483027   1.000000
  559       -2.483018   1.000000
  560       -2.482748   1.000000
  561       -2.472435   1.000000
  562       -2.472410   1.000000
  563       -2.472377   1.000000
  564       -2.472362   1.000000
  565       -2.472343   1.000000
  566       -2.472321   1.000000
  567       -2.472298   1.000000
  568       -2.472284   1.000000
  569       -2.472271   1.000000
  570       -2.472244   1.000000
  571       -2.472186   1.000000
  572       -2.472172   1.000000
  573       -2.468510   1.000000
  574       -2.468289   1.000000
  575       -2.447870   1.000000
  576       -2.447725   1.000000
  577       -2.426218   1.000000
  578       -2.426211   1.000000
  579       -2.426188   1.000000
  580       -2.426145   1.000000
  581       -2.426098   1.000000
  582       -2.426060   1.000000
  583       -2.425861   1.000000
  584       -2.425850   1.000000
  585       -2.425779   1.000000
  586       -2.425726   1.000000
  587       -2.425657   1.000000
  588       -2.425606   1.000000
  589       -2.401176   1.000000
  590       -2.401141   1.000000
  591       -2.401131   1.000000
  592       -2.401122   1.000000
  593       -2.401102   1.000000
  594       -2.401021   1.000000
  595       -2.396580   1.000000
  596       -2.383493   1.000000
  597       -2.383490   1.000000
  598       -2.383312   1.000000
  599       -2.381907   1.000000
  600       -2.381894   1.000000
  601       -2.381872   1.000000
  602       -2.381854   1.000000
  603       -2.381836   1.000000
  604       -2.381805   1.000000
  605       -2.377489   1.000000
  606       -2.377449   1.000000
  607       -2.377419   1.000000
  608       -2.377395   1.000000
  609       -2.377364   1.000000
  610       -2.377324   1.000000
  611       -2.371460   1.000000
  612       -2.371238   1.000000
  613       -2.312520   1.000000
  614       -2.312486   1.000000
  615       -2.312325   1.000000
  616       -2.312313   1.000000
  617       -2.312291   1.000000
  618       -2.312245   1.000000
  619       -2.311647   1.000000
  620       -2.305575   1.000000
  621       -2.305410   1.000000
  622       -2.304646   1.000000
  623       -2.304642   1.000000
  624       -2.304588   1.000000
  625       -2.279845   1.000000
  626       -2.279834   1.000000
  627       -2.279807   1.000000
  628       -2.279792   1.000000
  629       -2.279690   1.000000
  630       -2.279643   1.000000
  631       -2.278260   1.000000
  632       -2.278192   1.000000
  633       -2.278090   1.000000
  634       -2.278070   1.000000
  635       -2.277987   1.000000
  636       -2.277948   1.000000
  637       -2.258021   1.000000
  638       -2.257974   1.000000
  639       -2.257965   1.000000
  640       -2.253615   1.000000
  641       -2.253597   1.000000
  642       -2.253589   1.000000
  643       -2.244961   1.000000
  644       -2.244745   1.000000
  645       -2.223348   1.000000
  646       -2.223325   1.000000
  647       -2.223308   1.000000
  648       -2.223305   1.000000
  649       -2.223298   1.000000
  650       -2.223278   1.000000
  651       -2.223265   1.000000
  652       -2.223242   1.000000
  653       -2.223127   1.000000
  654       -2.223111   1.000000
  655       -2.223076   1.000000
  656       -2.223049   1.000000
  657       -2.212357   1.000000
  658       -2.212329   1.000000
  659       -2.212295   1.000000
  660       -2.212250   1.000000
  661       -2.212195   1.000000
  662       -2.212129   1.000000
  663       -2.209979   1.000000
  664       -2.209943   1.000000
  665       -2.209825   1.000000
  666       -2.209799   1.000000
  667       -2.209756   1.000000
  668       -2.209729   1.000000
  669       -2.204901   1.000000
  670       -2.204896   1.000000
  671       -2.203993   1.000000
  672       -2.203953   1.000000
  673       -2.169901   1.000000
  674       -2.169846   1.000000
  675       -2.169802   1.000000
  676       -2.169775   1.000000
  677       -2.169643   1.000000
  678       -2.169583   1.000000
  679       -2.159811   1.000000
  680       -2.159774   1.000000
  681       -2.159745   1.000000
  682       -2.159719   1.000000
  683       -2.159676   1.000000
  684       -2.159622   1.000000
  685       -2.145736   1.000000
  686       -2.116114   1.000000
  687       -2.116091   1.000000
  688       -2.116032   1.000000
  689       -2.115983   1.000000
  690       -2.115973   1.000000
  691       -2.115938   1.000000
  692       -2.115921   1.000000
  693       -2.115898   1.000000
  694       -2.115828   1.000000
  695       -2.115786   1.000000
  696       -2.115688   1.000000
  697       -2.115607   1.000000
  698       -2.114008   1.000000
  699       -2.113813   1.000000
  700       -2.107092   1.000000
  701       -2.107036   1.000000
  702       -2.106999   1.000000
  703       -2.106923   1.000000
  704       -2.106892   1.000000
  705       -2.106832   1.000000
  706       -2.105662   1.000000
  707       -2.105418   1.000000
  708       -2.105164   1.000000
  709       -2.105057   1.000000
  710       -2.105039   1.000000
  711       -2.104947   1.000000
  712       -2.104918   1.000000
  713       -2.104851   1.000000
  714       -2.103210   1.000000
  715       -2.103205   1.000000
  716       -2.102658   1.000000
  717       -2.102635   1.000000
  718       -2.086476   1.000000
  719       -2.086408   1.000000
  720       -2.086304   1.000000
  721       -2.086253   1.000000
  722       -2.086182   1.000000
  723       -2.086126   1.000000
  724       -2.029553   1.000000
  725       -2.029421   1.000000
  726       -2.029408   1.000000
  727       -2.029395   1.000000
  728       -2.029363   1.000000
  729       -2.029234   1.000000
  730       -2.025456   1.000000
  731       -2.025433   1.000000
  732       -2.025376   1.000000
  733       -2.025350   1.000000
  734       -2.025326   1.000000
  735       -2.025301   1.000000
  736       -2.025284   1.000000
  737       -2.025266   1.000000
  738       -2.025213   1.000000
  739       -2.025196   1.000000
  740       -2.025181   1.000000
  741       -2.025158   1.000000
  742       -1.990306   1.000000
  743       -1.990241   1.000000
  744       -1.990163   1.000000
  745       -1.990103   1.000000
  746       -1.990074   1.000000
  747       -1.990007   1.000000
  748       -1.983713   1.000000
  749       -1.983674   1.000000
  750       -1.983621   1.000000
  751       -1.983569   1.000000
  752       -1.983546   1.000000
  753       -1.983412   1.000000
  754       -1.932993   1.000000
  755       -1.932971   1.000000
  756       -1.932929   1.000000
  757       -1.932899   1.000000
  758       -1.932886   1.000000
  759       -1.932784   1.000000
  760       -1.926679   1.000000
  761       -1.926640   1.000000
  762       -1.926613   1.000000
  763       -1.926582   1.000000
  764       -1.926544   1.000000
  765       -1.926508   1.000000
  766       -1.926493   1.000000
  767       -1.926457   1.000000
  768       -1.926436   1.000000
  769       -1.926415   1.000000
  770       -1.926361   1.000000
  771       -1.926320   1.000000
  772       -1.925528   1.000000
  773       -1.925502   1.000000
  774       -1.925420   1.000000
  775       -1.925408   1.000000
  776       -1.925379   1.000000
  777       -1.925291   1.000000
  778       -1.895933   1.000000
  779       -1.895867   1.000000
  780       -1.895861   1.000000
  781       -1.888570   1.000000
  782       -1.888502   1.000000
  783       -1.888391   1.000000
  784       -1.888364   1.000000
  785       -1.888325   1.000000
  786       -1.888275   1.000000
  787       -1.867647   1.000000
  788       -1.867627   1.000000
  789       -1.867509   1.000000
  790       -1.867462   1.000000
  791       -1.867433   1.000000
  792       -1.867368   1.000000
  793       -1.844144   1.000000
  794       -1.844110   1.000000
  795       -1.844097   1.000000
  796       -1.844059   1.000000
  797       -1.844033   1.000000
  798       -1.844006   1.000000
  799       -1.833746   1.000000
  800       -1.833477   1.000000
  801       -1.833450   1.000000
  802       -1.833436   1.000000
  803       -1.833412   1.000000
  804       -1.833132   1.000000
  805       -1.806042   1.000000
  806       -1.806021   1.000000
  807       -1.805999   1.000000
  808       -1.805966   1.000000
  809       -1.805927   1.000000
  810       -1.805875   1.000000
  811       -1.805859   1.000000
  812       -1.805832   1.000000
  813       -1.805817   1.000000
  814       -1.805786   1.000000
  815       -1.805778   1.000000
  816       -1.805769   1.000000
  817       -1.765455   1.000000
  818       -1.765437   1.000000
  819       -1.765394   1.000000
  820       -1.765310   1.000000
  821       -1.765271   1.000000
  822       -1.765267   1.000000
  823       -1.765227   1.000000
  824       -1.765197   1.000000
  825       -1.765174   1.000000
  826       -1.765152   1.000000
  827       -1.765146   1.000000
  828       -1.765130   1.000000
  829       -1.759146   1.000000
  830       -1.759119   1.000000
  831       -1.759041   1.000000
  832       -1.759009   1.000000
  833       -1.758927   1.000000
  834       -1.758893   1.000000
  835       -1.756901   1.000000
  836       -1.756877   1.000000
  837       -1.756862   1.000000
  838       -1.756846   1.000000
  839       -1.756788   1.000000
  840       -1.756772   1.000000
  841       -1.751388   1.000000
  842       -1.751379   1.000000
  843       -1.751293   1.000000
  844       -1.751272   1.000000
  845       -1.751256   1.000000
  846       -1.751146   1.000000
  847       -1.736316   1.000000
  848       -1.736170   1.000000
  849       -1.736135   1.000000
  850       -1.736027   1.000000
  851       -1.735980   1.000000
  852       -1.735071   1.000000
  853       -1.722808   1.000000
  854       -1.722779   1.000000
  855       -1.722738   1.000000
  856       -1.694425   1.000000
  857       -1.694207   1.000000
  858       -1.694162   1.000000
  859       -1.694145   1.000000
  860       -1.694117   1.000000
  861       -1.693898   1.000000
  862       -1.679708   1.000000
  863       -1.679690   1.000000
  864       -1.679652   1.000000
  865       -1.678229   1.000000
  866       -1.678186   1.000000
  867       -1.678182   1.000000
  868       -1.678105   1.000000
  869       -1.678094   1.000000
  870       -1.677936   1.000000
  871       -1.629213   1.000000
  872       -1.629206   1.000000
  873       -1.629170   1.000000
  874       -1.629154   1.000000
  875       -1.629138   1.000000
  876       -1.629122   1.000000
  877       -1.629106   1.000000
  878       -1.629085   1.000000
  879       -1.629074   1.000000
  880       -1.629038   1.000000
  881       -1.628955   1.000000
  882       -1.628921   1.000000
  883       -1.613784   1.000000
  884       -1.613492   1.000000
  885       -1.613409   1.000000
  886       -1.613379   1.000000
  887       -1.613241   1.000000
  888       -1.611165   1.000000
  889       -1.582315   1.000000
  890       -1.580569   1.000000
  891       -1.580509   1.000000
  892       -1.580443   1.000000
  893       -1.580408   1.000000
  894       -1.580299   1.000000
  895       -1.580278   1.000000
  896       -1.511401   1.000000
  897       -1.511381   1.000000
  898       -1.511329   1.000000
  899       -1.511293   1.000000
  900       -1.511274   1.000000
  901       -1.511255   1.000000