 254 254   0   0
  0.2268316E+02  0.1514622E-08  0.1514622E-08  0.2900000E-08  0.5000000E-15
  1.000000000000000E-004
  CAR 
 NiAl                                    
      5.87486487    -20.87274176  301     -0.61125103      1.00000000
    -20.873  0.0000E+00  0.0000E+00
    -20.784  0.0000E+00  0.0000E+00
    -20.694  0.0000E+00  0.0000E+00
    -20.605  0.0000E+00  0.0000E+00
    -20.516  0.0000E+00  0.0000E+00
    -20.427  0.0000E+00  0.0000E+00
    -20.338  0.0000E+00  0.0000E+00
    -20.249  0.0000E+00  0.0000E+00
    -20.159  0.0000E+00  0.0000E+00
    -20.070  0.0000E+00  0.0000E+00
    -19.981  0.0000E+00  0.0000E+00
    -19.892  0.3283E-09  0.2927E-10
    -19.803  0.4097E-03  0.3653E-04
    -19.714  0.1212E+01  0.1081E+00
    -19.625  0.1718E+02  0.1640E+01
    -19.535  0.4032E+01  0.1999E+01
    -19.446  0.6599E-02  0.2000E+01
    -19.357  0.2851E-07  0.2000E+01
    -19.268  0.0000E+00  0.2000E+01
    -19.179  0.0000E+00  0.2000E+01
    -19.090  0.0000E+00  0.2000E+01
    -19.000  0.0000E+00  0.2000E+01
    -18.911  0.0000E+00  0.2000E+01
    -18.822  0.0000E+00  0.2000E+01
    -18.733  0.0000E+00  0.2000E+01
    -18.644  0.0000E+00  0.2000E+01
    -18.555  0.0000E+00  0.2000E+01
    -18.465  0.0000E+00  0.2000E+01
    -18.376  0.0000E+00  0.2000E+01
    -18.287  0.0000E+00  0.2000E+01
    -18.198  0.0000E+00  0.2000E+01
    -18.109  0.0000E+00  0.2000E+01
    -18.020  0.0000E+00  0.2000E+01
    -17.931  0.0000E+00  0.2000E+01
    -17.841  0.0000E+00  0.2000E+01
    -17.752  0.0000E+00  0.2000E+01
    -17.663  0.0000E+00  0.2000E+01
    -17.574  0.0000E+00  0.2000E+01
    -17.485  0.0000E+00  0.2000E+01
    -17.396  0.0000E+00  0.2000E+01
    -17.306  0.0000E+00  0.2000E+01
    -17.217  0.0000E+00  0.2000E+01
    -17.128  0.0000E+00  0.2000E+01
    -17.039  0.0000E+00  0.2000E+01
    -16.950  0.0000E+00  0.2000E+01
    -16.861  0.0000E+00  0.2000E+01
    -16.771  0.0000E+00  0.2000E+01
    -16.682  0.0000E+00  0.2000E+01
    -16.593  0.0000E+00  0.2000E+01
    -16.504  0.0000E+00  0.2000E+01
    -16.415  0.0000E+00  0.2000E+01
    -16.326  0.0000E+00  0.2000E+01
    -16.236  0.0000E+00  0.2000E+01
    -16.147  0.0000E+00  0.2000E+01
    -16.058  0.0000E+00  0.2000E+01
    -15.969  0.0000E+00  0.2000E+01
    -15.880  0.0000E+00  0.2000E+01
    -15.791  0.0000E+00  0.2000E+01
    -15.702  0.0000E+00  0.2000E+01
    -15.612  0.0000E+00  0.2000E+01
    -15.523  0.0000E+00  0.2000E+01
    -15.434  0.0000E+00  0.2000E+01
    -15.345  0.0000E+00  0.2000E+01
    -15.256  0.0000E+00  0.2000E+01
    -15.167  0.0000E+00  0.2000E+01
    -15.077  0.0000E+00  0.2000E+01
    -14.988  0.0000E+00  0.2000E+01
    -14.899  0.0000E+00  0.2000E+01
    -14.810  0.0000E+00  0.2000E+01
    -14.721  0.0000E+00  0.2000E+01
    -14.632  0.0000E+00  0.2000E+01
    -14.542  0.0000E+00  0.2000E+01
    -14.453  0.0000E+00  0.2000E+01
    -14.364  0.0000E+00  0.2000E+01
    -14.275  0.0000E+00  0.2000E+01
    -14.186  0.0000E+00  0.2000E+01
    -14.097  0.0000E+00  0.2000E+01
    -14.008  0.0000E+00  0.2000E+01
    -13.918  0.0000E+00  0.2000E+01
    -13.829  0.0000E+00  0.2000E+01
    -13.740  0.0000E+00  0.2000E+01
    -13.651  0.0000E+00  0.2000E+01
    -13.562  0.0000E+00  0.2000E+01
    -13.473  0.0000E+00  0.2000E+01
    -13.383  0.0000E+00  0.2000E+01
    -13.294  0.0000E+00  0.2000E+01
    -13.205  0.0000E+00  0.2000E+01
    -13.116  0.0000E+00  0.2000E+01
    -13.027  0.0000E+00  0.2000E+01
    -12.938  0.0000E+00  0.2000E+01
    -12.848  0.0000E+00  0.2000E+01
    -12.759  0.0000E+00  0.2000E+01
    -12.670  0.0000E+00  0.2000E+01
    -12.581  0.0000E+00  0.2000E+01
    -12.492  0.0000E+00  0.2000E+01
    -12.403  0.0000E+00  0.2000E+01
    -12.314  0.7071E-08  0.2000E+01
    -12.224  0.2820E-02  0.2000E+01
    -12.135  0.2854E+01  0.2255E+01
    -12.046  0.1771E+02  0.3833E+01
    -11.957  0.1869E+01  0.4000E+01
    -11.868  0.1059E-02  0.4000E+01
    -11.779  0.1466E-08  0.4000E+01
    -11.689  0.0000E+00  0.4000E+01
    -11.600  0.0000E+00  0.4000E+01
    -11.511  0.0000E+00  0.4000E+01
    -11.422  0.0000E+00  0.4000E+01
    -11.333  0.0000E+00  0.4000E+01
    -11.244  0.0000E+00  0.4000E+01
    -11.154  0.0000E+00  0.4000E+01
    -11.065  0.0000E+00  0.4000E+01
    -10.976  0.0000E+00  0.4000E+01
    -10.887  0.0000E+00  0.4000E+01
    -10.798  0.0000E+00  0.4000E+01
    -10.709  0.0000E+00  0.4000E+01
    -10.619  0.0000E+00  0.4000E+01
    -10.530  0.0000E+00  0.4000E+01
    -10.441  0.0000E+00  0.4000E+01
    -10.352  0.0000E+00  0.4000E+01
    -10.263  0.0000E+00  0.4000E+01
    -10.174  0.0000E+00  0.4000E+01
    -10.085  0.0000E+00  0.4000E+01
     -9.995  0.0000E+00  0.4000E+01
     -9.906  0.0000E+00  0.4000E+01
     -9.817  0.0000E+00  0.4000E+01
     -9.728  0.0000E+00  0.4000E+01
     -9.639  0.0000E+00  0.4000E+01
     -9.550  0.0000E+00  0.4000E+01
     -9.460  0.0000E+00  0.4000E+01
     -9.371  0.3393E-13  0.4000E+01
     -9.282  0.5786E-06  0.4000E+01
     -9.193  0.2116E-01  0.4002E+01
     -9.104  0.2449E+01  0.4220E+01
     -9.015  0.3089E+01  0.4496E+01
     -8.925  0.1706E+01  0.4648E+01
     -8.836  0.2548E+02  0.6919E+01
     -8.747  0.6501E+01  0.7499E+01
     -8.658  0.7450E-01  0.7506E+01
     -8.569  0.3264E+01  0.7797E+01
     -8.480  0.3367E+01  0.8097E+01
     -8.391  0.2875E+02  0.1066E+02
     -8.301  0.3442E+02  0.1373E+02
     -8.212  0.1289E+02  0.1488E+02
     -8.123  0.2292E+02  0.1692E+02
     -8.034  0.8999E+00  0.1700E+02
     -7.945  0.7178E+01  0.1764E+02
     -7.856  0.2568E+02  0.1993E+02
     -7.766  0.6953E+01  0.2055E+02
     -7.677  0.2339E+02  0.2264E+02
     -7.588  0.3372E+02  0.2564E+02
     -7.499  0.6652E+02  0.3157E+02
     -7.410  0.1037E+02  0.3250E+02
     -7.321  0.2293E+01  0.3270E+02
     -7.231  0.1764E+02  0.3428E+02
     -7.142  0.2528E+02  0.3653E+02
     -7.053  0.7318E+02  0.4306E+02
     -6.964  0.2392E+02  0.4519E+02
     -6.875  0.3229E+02  0.4807E+02
     -6.786  0.1316E+02  0.4924E+02
     -6.697  0.1798E+02  0.5084E+02
     -6.607  0.2256E+02  0.5285E+02
     -6.518  0.3880E+02  0.5631E+02
     -6.429  0.4433E+02  0.6027E+02
     -6.340  0.8021E+02  0.6742E+02
     -6.251  0.4220E+02  0.7118E+02
     -6.162  0.2618E+02  0.7351E+02
     -6.072  0.4478E+02  0.7751E+02
     -5.983  0.7193E+02  0.8392E+02
     -5.894  0.9254E+02  0.9217E+02
     -5.805  0.3337E+02  0.9515E+02
     -5.716  0.9765E+01  0.9602E+02
     -5.627  0.1065E+02  0.9697E+02
     -5.537  0.3553E+02  0.1001E+03
     -5.448  0.8314E+02  0.1075E+03
     -5.359  0.1527E+03  0.1212E+03
     -5.270  0.5973E+02  0.1265E+03
     -5.181  0.6104E+02  0.1319E+03
     -5.092  0.1198E+03  0.1426E+03
     -5.002  0.1165E+03  0.1530E+03
     -4.913  0.4958E+02  0.1574E+03
     -4.824  0.6412E+02  0.1631E+03
     -4.735  0.2784E+03  0.1880E+03
     -4.646  0.1707E+03  0.2032E+03
     -4.557  0.2204E+03  0.2228E+03
     -4.468  0.2268E+03  0.2430E+03
     -4.378  0.3053E+03  0.2703E+03
     -4.289  0.2675E+03  0.2941E+03
     -4.200  0.2738E+03  0.3185E+03
     -4.111  0.2331E+03  0.3393E+03
     -4.022  0.3949E+03  0.3745E+03
     -3.933  0.4670E+03  0.4161E+03
     -3.843  0.5217E+03  0.4627E+03
     -3.754  0.4559E+03  0.5033E+03
     -3.665  0.4615E+03  0.5444E+03
     -3.576  0.4475E+03  0.5843E+03
     -3.487  0.3837E+03  0.6185E+03
     -3.398  0.3578E+03  0.6504E+03
     -3.308  0.3596E+03  0.6825E+03
     -3.219  0.4961E+03  0.7267E+03
     -3.130  0.5396E+03  0.7749E+03
     -3.041  0.3449E+03  0.8056E+03
     -2.952  0.5131E+03  0.8514E+03
     -2.863  0.5850E+03  0.9035E+03
     -2.774  0.4824E+03  0.9465E+03
     -2.684  0.5600E+03  0.9965E+03
     -2.595  0.5542E+03  0.1046E+04
     -2.506  0.6880E+03  0.1107E+04
     -2.417  0.7445E+03  0.1174E+04
     -2.328  0.8505E+03  0.1249E+04
     -2.239  0.9096E+03  0.1331E+04
     -2.149  0.7819E+03  0.1400E+04
     -2.060  0.8899E+03  0.1480E+04
     -1.971  0.7785E+03  0.1549E+04
     -1.882  0.5571E+03  0.1599E+04
     -1.793  0.6132E+03  0.1653E+04
     -1.704  0.5561E+03  0.1703E+04
     -1.614  0.5325E+03  0.1750E+04
     -1.525  0.6196E+03  0.1806E+04
     -1.436  0.8143E+03  0.1878E+04
     -1.347  0.7167E+03  0.1942E+04
     -1.258  0.4594E+03  0.1983E+04
     -1.169  0.6844E+03  0.2044E+04
     -1.080  0.7513E+03  0.2111E+04
     -0.990  0.8786E+03  0.2189E+04
     -0.901  0.6999E+03  0.2252E+04
     -0.812  0.6607E+03  0.2311E+04
     -0.723  0.9455E+03  0.2395E+04
     -0.634  0.1214E+04  0.2503E+04
     -0.545  0.9572E+03  0.2589E+04
     -0.455  0.5407E+03  0.2637E+04
     -0.366  0.2633E+03  0.2660E+04
     -0.277  0.1214E+03  0.2671E+04
     -0.188  0.1468E+03  0.2684E+04
     -0.099  0.1698E+03  0.2699E+04
     -0.010  0.1335E+03  0.2711E+04
      0.080  0.4272E+02  0.2715E+04
      0.169  0.6414E+02  0.2721E+04
      0.258  0.5117E+02  0.2725E+04
      0.347  0.5356E+02  0.2730E+04
      0.436  0.1245E+03  0.2741E+04
      0.525  0.8294E+02  0.2749E+04
      0.615  0.8656E+02  0.2756E+04
      0.704  0.7838E+02  0.2763E+04
      0.793  0.1018E+03  0.2772E+04
      0.882  0.1122E+03  0.2782E+04
      0.971  0.1375E+03  0.2795E+04
      1.060  0.6404E+02  0.2800E+04
      1.149  0.3097E+02  0.2803E+04
      1.239  0.5462E+02  0.2808E+04
      1.328  0.1184E+03  0.2819E+04
      1.417  0.5442E+02  0.2823E+04
      1.506  0.3394E+02  0.2826E+04
      1.595  0.9207E+02  0.2835E+04
      1.684  0.9201E+02  0.2843E+04
      1.774  0.8165E+02  0.2850E+04
      1.863  0.8712E+02  0.2858E+04
      1.952  0.9869E+02  0.2867E+04
      2.041  0.4783E+02  0.2871E+04
      2.130  0.7307E+02  0.2878E+04
      2.219  0.8713E+02  0.2885E+04
      2.309  0.1091E+03  0.2895E+04
      2.398  0.7331E+02  0.2902E+04
      2.487  0.3034E+02  0.2904E+04
      2.576  0.7588E+02  0.2911E+04
      2.665  0.4604E+02  0.2915E+04
      2.754  0.2112E+02  0.2917E+04
      2.843  0.2794E+02  0.2920E+04
      2.933  0.5881E+02  0.2925E+04
      3.022  0.1458E+03  0.2938E+04
      3.111  0.1891E+03  0.2955E+04
      3.200  0.8020E+02  0.2962E+04
      3.289  0.3081E+02  0.2965E+04
      3.378  0.3709E+02  0.2968E+04
      3.468  0.8705E+02  0.2976E+04
      3.557  0.5868E+02  0.2981E+04
      3.646  0.3561E+02  0.2984E+04
      3.735  0.7803E+02  0.2991E+04
      3.824  0.2731E+02  0.2993E+04
      3.913  0.2089E+02  0.2995E+04
      4.003  0.2141E+02  0.2997E+04
      4.092  0.2692E+02  0.3000E+04
      4.181  0.8733E+02  0.3007E+04
      4.270  0.4329E+02  0.3011E+04
      4.359  0.5463E+02  0.3016E+04
      4.448  0.9378E+02  0.3024E+04
      4.537  0.4580E+02  0.3029E+04
      4.627  0.5492E+02  0.3033E+04
      4.716  0.2862E+02  0.3036E+04
      4.805  0.5599E+00  0.3036E+04
      4.894  0.1231E-03  0.3036E+04
      4.983  0.8742E-10  0.3036E+04
      5.072  0.0000E+00  0.3036E+04
      5.162  0.0000E+00  0.3036E+04
      5.251  0.0000E+00  0.3036E+04
      5.340  0.0000E+00  0.3036E+04
      5.429  0.0000E+00  0.3036E+04
      5.518  0.0000E+00  0.3036E+04
      5.607  0.0000E+00  0.3036E+04
      5.697  0.0000E+00  0.3036E+04
      5.786  0.0000E+00  0.3036E+04
      5.875  0.0000E+00  0.3036E+04
