  254  254    1    1
  0.2268316E+02  0.1514622E-08  0.1514622E-08  0.2900000E-08  0.5000000E-15
  1.000000000000000E-004
  CAR 
 NiAl                                    
   2530      4   1518
 
  0.0000000E+00  0.0000000E+00  0.0000000E+00  0.2500000E+00
    1      -19.656816   1.000000
    2      -12.094849   1.000000
    3       -9.098493   1.000000
    4       -8.577178   1.000000
    5       -8.206277   1.000000
    6       -8.191859   1.000000
    7       -8.189961   1.000000
    8       -8.189822   1.000000
    9       -8.189384   1.000000
   10       -8.188805   1.000000
   11       -7.831866   1.000000
   12       -7.716860   1.000000
   13       -7.691906   1.000000
   14       -7.684350   1.000000
   15       -7.684068   1.000000
   16       -7.683753   1.000000
   17       -7.680959   1.000000
   18       -7.256854   1.000000
   19       -6.930459   1.000000
   20       -6.899611   1.000000
   21       -6.898800   1.000000
   22       -6.898323   1.000000
   23       -6.894023   1.000000
   24       -6.780531   1.000000
   25       -6.591610   1.000000
   26       -6.571453   1.000000
   27       -6.555853   1.000000
   28       -6.554605   1.000000
   29       -6.554252   1.000000
   30       -6.553778   1.000000
   31       -6.521418   1.000000
   32       -6.355958   1.000000
   33       -6.149678   1.000000
   34       -6.134348   1.000000
   35       -6.133948   1.000000
   36       -6.132781   1.000000
   37       -6.122839   1.000000
   38       -6.088577   1.000000
   39       -5.957783   1.000000
   40       -5.933631   1.000000
   41       -5.933529   1.000000
   42       -5.933508   1.000000
   43       -5.933297   1.000000
   44       -5.933143   1.000000
   45       -5.932902   1.000000
   46       -5.932748   1.000000
   47       -5.932490   1.000000
   48       -5.926234   1.000000
   49       -5.867592   1.000000
   50       -5.848005   1.000000
   51       -5.804512   1.000000
   52       -5.655194   1.000000
   53       -5.602648   1.000000
   54       -5.602154   1.000000
   55       -5.601165   1.000000
   56       -5.593713   1.000000
   57       -5.585867   1.000000
   58       -5.583159   1.000000
   59       -5.508079   1.000000
   60       -5.507194   1.000000
   61       -5.505120   1.000000
   62       -5.490806   1.000000
   63       -5.464962   1.000000
   64       -5.461293   1.000000
   65       -5.155988   1.000000
   66       -5.155433   1.000000
   67       -5.153922   1.000000
   68       -5.152588   1.000000
   69       -5.139369   1.000000
   70       -5.134012   1.000000
   71       -5.062976   1.000000
   72       -4.997246   1.000000
   73       -4.996483   1.000000
   74       -4.995895   1.000000
   75       -4.992004   1.000000
   76       -4.983198   1.000000
   77       -4.918015   1.000000
   78       -4.876803   1.000000
   79       -4.824599   1.000000
   80       -4.823697   1.000000
   81       -4.823620   1.000000
   82       -4.786526   1.000000
   83       -4.785194   1.000000
   84       -4.782362   1.000000
   85       -4.780353   1.000000
   86       -4.766717   1.000000
   87       -4.747311   1.000000
   88       -4.704559   1.000000
   89       -4.703013   1.000000
   90       -4.701458   1.000000
   91       -4.694613   1.000000
   92       -4.687239   1.000000
   93       -4.684387   1.000000
   94       -4.683238   1.000000
   95       -4.679878   1.000000
   96       -4.678844   1.000000
   97       -4.592784   1.000000
   98       -4.591564   1.000000
   99       -4.591264   1.000000
  100       -4.590876   1.000000
  101       -4.590765   1.000000
  102       -4.590686   1.000000
  103       -4.590569   1.000000
  104       -4.590341   1.000000
  105       -4.589771   1.000000
  106       -4.589336   1.000000
  107       -4.587797   1.000000
  108       -4.587323   1.000000
  109       -4.549749   1.000000
  110       -4.547224   1.000000
  111       -4.547128   1.000000
  112       -4.480412   1.000000
  113       -4.477382   1.000000
  114       -4.476775   1.000000
  115       -4.443122   1.000000
  116       -4.442835   1.000000
  117       -4.442364   1.000000
  118       -4.441266   1.000000
  119       -4.441063   1.000000
  120       -4.399155   1.000000
  121       -4.392577   1.000000
  122       -4.390458   1.000000
  123       -4.387535   1.000000
  124       -4.387041   1.000000
  125       -4.386838   1.000000
  126       -4.386674   1.000000
  127       -4.386621   1.000000
  128       -4.386261   1.000000
  129       -4.386222   1.000000
  130       -4.385343   1.000000
  131       -4.384874   1.000000
  132       -4.383874   1.000000
  133       -4.380148   1.000000
  134       -4.379468   1.000000
  135       -4.379029   1.000000
  136       -4.376979   1.000000
  137       -4.376025   1.000000
  138       -4.376002   1.000000
  139       -4.375788   1.000000
  140       -4.375719   1.000000
  141       -4.375355   1.000000
  142       -4.374819   1.000000
  143       -4.372941   1.000000
  144       -4.372452   1.000000
  145       -4.330034   1.000000
  146       -4.329668   1.000000
  147       -4.329432   1.000000
  148       -4.329034   1.000000
  149       -4.328889   1.000000
  150       -4.311339   1.000000
  151       -4.303971   1.000000
  152       -4.295434   1.000000
  153       -4.293501   1.000000
  154       -4.288914   1.000000
  155       -4.284547   1.000000
  156       -4.278740   1.000000
  157       -4.274919   1.000000
  158       -4.274271   1.000000
  159       -4.254190   1.000000
  160       -4.243945   1.000000
  161       -4.243792   1.000000
  162       -4.241353   1.000000
  163       -4.237405   1.000000
  164       -4.237165   1.000000
  165       -4.235409   1.000000
  166       -4.234652   1.000000
  167       -4.234465   1.000000
  168       -4.234365   1.000000
  169       -4.230918   1.000000
  170       -4.226632   1.000000
  171       -4.225335   1.000000
  172       -4.172849   1.000000
  173       -4.172624   1.000000
  174       -4.172246   1.000000
  175       -4.145169   1.000000
  176       -4.143515   1.000000
  177       -4.142092   1.000000
  178       -4.141421   1.000000
  179       -4.135036   1.000000
  180       -4.116651   1.000000
  181       -4.104329   1.000000
  182       -4.062063   1.000000
  183       -4.056721   1.000000
  184       -4.047333   1.000000
  185       -4.047176   1.000000
  186       -4.042248   1.000000
  187       -4.041442   1.000000
  188       -4.040650   1.000000
  189       -4.039014   1.000000
  190       -4.037126   1.000000
  191       -4.037024   1.000000
  192       -4.036819   1.000000
  193       -4.032993   1.000000
  194       -4.023621   1.000000
  195       -4.020178   1.000000
  196       -4.002561   1.000000
  197       -4.001219   1.000000
  198       -3.999578   1.000000
  199       -3.974498   1.000000
  200       -3.943800   1.000000
  201       -3.939430   1.000000
  202       -3.938570   1.000000
  203       -3.938389   1.000000
  204       -3.936492   1.000000
  205       -3.935229   1.000000
  206       -3.928500   1.000000
  207       -3.921319   1.000000
  208       -3.898385   1.000000
  209       -3.895653   1.000000
  210       -3.893004   1.000000
  211       -3.892910   1.000000
  212       -3.892807   1.000000
  213       -3.892340   1.000000
  214       -3.892298   1.000000
  215       -3.892083   1.000000
  216       -3.891987   1.000000
  217       -3.891714   1.000000
  218       -3.891453   1.000000
  219       -3.891296   1.000000
  220       -3.885733   1.000000
  221       -3.882845   1.000000
  222       -3.881169   1.000000
  223       -3.881040   1.000000
  224       -3.880764   1.000000
  225       -3.873464   1.000000
  226       -3.819426   1.000000
  227       -3.805238   1.000000
  228       -3.802917   1.000000
  229       -3.799766   1.000000
  230       -3.799293   1.000000
  231       -3.798313   1.000000
  232       -3.797642   1.000000
  233       -3.797399   1.000000
  234       -3.797105   1.000000
  235       -3.796193   1.000000
  236       -3.787453   1.000000
  237       -3.785287   1.000000
  238       -3.768018   1.000000
  239       -3.767461   1.000000
  240       -3.765991   1.000000
  241       -3.765613   1.000000
  242       -3.764402   1.000000
  243       -3.760970   1.000000
  244       -3.752653   1.000000
  245       -3.751687   1.000000
  246       -3.750535   1.000000
  247       -3.750189   1.000000
  248       -3.746808   1.000000
  249       -3.746285   1.000000
  250       -3.745401   1.000000
  251       -3.744974   1.000000
  252       -3.741238   1.000000
  253       -3.740933   1.000000
  254       -3.739817   1.000000
  255       -3.739599   1.000000
  256       -3.726953   1.000000
  257       -3.718053   1.000000
  258       -3.703457   1.000000
  259       -3.702385   1.000000
  260       -3.701361   1.000000
  261       -3.700470   1.000000
  262       -3.700259   1.000000
  263       -3.700049   1.000000
  264       -3.699957   1.000000
  265       -3.699930   1.000000
  266       -3.699616   1.000000
  267       -3.699195   1.000000
  268       -3.696631   1.000000
  269       -3.692983   1.000000
  270       -3.690092   1.000000
  271       -3.654913   1.000000
  272       -3.649203   1.000000
  273       -3.644201   1.000000
  274       -3.643984   1.000000
  275       -3.642375   1.000000
  276       -3.638294   1.000000
  277       -3.637313   1.000000
  278       -3.635547   1.000000
  279       -3.634347   1.000000
  280       -3.633104   1.000000
  281       -3.613492   1.000000
  282       -3.613260   1.000000
  283       -3.602650   1.000000
  284       -3.598860   1.000000
  285       -3.598536   1.000000
  286       -3.598237   1.000000
  287       -3.597819   1.000000
  288       -3.593272   1.000000
  289       -3.589878   1.000000
  290       -3.588676   1.000000
  291       -3.587405   1.000000
  292       -3.587360   1.000000
  293       -3.581817   1.000000
  294       -3.581602   1.000000
  295       -3.553387   1.000000
  296       -3.545438   1.000000
  297       -3.524862   1.000000
  298       -3.520403   1.000000
  299       -3.516741   1.000000
  300       -3.516598   1.000000
  301       -3.513979   1.000000
  302       -3.512753   1.000000
  303       -3.511597   1.000000
  304       -3.511544   1.000000
  305       -3.511452   1.000000
  306       -3.510850   1.000000
  307       -3.510130   1.000000
  308       -3.507945   1.000000
  309       -3.504877   1.000000
  310       -3.502208   1.000000
  311       -3.481798   1.000000
  312       -3.474495   1.000000
  313       -3.465105   1.000000
  314       -3.463966   1.000000
  315       -3.463875   1.000000
  316       -3.463604   1.000000
  317       -3.461232   1.000000
  318       -3.459650   1.000000
  319       -3.441978   1.000000
  320       -3.434344   1.000000
  321       -3.432318   1.000000
  322       -3.431665   1.000000
  323       -3.428540   1.000000
  324       -3.428438   1.000000
  325       -3.428252   1.000000
  326       -3.428201   1.000000
  327       -3.426607   1.000000
  328       -3.426544   1.000000
  329       -3.425894   1.000000
  330       -3.425166   1.000000
  331       -3.424970   1.000000
  332       -3.424877   1.000000
  333       -3.424791   1.000000
  334       -3.422852   1.000000
  335       -3.413583   1.000000
  336       -3.412401   1.000000
  337       -3.411571   1.000000
  338       -3.411003   1.000000
  339       -3.410517   1.000000
  340       -3.397056   1.000000
  341       -3.378763   1.000000
  342       -3.321169   1.000000
  343       -3.318957   1.000000
  344       -3.299658   1.000000
  345       -3.299471   1.000000
  346       -3.292985   1.000000
  347       -3.290506   1.000000
  348       -3.289822   1.000000
  349       -3.288541   1.000000
  350       -3.277767   1.000000
  351       -3.266655   1.000000
  352       -3.252106   1.000000
  353       -3.251094   1.000000
  354       -3.244948   1.000000
  355       -3.243092   1.000000
  356       -3.239480   1.000000
  357       -3.238139   1.000000
  358       -3.237061   1.000000
  359       -3.236184   1.000000
  360       -3.234480   1.000000
  361       -3.234291   1.000000
  362       -3.233928   1.000000
  363       -3.224283   1.000000
  364       -3.207650   1.000000
  365       -3.206166   1.000000
  366       -3.199505   1.000000
  367       -3.184035   1.000000
  368       -3.177525   1.000000
  369       -3.174588   1.000000
  370       -3.174072   1.000000
  371       -3.171099   1.000000
  372       -3.170387   1.000000
  373       -3.165820   1.000000
  374       -3.165710   1.000000
  375       -3.165591   1.000000
  376       -3.164630   1.000000
  377       -3.163753   1.000000
  378       -3.163305   1.000000
  379       -3.163183   1.000000
  380       -3.161858   1.000000
  381       -3.161638   1.000000
  382       -3.160670   1.000000
  383       -3.159053   1.000000
  384       -3.155418   1.000000
  385       -3.107264   1.000000
  386       -3.101238   1.000000
  387       -3.097718   1.000000
  388       -3.096054   1.000000
  389       -3.096007   1.000000
  390       -3.095173   1.000000
  391       -3.094989   1.000000
  392       -3.093866   1.000000
  393       -3.093751   1.000000
  394       -3.092458   1.000000
  395       -3.091681   1.000000
  396       -3.062444   1.000000
  397       -3.061874   1.000000
  398       -3.059395   1.000000
  399       -3.058070   1.000000
  400       -3.057925   1.000000
  401       -3.057117   1.000000
  402       -3.050678   1.000000
  403       -2.994765   1.000000
  404       -2.988935   1.000000
  405       -2.985936   1.000000
  406       -2.985770   1.000000
  407       -2.985651   1.000000
  408       -2.985519   1.000000
  409       -2.977047   1.000000
  410       -2.974781   1.000000
  411       -2.974232   1.000000
  412       -2.973321   1.000000
  413       -2.969907   1.000000
  414       -2.964084   1.000000
  415       -2.962657   1.000000
  416       -2.958537   1.000000
  417       -2.958374   1.000000
  418       -2.958074   1.000000
  419       -2.957553   1.000000
  420       -2.956494   1.000000
  421       -2.945226   1.000000
  422       -2.939142   1.000000
  423       -2.938771   1.000000
  424       -2.936903   1.000000
  425       -2.936157   1.000000
  426       -2.934984   1.000000
  427       -2.925083   1.000000
  428       -2.917405   1.000000
  429       -2.916621   1.000000
  430       -2.915042   1.000000
  431       -2.913885   1.000000
  432       -2.913526   1.000000
  433       -2.913356   1.000000
  434       -2.913323   1.000000
  435       -2.913014   1.000000
  436       -2.912824   1.000000
  437       -2.912284   1.000000
  438       -2.912174   1.000000
  439       -2.911611   1.000000
  440       -2.911363   1.000000
  441       -2.910588   1.000000
  442       -2.910311   1.000000
  443       -2.899077   1.000000
  444       -2.886873   1.000000
  445       -2.866945   1.000000
  446       -2.861880   1.000000
  447       -2.850512   1.000000
  448       -2.848824   1.000000
  449       -2.848557   1.000000
  450       -2.848260   1.000000
  451       -2.847813   1.000000
  452       -2.845024   1.000000
  453       -2.842841   1.000000
  454       -2.842764   1.000000
  455       -2.842273   1.000000
  456       -2.841183   1.000000
  457       -2.840764   1.000000
  458       -2.840347   1.000000
  459       -2.840061   1.000000
  460       -2.839847   1.000000
  461       -2.839719   1.000000
  462       -2.839576   1.000000
  463       -2.838180   1.000000
  464       -2.837884   1.000000
  465       -2.822121   1.000000
  466       -2.807648   1.000000
  467       -2.793133   1.000000
  468       -2.789706   1.000000
  469       -2.787035   1.000000
  470       -2.786424   1.000000
  471       -2.765835   1.000000
  472       -2.765573   1.000000
  473       -2.759682   1.000000
  474       -2.756921   1.000000
  475       -2.756182   1.000000
  476       -2.756062   1.000000
  477       -2.755549   1.000000
  478       -2.755191   1.000000
  479       -2.754389   1.000000
  480       -2.753748   1.000000
  481       -2.752584   1.000000
  482       -2.751610   1.000000
  483       -2.750648   1.000000
  484       -2.750512   1.000000
  485       -2.749442   1.000000
  486       -2.748568   1.000000
  487       -2.745148   1.000000
  488       -2.738834   1.000000
  489       -2.737078   1.000000
  490       -2.735727   1.000000
  491       -2.734088   1.000000
  492       -2.733321   1.000000
  493       -2.733017   1.000000
  494       -2.732955   1.000000
  495       -2.732685   1.000000
  496       -2.732388   1.000000
  497       -2.730904   1.000000
  498       -2.730829   1.000000
  499       -2.724887   1.000000
  500       -2.724674   1.000000
  501       -2.718871   1.000000
  502       -2.701250   1.000000
  503       -2.700335   1.000000
  504       -2.698082   1.000000
  505       -2.697783   1.000000
  506       -2.697688   1.000000
  507       -2.692398   1.000000
  508       -2.672121   1.000000
  509       -2.664724   1.000000
  510       -2.663700   1.000000
  511       -2.663054   1.000000
  512       -2.662011   1.000000
  513       -2.659648   1.000000
  514       -2.658237   1.000000
  515       -2.657054   1.000000
  516       -2.643487   1.000000
  517       -2.638453   1.000000
  518       -2.638308   1.000000
  519       -2.629525   1.000000
  520       -2.628627   1.000000
  521       -2.628056   1.000000
  522       -2.622757   1.000000
  523       -2.622427   1.000000
  524       -2.620859   1.000000
  525       -2.617703   1.000000
  526       -2.593168   1.000000
  527       -2.581353   1.000000
  528       -2.574773   1.000000
  529       -2.574435   1.000000
  530       -2.573810   1.000000
  531       -2.571800   1.000000
  532       -2.571454   1.000000
  533       -2.570788   1.000000
  534       -2.570606   1.000000
  535       -2.569785   1.000000
  536       -2.569546   1.000000
  537       -2.568863   1.000000
  538       -2.568544   1.000000
  539       -2.564078   1.000000
  540       -2.564023   1.000000
  541       -2.561804   1.000000
  542       -2.559557   1.000000
  543       -2.559225   1.000000
  544       -2.558539   1.000000
  545       -2.545903   1.000000
  546       -2.543177   1.000000
  547       -2.533214   1.000000
  548       -2.532915   1.000000
  549       -2.532513   1.000000
  550       -2.526179   1.000000
  551       -2.525441   1.000000
  552       -2.523322   1.000000
  553       -2.523052   1.000000
  554       -2.520311   1.000000
  555       -2.518906   1.000000
  556       -2.512554   1.000000
  557       -2.510480   1.000000
  558       -2.506531   1.000000
  559       -2.504933   1.000000
  560       -2.498889   1.000000
  561       -2.498672   1.000000
  562       -2.498499   1.000000
  563       -2.496118   1.000000
  564       -2.494423   1.000000
  565       -2.493953   1.000000
  566       -2.493360   1.000000
  567       -2.493126   1.000000
  568       -2.492948   1.000000
  569       -2.492373   1.000000
  570       -2.491860   1.000000
  571       -2.491530   1.000000
  572       -2.489796   1.000000
  573       -2.489464   1.000000
  574       -2.483456   1.000000
  575       -2.479962   1.000000
  576       -2.468763   1.000000
  577       -2.468403   1.000000
  578       -2.460336   1.000000
  579       -2.456503   1.000000
  580       -2.455175   1.000000
  581       -2.453164   1.000000
  582       -2.450730   1.000000
  583       -2.449976   1.000000
  584       -2.449269   1.000000
  585       -2.447750   1.000000
  586       -2.446754   1.000000
  587       -2.446291   1.000000
  588       -2.435132   1.000000
  589       -2.433234   1.000000
  590       -2.425499   1.000000
  591       -2.425344   1.000000
  592       -2.422770   1.000000
  593       -2.422023   1.000000
  594       -2.417808   1.000000
  595       -2.417043   1.000000
  596       -2.412478   1.000000
  597       -2.405839   1.000000
  598       -2.404184   1.000000
  599       -2.403965   1.000000
  600       -2.403503   1.000000
  601       -2.403101   1.000000
  602       -2.402926   1.000000
  603       -2.402571   1.000000
  604       -2.401572   1.000000
  605       -2.398551   1.000000
  606       -2.398394   1.000000
  607       -2.398324   1.000000
  608       -2.397877   1.000000
  609       -2.397685   1.000000
  610       -2.397156   1.000000
  611       -2.394761   1.000000
  612       -2.392629   1.000000
  613       -2.390701   1.000000
  614       -2.384596   1.000000
  615       -2.358061   1.000000
  616       -2.349077   1.000000
  617       -2.345352   1.000000
  618       -2.336364   1.000000
  619       -2.335817   1.000000
  620       -2.333520   1.000000
  621       -2.329948   1.000000
  622       -2.329405   1.000000
  623       -2.327557   1.000000
  624       -2.326314   1.000000
  625       -2.325968   1.000000
  626       -2.319339   1.000000
  627       -2.302875   1.000000
  628       -2.302416   1.000000
  629       -2.301252   1.000000
  630       -2.300551   1.000000
  631       -2.299915   1.000000
  632       -2.299512   1.000000
  633       -2.299171   1.000000
  634       -2.299154   1.000000
  635       -2.299038   1.000000
  636       -2.298801   1.000000
  637       -2.298528   1.000000
  638       -2.297519   1.000000
  639       -2.281807   1.000000
  640       -2.279861   1.000000
  641       -2.279340   1.000000
  642       -2.278737   1.000000
  643       -2.275896   1.000000
  644       -2.273871   1.000000
  645       -2.268136   1.000000
  646       -2.267914   1.000000
  647       -2.257853   1.000000
  648       -2.257363   1.000000
  649       -2.251469   1.000000
  650       -2.250612   1.000000
  651       -2.249115   1.000000
  652       -2.247000   1.000000
  653       -2.246190   1.000000
  654       -2.245425   1.000000
  655       -2.245004   1.000000
  656       -2.244021   1.000000
  657       -2.242877   1.000000
  658       -2.242122   1.000000
  659       -2.240760   1.000000
  660       -2.236820   1.000000
  661       -2.236510   1.000000
  662       -2.235586   1.000000
  663       -2.234604   1.000000
  664       -2.234186   1.000000
  665       -2.233729   1.000000
  666       -2.232883   1.000000
  667       -2.231625   1.000000
  668       -2.230774   1.000000
  669       -2.230124   1.000000
  670       -2.226843   1.000000
  671       -2.226213   1.000000
  672       -2.223971   1.000000
  673       -2.213175   1.000000
  674       -2.199147   1.000000
  675       -2.196213   1.000000
  676       -2.195493   1.000000
  677       -2.191209   1.000000
  678       -2.189808   1.000000
  679       -2.189600   1.000000
  680       -2.183143   1.000000
  681       -2.181969   1.000000
  682       -2.181829   1.000000
  683       -2.180648   1.000000
  684       -2.180540   1.000000
  685       -2.179602   1.000000
  686       -2.171123   1.000000
  687       -2.161435   1.000000
  688       -2.152912   1.000000
  689       -2.151280   1.000000
  690       -2.143520   1.000000
  691       -2.140851   1.000000
  692       -2.139781   1.000000
  693       -2.139101   1.000000
  694       -2.138539   1.000000
  695       -2.137917   1.000000
  696       -2.136978   1.000000
  697       -2.136046   1.000000
  698       -2.135281   1.000000
  699       -2.132694   1.000000
  700       -2.132206   1.000000
  701       -2.132028   1.000000
  702       -2.131236   1.000000
  703       -2.130971   1.000000
  704       -2.128995   1.000000
  705       -2.128638   1.000000
  706       -2.128199   1.000000
  707       -2.127711   1.000000
  708       -2.127214   1.000000
  709       -2.126539   1.000000
  710       -2.126409   1.000000
  711       -2.126071   1.000000
  712       -2.125664   1.000000
  713       -2.125458   1.000000
  714       -2.125091   1.000000
  715       -2.124792   1.000000
  716       -2.124642   1.000000
  717       -2.123793   1.000000
  718       -2.108131   1.000000
  719       -2.107779   1.000000
  720       -2.107387   1.000000
  721       -2.107221   1.000000
  722       -2.107067   1.000000
  723       -2.106511   1.000000
  724       -2.088334   1.000000
  725       -2.070714   1.000000
  726       -2.057809   1.000000
  727       -2.054759   1.000000
  728       -2.052779   1.000000
  729       -2.052111   1.000000
  730       -2.050096   1.000000
  731       -2.048536   1.000000
  732       -2.048413   1.000000
  733       -2.047585   1.000000
  734       -2.047525   1.000000
  735       -2.047276   1.000000
  736       -2.047195   1.000000
  737       -2.046769   1.000000
  738       -2.046581   1.000000
  739       -2.045783   1.000000
  740       -2.044718   1.000000
  741       -2.023204   1.000000
  742       -2.022833   1.000000
  743       -2.017845   1.000000
  744       -2.011989   1.000000
  745       -2.011776   1.000000
  746       -2.011402   1.000000
  747       -2.010502   1.000000
  748       -2.009292   1.000000
  749       -2.009219   1.000000
  750       -2.008434   1.000000
  751       -2.007575   1.000000
  752       -2.005904   1.000000
  753       -1.999542   1.000000
  754       -1.990936   1.000000
  755       -1.982793   1.000000
  756       -1.968966   1.000000
  757       -1.963820   1.000000
  758       -1.962488   1.000000
  759       -1.956159   1.000000
  760       -1.955270   1.000000
  761       -1.953239   1.000000
  762       -1.952350   1.000000
  763       -1.952254   1.000000
  764       -1.950823   1.000000
  765       -1.949961   1.000000
  766       -1.949885   1.000000
  767       -1.948831   1.000000
  768       -1.948441   1.000000
  769       -1.948070   1.000000
  770       -1.948037   1.000000
  771       -1.947088   1.000000
  772       -1.946872   1.000000
  773       -1.946690   1.000000
  774       -1.946489   1.000000
  775       -1.945689   1.000000
  776       -1.945172   1.000000
  777       -1.930923   1.000000
  778       -1.927344   1.000000
  779       -1.923126   1.000000
  780       -1.918897   1.000000
  781       -1.916811   1.000000
  782       -1.916655   1.000000
  783       -1.910892   1.000000
  784       -1.910702   1.000000
  785       -1.909453   1.000000
  786       -1.909210   1.000000
  787       -1.908924   1.000000
  788       -1.897831   1.000000
  789       -1.896304   1.000000
  790       -1.895882   1.000000
  791       -1.894114   1.000000
  792       -1.891903   1.000000
  793       -1.889773   1.000000
  794       -1.886668   1.000000
  795       -1.875755   1.000000
  796       -1.873728   1.000000
  797       -1.870273   1.000000
  798       -1.868522   1.000000
  799       -1.865552   1.000000
  800       -1.864672   1.000000
  801       -1.860918   1.000000
  802       -1.860607   1.000000
  803       -1.856982   1.000000
  804       -1.849134   1.000000
  805       -1.846925   1.000000
  806       -1.846705   1.000000
  807       -1.844247   1.000000
  808       -1.835228   1.000000
  809       -1.834814   1.000000
  810       -1.831446   1.000000
  811       -1.830044   1.000000
  812       -1.829041   1.000000
  813       -1.827965   1.000000
  814       -1.827352   1.000000
  815       -1.824264   1.000000
  816       -1.811531   1.000000
  817       -1.805915   1.000000
  818       -1.803402   1.000000
  819       -1.802004   1.000000
  820       -1.798893   1.000000
  821       -1.798747   1.000000
  822       -1.795398   1.000000
  823       -1.794817   1.000000
  824       -1.790914   1.000000
  825       -1.790649   1.000000
  826       -1.789644   1.000000
  827       -1.788435   1.000000
  828       -1.787106   1.000000
  829       -1.786370   1.000000
  830       -1.785376   1.000000
  831       -1.783848   1.000000
  832       -1.782733   1.000000
  833       -1.780975   1.000000
  834       -1.780910   1.000000
  835       -1.780439   1.000000
  836       -1.779826   1.000000
  837       -1.779195   1.000000
  838       -1.778938   1.000000
  839       -1.778891   1.000000
  840       -1.777143   1.000000
  841       -1.773386   1.000000
  842       -1.772832   1.000000
  843       -1.772368   1.000000
  844       -1.772298   1.000000
  845       -1.771779   1.000000
  846       -1.765479   1.000000
  847       -1.765299   1.000000
  848       -1.762486   1.000000
  849       -1.759099   1.000000
  850       -1.757736   1.000000
  851       -1.756974   1.000000
  852       -1.748661   1.000000
  853       -1.747890   1.000000
  854       -1.744112   1.000000
  855       -1.737593   1.000000
  856       -1.730951   1.000000
  857       -1.729553   1.000000
  858       -1.727496   1.000000
  859       -1.725456   1.000000
  860       -1.720128   1.000000
  861       -1.716831   1.000000
  862       -1.703927   1.000000
  863       -1.702194   1.000000
  864       -1.701152   1.000000
  865       -1.700654   1.000000
  866       -1.699571   1.000000
  867       -1.699148   1.000000
  868       -1.697341   1.000000
  869       -1.696271   1.000000
  870       -1.676013   1.000000
  871       -1.666699   1.000000
  872       -1.663195   1.000000
  873       -1.661000   1.000000
  874       -1.657403   1.000000
  875       -1.655748   1.000000
  876       -1.655341   1.000000
  877       -1.652911   1.000000
  878       -1.651871   1.000000
  879       -1.651028   1.000000
  880       -1.650270   1.000000
  881       -1.649629   1.000000
  882       -1.646182   1.000000
  883       -1.644330   1.000000
  884       -1.635646   1.000000
  885       -1.634217   1.000000
  886       -1.633754   1.000000
  887       -1.630084   1.000000
  888       -1.612283   1.000000
  889       -1.610719   1.000000
  890       -1.603943   1.000000
  891       -1.603106   1.000000
  892       -1.601728   1.000000
  893       -1.601574   1.000000
  894       -1.600879   1.000000
  895       -1.558014   1.000000
  896       -1.544036   1.000000
  897       -1.542569   1.000000
  898       -1.540842   1.000000
  899       -1.535530   1.000000
  900       -1.532736   1.000000
  901       -1.531992   1.000000