 254 254   0   0
  0.3019211E+02  0.1718057E-08  0.1718057E-08  0.3000000E-08  0.5000000E-15
  1.000000000000000E-004
  CAR 
 NiAl                                    
      5.39159321    -21.65388499  301      1.82868502      1.00000000
    -21.654  0.0000E+00  0.0000E+00
    -21.564  0.0000E+00  0.0000E+00
    -21.474  0.0000E+00  0.0000E+00
    -21.383  0.0000E+00  0.0000E+00
    -21.293  0.0000E+00  0.0000E+00
    -21.203  0.0000E+00  0.0000E+00
    -21.113  0.0000E+00  0.0000E+00
    -21.023  0.0000E+00  0.0000E+00
    -20.933  0.0000E+00  0.0000E+00
    -20.843  0.0000E+00  0.0000E+00
    -20.752  0.0000E+00  0.0000E+00
    -20.662  0.1973E-09  0.1778E-10
    -20.572  0.3331E-03  0.3003E-04
    -20.482  0.1159E+01  0.1045E+00
    -20.392  0.1710E+02  0.1646E+01
    -20.302  0.3923E+01  0.1999E+01
    -20.211  0.5638E-02  0.2000E+01
    -20.121  0.1862E-07  0.2000E+01
    -20.031  0.0000E+00  0.2000E+01
    -19.941  0.0000E+00  0.2000E+01
    -19.851  0.0000E+00  0.2000E+01
    -19.761  0.0000E+00  0.2000E+01
    -19.671  0.0000E+00  0.2000E+01
    -19.580  0.0000E+00  0.2000E+01
    -19.490  0.0000E+00  0.2000E+01
    -19.400  0.0000E+00  0.2000E+01
    -19.310  0.0000E+00  0.2000E+01
    -19.220  0.0000E+00  0.2000E+01
    -19.130  0.0000E+00  0.2000E+01
    -19.039  0.0000E+00  0.2000E+01
    -18.949  0.0000E+00  0.2000E+01
    -18.859  0.0000E+00  0.2000E+01
    -18.769  0.0000E+00  0.2000E+01
    -18.679  0.0000E+00  0.2000E+01
    -18.589  0.0000E+00  0.2000E+01
    -18.499  0.0000E+00  0.2000E+01
    -18.408  0.0000E+00  0.2000E+01
    -18.318  0.0000E+00  0.2000E+01
    -18.228  0.0000E+00  0.2000E+01
    -18.138  0.0000E+00  0.2000E+01
    -18.048  0.0000E+00  0.2000E+01
    -17.958  0.0000E+00  0.2000E+01
    -17.868  0.0000E+00  0.2000E+01
    -17.777  0.0000E+00  0.2000E+01
    -17.687  0.0000E+00  0.2000E+01
    -17.597  0.0000E+00  0.2000E+01
    -17.507  0.0000E+00  0.2000E+01
    -17.417  0.0000E+00  0.2000E+01
    -17.327  0.0000E+00  0.2000E+01
    -17.236  0.0000E+00  0.2000E+01
    -17.146  0.0000E+00  0.2000E+01
    -17.056  0.0000E+00  0.2000E+01
    -16.966  0.0000E+00  0.2000E+01
    -16.876  0.0000E+00  0.2000E+01
    -16.786  0.0000E+00  0.2000E+01
    -16.696  0.0000E+00  0.2000E+01
    -16.605  0.0000E+00  0.2000E+01
    -16.515  0.0000E+00  0.2000E+01
    -16.425  0.0000E+00  0.2000E+01
    -16.335  0.0000E+00  0.2000E+01
    -16.245  0.0000E+00  0.2000E+01
    -16.155  0.0000E+00  0.2000E+01
    -16.064  0.0000E+00  0.2000E+01
    -15.974  0.0000E+00  0.2000E+01
    -15.884  0.0000E+00  0.2000E+01
    -15.794  0.0000E+00  0.2000E+01
    -15.704  0.0000E+00  0.2000E+01
    -15.614  0.0000E+00  0.2000E+01
    -15.524  0.0000E+00  0.2000E+01
    -15.433  0.0000E+00  0.2000E+01
    -15.343  0.0000E+00  0.2000E+01
    -15.253  0.0000E+00  0.2000E+01
    -15.163  0.0000E+00  0.2000E+01
    -15.073  0.0000E+00  0.2000E+01
    -14.983  0.0000E+00  0.2000E+01
    -14.893  0.0000E+00  0.2000E+01
    -14.802  0.0000E+00  0.2000E+01
    -14.712  0.0000E+00  0.2000E+01
    -14.622  0.0000E+00  0.2000E+01
    -14.532  0.0000E+00  0.2000E+01
    -14.442  0.0000E+00  0.2000E+01
    -14.352  0.0000E+00  0.2000E+01
    -14.261  0.0000E+00  0.2000E+01
    -14.171  0.0000E+00  0.2000E+01
    -14.081  0.0000E+00  0.2000E+01
    -13.991  0.0000E+00  0.2000E+01
    -13.901  0.0000E+00  0.2000E+01
    -13.811  0.0000E+00  0.2000E+01
    -13.721  0.0000E+00  0.2000E+01
    -13.630  0.0000E+00  0.2000E+01
    -13.540  0.0000E+00  0.2000E+01
    -13.450  0.0000E+00  0.2000E+01
    -13.360  0.0000E+00  0.2000E+01
    -13.270  0.0000E+00  0.2000E+01
    -13.180  0.0000E+00  0.2000E+01
    -13.089  0.0000E+00  0.2000E+01
    -12.999  0.0000E+00  0.2000E+01
    -12.909  0.0000E+00  0.2000E+01
    -12.819  0.0000E+00  0.2000E+01
    -12.729  0.0000E+00  0.2000E+01
    -12.639  0.0000E+00  0.2000E+01
    -12.549  0.0000E+00  0.2000E+01
    -12.458  0.0000E+00  0.2000E+01
    -12.368  0.0000E+00  0.2000E+01
    -12.278  0.0000E+00  0.2000E+01
    -12.188  0.0000E+00  0.2000E+01
    -12.098  0.0000E+00  0.2000E+01
    -12.008  0.0000E+00  0.2000E+01
    -11.918  0.0000E+00  0.2000E+01
    -11.827  0.0000E+00  0.2000E+01
    -11.737  0.0000E+00  0.2000E+01
    -11.647  0.0000E+00  0.2000E+01
    -11.557  0.0000E+00  0.2000E+01
    -11.467  0.0000E+00  0.2000E+01
    -11.377  0.0000E+00  0.2000E+01
    -11.286  0.0000E+00  0.2000E+01
    -11.196  0.0000E+00  0.2000E+01
    -11.106  0.0000E+00  0.2000E+01
    -11.016  0.0000E+00  0.2000E+01
    -10.926  0.0000E+00  0.2000E+01
    -10.836  0.0000E+00  0.2000E+01
    -10.746  0.0000E+00  0.2000E+01
    -10.655  0.0000E+00  0.2000E+01
    -10.565  0.0000E+00  0.2000E+01
    -10.475  0.0000E+00  0.2000E+01
    -10.385  0.0000E+00  0.2000E+01
    -10.295  0.0000E+00  0.2000E+01
    -10.205  0.0000E+00  0.2000E+01
    -10.114  0.0000E+00  0.2000E+01
    -10.024  0.0000E+00  0.2000E+01
     -9.934  0.0000E+00  0.2000E+01
     -9.844  0.0000E+00  0.2000E+01
     -9.754  0.0000E+00  0.2000E+01
     -9.664  0.0000E+00  0.2000E+01
     -9.574  0.0000E+00  0.2000E+01
     -9.483  0.0000E+00  0.2000E+01
     -9.393  0.3294E-13  0.2000E+01
     -9.303  0.7125E-06  0.2000E+01
     -9.213  0.3646E-01  0.2003E+01
     -9.123  0.7846E+01  0.2711E+01
     -9.033  0.1948E+02  0.4466E+01
     -8.943  0.2087E+02  0.6348E+01
     -8.852  0.1275E+02  0.7498E+01
     -8.762  0.3216E+01  0.7788E+01
     -8.672  0.5524E+01  0.8286E+01
     -8.582  0.4914E+02  0.1272E+02
     -8.492  0.1892E+02  0.1442E+02
     -8.402  0.2626E+02  0.1679E+02
     -8.311  0.6419E+01  0.1737E+02
     -8.221  0.2641E+02  0.1975E+02
     -8.131  0.1263E+02  0.2089E+02
     -8.041  0.2855E+02  0.2346E+02
     -7.951  0.5583E+02  0.2849E+02
     -7.861  0.4400E+02  0.3246E+02
     -7.771  0.4623E+00  0.3250E+02
     -7.680  0.8002E+01  0.3322E+02
     -7.590  0.9171E+02  0.4149E+02
     -7.500  0.3992E+02  0.4509E+02
     -7.410  0.2264E+02  0.4713E+02
     -7.320  0.1196E+02  0.4821E+02
     -7.230  0.3198E+02  0.5109E+02
     -7.139  0.3329E+02  0.5409E+02
     -7.049  0.3525E+02  0.5727E+02
     -6.959  0.7172E+02  0.6374E+02
     -6.869  0.6710E+02  0.6979E+02
     -6.779  0.3877E+02  0.7328E+02
     -6.689  0.3241E+02  0.7620E+02
     -6.599  0.8951E+02  0.8427E+02
     -6.508  0.3562E+02  0.8748E+02
     -6.418  0.3398E+02  0.9055E+02
     -6.328  0.1503E+02  0.9190E+02
     -6.238  0.2992E+01  0.9217E+02
     -6.148  0.4765E+02  0.9647E+02
     -6.058  0.9704E+02  0.1052E+03
     -5.968  0.9106E+02  0.1134E+03
     -5.877  0.6341E+02  0.1191E+03
     -5.787  0.3292E+02  0.1221E+03
     -5.697  0.4155E+02  0.1259E+03
     -5.607  0.1110E+03  0.1359E+03
     -5.517  0.6289E+02  0.1415E+03
     -5.427  0.3481E+02  0.1447E+03
     -5.336  0.2628E+02  0.1470E+03
     -5.246  0.6841E+02  0.1532E+03
     -5.156  0.3670E+02  0.1565E+03
     -5.066  0.8252E+02  0.1640E+03
     -4.976  0.8243E+02  0.1714E+03
     -4.886  0.4819E+02  0.1757E+03
     -4.796  0.1790E+02  0.1773E+03
     -4.705  0.6229E+02  0.1830E+03
     -4.615  0.1270E+03  0.1944E+03
     -4.525  0.5584E+02  0.1994E+03
     -4.435  0.5607E+02  0.2045E+03
     -4.345  0.3439E+02  0.2076E+03
     -4.255  0.7031E+02  0.2139E+03
     -4.164  0.1014E+03  0.2231E+03
     -4.074  0.1151E+03  0.2335E+03
     -3.984  0.9619E+02  0.2421E+03
     -3.894  0.2800E+02  0.2447E+03
     -3.804  0.7579E+02  0.2515E+03
     -3.714  0.6477E+02  0.2573E+03
     -3.624  0.9993E+02  0.2663E+03
     -3.533  0.5111E+02  0.2709E+03
     -3.443  0.5531E+02  0.2759E+03
     -3.353  0.1575E+02  0.2773E+03
     -3.263  0.2352E+02  0.2795E+03
     -3.173  0.9084E+02  0.2877E+03
     -3.083  0.8980E+02  0.2957E+03
     -2.993  0.1121E+03  0.3059E+03
     -2.902  0.7695E+02  0.3128E+03
     -2.812  0.1422E+03  0.3256E+03
     -2.722  0.1838E+03  0.3422E+03
     -2.632  0.7244E+02  0.3487E+03
     -2.542  0.6307E+01  0.3493E+03
     -2.452  0.1843E+02  0.3509E+03
     -2.361  0.6117E+02  0.3565E+03
     -2.271  0.1178E+03  0.3671E+03
     -2.181  0.9284E+02  0.3754E+03
     -2.091  0.1010E+03  0.3845E+03
     -2.001  0.4916E+02  0.3890E+03
     -1.911  0.5781E+02  0.3942E+03
     -1.821  0.1088E+03  0.4040E+03
     -1.730  0.1557E+03  0.4180E+03
     -1.640  0.4688E+02  0.4223E+03
     -1.550  0.5816E+02  0.4275E+03
     -1.460  0.7666E+02  0.4344E+03
     -1.370  0.6996E+02  0.4407E+03
     -1.280  0.1850E+03  0.4574E+03
     -1.189  0.9634E+02  0.4661E+03
     -1.099  0.1086E+03  0.4759E+03
     -1.009  0.7200E+02  0.4824E+03
     -0.919  0.6982E+02  0.4887E+03
     -0.829  0.1338E+03  0.5007E+03
     -0.739  0.9103E+02  0.5089E+03
     -0.649  0.6652E+02  0.5149E+03
     -0.558  0.2968E+02  0.5176E+03
     -0.468  0.1074E+03  0.5273E+03
     -0.378  0.2115E+03  0.5464E+03
     -0.288  0.8411E+02  0.5539E+03
     -0.198  0.1461E+03  0.5671E+03
     -0.108  0.5653E+02  0.5722E+03
     -0.018  0.3181E+02  0.5751E+03
      0.073  0.8293E+02  0.5825E+03
      0.163  0.8781E+02  0.5905E+03
      0.253  0.1068E+03  0.6001E+03
      0.343  0.7658E+02  0.6070E+03
      0.433  0.7568E+02  0.6138E+03
      0.523  0.1505E+03  0.6274E+03
      0.614  0.7151E+02  0.6338E+03
      0.704  0.6955E+02  0.6401E+03
      0.794  0.3745E+02  0.6435E+03
      0.884  0.6450E+02  0.6493E+03
      0.974  0.1840E+03  0.6659E+03
      1.064  0.2138E+03  0.6851E+03
      1.154  0.1146E+03  0.6955E+03
      1.245  0.8091E+02  0.7028E+03
      1.335  0.6355E+02  0.7085E+03
      1.425  0.9187E+02  0.7168E+03
      1.515  0.9980E+02  0.7258E+03
      1.605  0.1523E+03  0.7395E+03
      1.695  0.1784E+03  0.7556E+03
      1.786  0.9065E+02  0.7638E+03
      1.876  0.5333E+02  0.7686E+03
      1.966  0.1206E+03  0.7794E+03
      2.056  0.1451E+03  0.7925E+03
      2.146  0.7537E+02  0.7993E+03
      2.236  0.8634E+02  0.8071E+03
      2.326  0.6984E+02  0.8134E+03
      2.417  0.9429E+02  0.8219E+03
      2.507  0.9001E+02  0.8300E+03
      2.597  0.1105E+03  0.8400E+03
      2.687  0.1327E+03  0.8519E+03
      2.777  0.7536E+02  0.8587E+03
      2.867  0.8750E+02  0.8666E+03
      2.958  0.2705E+03  0.8910E+03
      3.048  0.2040E+03  0.9094E+03
      3.138  0.8813E+02  0.9173E+03
      3.228  0.7221E+02  0.9238E+03
      3.318  0.1063E+03  0.9334E+03
      3.408  0.1357E+03  0.9457E+03
      3.498  0.1341E+03  0.9578E+03
      3.589  0.9575E+02  0.9664E+03
      3.679  0.9542E+02  0.9750E+03
      3.769  0.1032E+03  0.9843E+03
      3.859  0.6480E+02  0.9901E+03
      3.949  0.1367E+03  0.1002E+04
      4.039  0.1737E+03  0.1018E+04
      4.129  0.1139E+03  0.1028E+04
      4.220  0.3928E+02  0.1032E+04
      4.310  0.8760E+00  0.1032E+04
      4.400  0.1430E-03  0.1032E+04
      4.490  0.6466E-10  0.1032E+04
      4.580  0.0000E+00  0.1032E+04
      4.670  0.0000E+00  0.1032E+04
      4.761  0.0000E+00  0.1032E+04
      4.851  0.0000E+00  0.1032E+04
      4.941  0.0000E+00  0.1032E+04
      5.031  0.0000E+00  0.1032E+04
      5.121  0.0000E+00  0.1032E+04
      5.211  0.0000E+00  0.1032E+04
      5.301  0.0000E+00  0.1032E+04
      5.392  0.0000E+00  0.1032E+04
