 vasp.5.4.4.18Apr17-6-g9f103f2a35 (build May 02 2017 15:33:50) complex          
  
 executed on Intel-16.0.3.210-OMP date 2018.08.08  18:25:22
 running on    6 total cores
 distrk:  each k-point on    6 cores,    1 groups
 distr:  one band on NCORES_PER_BAND=   1 cores,    6 groups


--------------------------------------------------------------------------------------------------------


 INCAR:
 POTCAR:    PAW Al_GW 19Mar2012                   
 POTCAR:    PAW_PBE N 08Apr2002                   

 ----------------------------------------------------------------------------- 
|                                                                             |
|           W    W    AA    RRRRR   N    N  II  N    N   GGGG   !!!           |
|           W    W   A  A   R    R  NN   N  II  NN   N  G    G  !!!           |
|           W    W  A    A  R    R  N N  N  II  N N  N  G       !!!           |
|           W WW W  AAAAAA  RRRRR   N  N N  II  N  N N  G  GGG   !            |
|           WW  WW  A    A  R   R   N   NN  II  N   NN  G    G                |
|           W    W  A    A  R    R  N    N  II  N    N   GGGG   !!!           |
|                                                                             |
|      For optimal performance we recommend to set                            |
|        NCORE= 4 - approx SQRT( number of cores)                             |
|      NCORE specifies how many cores store one orbital (NPAR=cpu/NCORE).     |
|      This setting can  greatly improve the performance of VASP for DFT.     |
|      The default,   NCORE=1            might be grossly inefficient         |
|      on modern multi-core architectures or massively parallel machines.     |
|      Do your own testing !!!!                                               |
|      Unfortunately you need to use the default for GW and RPA calculations. |
|      (for HF NCORE is supported but not extensively tested yet)             |
|                                                                             |
 ----------------------------------------------------------------------------- 

 POTCAR:    PAW Al_GW 19Mar2012                   
   VRHFIN =Al: s2p1                                                             
   LEXCH  = PE                                                                  
   EATOM  =    53.5387 eV,    3.9350 Ry                                         
                                                                                
   TITEL  = PAW Al_GW 19Mar2012                                                 
   LULTRA =        F    use ultrasoft PP ?                                      
   IUNSCR =        1    unscreen: 0-lin 1-nonlin 2-no                           
   RPACOR =    1.500    partial core radius                                     
   POMASS =   26.982; ZVAL   =    3.000    mass and valenz                      
   RCORE  =    2.000    outmost cutoff radius                                   
   RWIGS  =    2.000; RWIGS  =    1.058    wigner-seitz radius (au A)           
   ENMAX  =  240.300; ENMIN  =  180.225 eV                                      
   ICORE  =        3    local potential                                         
   LCOR   =        T    correct aug charges                                     
   LPAW   =        T    paw PP                                                  
   EAUG   =  482.059                                                            
   DEXC   =    0.000                                                            
   RMAX   =    2.051    core radius for proj-oper                               
   RAUG   =    1.300    factor for augmentation sphere                          
   RDEP   =    2.096    radius for radial grids                                 
   RDEPT  =    1.856    core radius for aug-charge                              
                                                                                
   Atomic configuration                                                         
    7 entries                                                                   
     n  l   j            E        occ.                                          
     1  0  0.50     -1511.1048   2.0000                                         
     2  0  0.50      -108.1629   2.0000                                         
     2  1  1.50       -69.6402   6.0000                                         
     3  0  0.50        -7.7528   2.0000                                         
     3  1  1.50        -2.7121   1.0000                                         
     3  2  2.50        -2.7212   0.0000                                         
     4  3  2.50        -2.7212   0.0000                                         
   Description                                                                  
     l       E           TYP  RCUT    TYP  RCUT                                 
     0     -7.7528455     23  1.900                                             
     0     68.0291300     23  1.900                                             
     1     -2.7120682     23  1.900                                             
     1     68.0291300     23  1.900                                             
     2     -1.3605826     23  1.900                                             
     2     81.6349560     23  1.900                                             
     3     74.8320430     23  2.000                                             
  local pseudopotential read in
  partial core-charges read in
  partial kinetic energy density read in
  kinetic energy density of atom read in
  atomic valenz-charges read in
  non local Contribution for L=           0  read in
    real space projection operators read in
  non local Contribution for L=           0  read in
    real space projection operators read in
  non local Contribution for L=           1  read in
    real space projection operators read in
  non local Contribution for L=           1  read in
    real space projection operators read in
  non local Contribution for L=           2  read in
    real space projection operators read in
  non local Contribution for L=           2  read in
    real space projection operators read in
    PAW grid and wavefunctions read in
 
   number of l-projection  operators is LMAX  =           6
   number of lm-projection operators is LMMAX =          18
 
 POTCAR:    PAW_PBE N 08Apr2002                   
   VRHFIN =N: s2p3                                                              
   LEXCH  = PE                                                                  
   EATOM  =   264.5486 eV,   19.4438 Ry                                         
                                                                                
   TITEL  = PAW_PBE N 08Apr2002                                                 
   LULTRA =        F    use ultrasoft PP ?                                      
   IUNSCR =        1    unscreen: 0-lin 1-nonlin 2-no                           
   RPACOR =    1.200    partial core radius                                     
   POMASS =   14.001; ZVAL   =    5.000    mass and valenz                      
   RCORE  =    1.500    outmost cutoff radius                                   
   RWIGS  =    1.400; RWIGS  =    0.741    wigner-seitz radius (au A)           
   ENMAX  =  400.000; ENMIN  =  300.000 eV                                      
   ICORE  =        2    local potential                                         
   LCOR   =        T    correct aug charges                                     
   LPAW   =        T    paw PP                                                  
   EAUG   =  627.112                                                            
   DEXC   =    0.000                                                            
   RMAX   =    1.529    core radius for proj-oper                               
   RAUG   =    1.300    factor for augmentation sphere                          
   RDEP   =    1.514    radius for radial grids                                 
   RDEPT  =    1.338    core radius for aug-charge                              
                                                                                
   Atomic configuration                                                         
    4 entries                                                                   
     n  l   j            E        occ.                                          
     1  0  0.50      -384.7179   2.0000                                         
     2  0  0.50       -18.5828   2.0000                                         
     2  1  0.50        -7.0898   3.0000                                         
     3  2  1.50        -6.8029   0.0000                                         
   Description                                                                  
     l       E           TYP  RCUT    TYP  RCUT                                 
     0    -18.5828119     23  1.200                                             
     0    -13.5018863     23  1.200                                             
     1     -7.0897853     23  1.500                                             
     1      9.5240782     23  1.500                                             
     2     -6.8029130      7  1.500                                             
  local pseudopotential read in
  partial core-charges read in
  partial kinetic energy density read in
  atomic valenz-charges read in
  non local Contribution for L=           0  read in
    real space projection operators read in
  non local Contribution for L=           0  read in
    real space projection operators read in
  non local Contribution for L=           1  read in
    real space projection operators read in
  non local Contribution for L=           1  read in
    real space projection operators read in
    PAW grid and wavefunctions read in
 
   number of l-projection  operators is LMAX  =           4
   number of lm-projection operators is LMMAX =           8
 
 Optimization of the real space projectors (new method)

 maximal supplied QI-value         = 18.90
 optimisation between [QCUT,QGAM] = [  8.69, 17.57] = [ 21.16, 86.49] Ry 
 Optimized for a Real-space Cutoff    1.59 Angstroem

   l    n(q)    QCUT    max X(q) W(low)/X(q) W(high)/X(q)  e(spline) 
   0      8     8.693    11.519    0.12E-03    0.31E-04    0.21E-06
   0      8     8.693     5.834    0.89E-04    0.32E-04    0.16E-06
   1      8     8.693    10.132    0.25E-03    0.39E-03    0.25E-06
   1      8     8.693     3.004    0.16E-03    0.27E-03    0.22E-06
   2      7     8.693     3.169    0.39E-03    0.93E-03    0.44E-06
   2      7     8.693     1.605    0.70E-04    0.91E-04    0.19E-06
 Optimization of the real space projectors (new method)

 maximal supplied QI-value         = 25.13
 optimisation between [QCUT,QGAM] = [  8.80, 17.59] = [ 21.67, 86.68] Ry 
 Optimized for a Real-space Cutoff    2.14 Angstroem

   l    n(q)    QCUT    max X(q) W(low)/X(q) W(high)/X(q)  e(spline) 
   0     11     8.797    79.467    0.70E-04    0.19E-04    0.19E-05
   0     11     8.797    66.151    0.68E-04    0.18E-04    0.19E-05
   1     11     8.797     6.738    0.26E-03    0.11E-02    0.73E-05
   1     11     8.797     5.013    0.25E-03    0.11E-02    0.72E-05
  PAW Al_GW 19Mar2012                   :
 energy of atom  1       EATOM=  -53.5387
 kinetic energy error for atom=    0.0011 (will be added to EATOM!!)
  PAW_PBE N 08Apr2002                   :
 energy of atom  2       EATOM= -264.5486
 kinetic energy error for atom=    0.6882 (will be added to EATOM!!)
 
 
 POSCAR: New structure                           
  positions in cartesian coordinates
  No initial velocities read in
 exchange correlation table for  LEXCH =        8
   RHO(1)=    0.500       N(1)  =     2000
   RHO(2)=  100.500       N(2)  =     4000
 


--------------------------------------------------------------------------------------------------------


 ion  position               nearest neighbor table
   1  0.444  0.444  0.079-
   2  0.444  0.778  0.079-
   3  0.444  0.111  0.079-
   4  0.778  0.444  0.079-
   5  0.778  0.778  0.079-
   6  0.778  0.111  0.079-
   7  0.111  0.444  0.079-
   8  0.111  0.778  0.079-
   9  0.111  0.111  0.079-
  10  0.556  0.556  0.157-
  11  0.556  0.889  0.157-
  12  0.556  0.222  0.157-
  13  0.889  0.556  0.157-
  14  0.889  0.889  0.157-
  15  0.889  0.222  0.157-
  16  0.222  0.556  0.157-
  17  0.222  0.889  0.157-
  18  0.222  0.222  0.157-
  19  0.667  0.667  0.234-
  20  0.667  0.000  0.234-
  21  0.667  0.333  0.234-
  22  0.000  0.667  0.234-
  23  0.000  0.000  0.234-
  24  0.000  0.333  0.234-
  25  0.333  0.667  0.234-
  26  0.333  0.000  0.234-
  27  0.333  0.333  0.234-
  28  0.778  0.778  0.312-
  29  0.778  0.111  0.312-
  30  0.778  0.444  0.312-
  31  0.111  0.778  0.312-
  32  0.111  0.111  0.312-
  33  0.111  0.444  0.312-
  34  0.444  0.778  0.312-
  35  0.444  0.111  0.312-
  36  0.444  0.444  0.312-
  37  0.889  0.889  0.390-
  38  0.889  0.222  0.390-
  39  0.889  0.556  0.390-
  40  0.222  0.889  0.390-
  41  0.222  0.222  0.390-
  42  0.222  0.556  0.390-
  43  0.556  0.889  0.390-
  44  0.556  0.222  0.390-
  45  0.556  0.556  0.390-
  46  0.000  0.000  0.466-
  47  0.000  0.333  0.466-
  48  0.000  0.667  0.466-
  49  0.333  0.000  0.466-
  50  0.333  0.333  0.466-
  51  0.333  0.667  0.466-
  52  0.667  0.000  0.466-
  53  0.667  0.333  0.466-
  54  0.667  0.667  0.466-
  55  0.111  0.111  0.545-
  56  0.111  0.444  0.545-
  57  0.111  0.778  0.545-
  58  0.444  0.111  0.545-
  59  0.444  0.444  0.545-
  60  0.444  0.778  0.545-
  61  0.778  0.111  0.545-
  62  0.778  0.444  0.545-
  63  0.778  0.778  0.545-
  64  0.278  0.278  0.079-
  65  0.278  0.611  0.079-
  66  0.278  0.944  0.079-
  67  0.611  0.278  0.079-
  68  0.611  0.611  0.079-
  69  0.611  0.944  0.079-
  70  0.944  0.278  0.079-
  71  0.944  0.611  0.079-
  72  0.944  0.944  0.079-
  73  0.389  0.389  0.157-
  74  0.389  0.722  0.157-
  75  0.389  0.056  0.157-
  76  0.722  0.389  0.157-
  77  0.722  0.722  0.157-
  78  0.722  0.056  0.157-
  79  0.056  0.389  0.157-
  80  0.056  0.722  0.157-
  81  0.056  0.056  0.157-
  82  0.500  0.500  0.234-
  83  0.500  0.833  0.234-
  84  0.500  0.167  0.234-
  85  0.833  0.500  0.234-
  86  0.833  0.833  0.234-
  87  0.833  0.167  0.234-
  88  0.167  0.500  0.234-
  89  0.167  0.833  0.234-
  90  0.167  0.167  0.234-
  91  0.611  0.611  0.312-
  92  0.611  0.944  0.312-
  93  0.611  0.278  0.312-
  94  0.944  0.611  0.312-
  95  0.944  0.944  0.312-
  96  0.944  0.278  0.312-
  97  0.278  0.611  0.312-
  98  0.278  0.944  0.312-
  99  0.278  0.278  0.312-
 100  0.722  0.722  0.390-
 101  0.722  0.056  0.390-
 102  0.722  0.389  0.390-
 103  0.056  0.722  0.390-
 104  0.056  0.056  0.390-
 105  0.056  0.389  0.390-
 106  0.389  0.722  0.390-
 107  0.389  0.056  0.390-
 108  0.389  0.389  0.390-
 109  0.833  0.833  0.466-
 110  0.833  0.167  0.466-
 111  0.833  0.500  0.466-
 112  0.167  0.833  0.466-
 113  0.167  0.167  0.466-
 114  0.167  0.500  0.466-
 115  0.500  0.833  0.466-
 116  0.500  0.167  0.466-
 117  0.500  0.500  0.466-
 118  0.944  0.944  0.545-
 119  0.944  0.278  0.545-
 120  0.944  0.611  0.545-
 121  0.278  0.944  0.545-
 122  0.278  0.278  0.545-
 123  0.278  0.611  0.545-
 124  0.611  0.944  0.545-
 125  0.611  0.278  0.545-
 126  0.611  0.611  0.545-
 127  0.278  0.444  0.079-
 128  0.278  0.778  0.079-
 129  0.278  0.111  0.079-
 130  0.611  0.444  0.079-
 131  0.611  0.778  0.079-
 132  0.611  0.111  0.079-
 133  0.944  0.444  0.079-
 134  0.944  0.778  0.079-
 135  0.944  0.111  0.079-
 136  0.389  0.556  0.157-
 137  0.389  0.889  0.157-
 138  0.389  0.222  0.157-
 139  0.722  0.556  0.157-
 140  0.722  0.889  0.157-
 141  0.722  0.222  0.157-
 142  0.056  0.556  0.157-
 143  0.056  0.889  0.157-
 144  0.056  0.222  0.157-
 145  0.500  0.667  0.234-
 146  0.500  0.000  0.234-
 147  0.500  0.333  0.234-
 148  0.833  0.667  0.234-
 149  0.833  0.000  0.234-
 150  0.833  0.333  0.234-
 151  0.167  0.667  0.234-
 152  0.167  0.000  0.234-
 153  0.167  0.333  0.234-
 154  0.611  0.778  0.312-
 155  0.611  0.111  0.312-
 156  0.611  0.444  0.312-
 157  0.944  0.778  0.312-
 158  0.944  0.111  0.312-
 159  0.944  0.444  0.312-
 160  0.278  0.778  0.312-
 161  0.278  0.111  0.312-
 162  0.278  0.444  0.312-
 163  0.722  0.889  0.390-
 164  0.722  0.222  0.390-
 165  0.722  0.556  0.390-
 166  0.056  0.889  0.390-
 167  0.056  0.222  0.390-
 168  0.056  0.556  0.390-
 169  0.389  0.889  0.390-
 170  0.389  0.222  0.390-
 171  0.389  0.556  0.390-
 172  0.833  0.000  0.466-
 173  0.833  0.333  0.466-
 174  0.833  0.667  0.466-
 175  0.167  0.000  0.466-
 176  0.167  0.333  0.466-
 177  0.167  0.667  0.466-
 178  0.500  0.000  0.466-
 179  0.500  0.333  0.466-
 180  0.500  0.667  0.466-
 181  0.944  0.111  0.545-
 182  0.944  0.444  0.545-
 183  0.944  0.778  0.545-
 184  0.278  0.111  0.545-
 185  0.278  0.444  0.545-
 186  0.278  0.778  0.545-
 187  0.611  0.111  0.545-
 188  0.611  0.444  0.545-
 189  0.611  0.778  0.545-
 190  0.444  0.278  0.079-
 191  0.444  0.611  0.079-
 192  0.444  0.944  0.079-
 193  0.778  0.278  0.079-
 194  0.778  0.611  0.079-
 195  0.778  0.944  0.079-
 196  0.111  0.278  0.079-
 197  0.111  0.611  0.079-
 198  0.111  0.944  0.079-
 199  0.556  0.389  0.157-
 200  0.556  0.722  0.157-
 201  0.556  0.056  0.157-
 202  0.889  0.389  0.157-
 203  0.889  0.722  0.157-
 204  0.889  0.056  0.157-
 205  0.222  0.389  0.157-
 206  0.222  0.722  0.157-
 207  0.222  0.056  0.157-
 208  0.667  0.500  0.234-
 209  0.667  0.833  0.234-
 210  0.667  0.167  0.234-
 211  1.000  0.500  0.234-
 212  1.000  0.833  0.234-
 213  1.000  0.167  0.234-
 214  0.333  0.500  0.234-
 215  0.333  0.833  0.234-
 216  0.333  0.167  0.234-
 217  0.778  0.611  0.312-
 218  0.778  0.944  0.312-
 219  0.778  0.278  0.312-
 220  0.111  0.611  0.312-
 221  0.111  0.944  0.312-
 222  0.111  0.278  0.312-
 223  0.444  0.611  0.312-
 224  0.444  0.944  0.312-
 225  0.444  0.278  0.312-
 226  0.889  0.722  0.390-
 227  0.889  0.056  0.390-
 228  0.889  0.389  0.390-
 229  0.222  0.722  0.390-
 230  0.222  0.056  0.390-
 231  0.222  0.389  0.390-
 232  0.556  0.722  0.390-
 233  0.556  0.056  0.390-
 234  0.556  0.389  0.390-
 235  1.000  0.833  0.466-
 236  1.000  0.167  0.466-
 237  1.000  0.500  0.466-
 238  0.333  0.833  0.466-
 239  0.333  0.167  0.466-
 240  0.333  0.500  0.466-
 241  0.667  0.833  0.466-
 242  0.667  0.167  0.466-
 243  0.667  0.500  0.466-
 244  0.111  0.944  0.545-
 245  0.111  0.278  0.545-
 246  0.111  0.611  0.545-
 247  0.444  0.944  0.545-
 248  0.444  0.278  0.545-
 249  0.444  0.611  0.545-
 250  0.778  0.944  0.545-
 251  0.778  0.278  0.545-
 252  0.778  0.611  0.545-
 253  0.340  0.487  0.601- 254 1.25
 254  0.382  0.402  0.601- 253 1.25
 
  LATTYP: Found a hexagonal cell.
 ALAT       =    17.1805734625
 C/A-ratio  =     1.7461582447
  
  Lattice vectors:
  
 A1 = (   0.0000000000,  -8.5902867312,  14.8788130701)
 A2 = (   0.0000000000,  17.1805734625,   0.0000000000)
 A3 = ( -30.0000000000,   0.0000000000,   0.0000000000)


Analysis of symmetry for initial positions (statically):
=====================================================================
 Subroutine PRICEL returns:
 Original cell was already a primitive cell.
 

 Routine SETGRP: Setting up the symmetry group for a 
 hexagonal supercell.


 Subroutine GETGRP returns: Found  2 space group operations
 (whereof  1 operations were pure point group operations)
 out of a pool of 24 trial point group operations.


The static configuration has the point symmetry C_1 .
 The point group associated with its full space group is C_1h.


Analysis of symmetry for dynamics (positions and initial velocities):
=====================================================================
 Subroutine PRICEL returns:
 Original cell was already a primitive cell.
 

 Routine SETGRP: Setting up the symmetry group for a 
 hexagonal supercell.


 Subroutine GETGRP returns: Found  2 space group operations
 (whereof  1 operations were pure point group operations)
 out of a pool of 24 trial point group operations.


The dynamic configuration has the point symmetry C_1 .
 The point group associated with its full space group is C_1h.


 Subroutine INISYM returns: Found  2 space group operations
 (whereof  1 operations are pure point group operations),
 and found     1 'primitive' translations

 
 
 KPOINTS: Automatic generation                    

Automatic generation of k-mesh.
Space group operators:
 irot       det(A)        alpha          n_x          n_y          n_z        tau_x        tau_y        tau_z
    1     1.000000     0.000000     1.000000     0.000000     0.000000     0.000000     0.000000     0.000000
    2    -1.000000   180.000000     0.000000     1.000000     0.000000    -0.833333     0.000000     0.000000
 
 Subroutine IBZKPT returns following result:
 ===========================================
 
 Found      3 irreducible k-points:
 
 Following reciprocal coordinates:
            Coordinates               Weight
  0.000000  0.000000  0.000000      1.000000
  0.500000  0.000000  0.000000      2.000000
  0.000000  0.500000  0.000000      1.000000
 
 Following cartesian coordinates:
            Coordinates               Weight
  0.000000  0.000000  0.000000      1.000000
  0.000000 -0.029103  0.016802      2.000000
  0.000000  0.000000 -0.033605      1.000000
 


--------------------------------------------------------------------------------------------------------




 Dimension of arrays:
   k-points           NKPTS =      3   k-points in BZ     NKDIM =      3   number of bands    NBANDS=    516
   number of dos      NEDOS =    301   number of ions     NIONS =    254
   non local maximal  LDIM  =      6   non local SUM 2l+1 LMDIM =     18
   total plane-waves  NPLWV = 819200
   max r-space proj   IRMAX =   4449   max aug-charges    IRDMAX=   4357
   dimension x,y,z NGX =    80 NGY =   80 NGZ =  128
   dimension x,y,z NGXF=   160 NGYF=  160 NGZF=  256
   support grid    NGXF=   160 NGYF=  160 NGZF=  256
   ions per type =             252   2
   NGX,Y,Z   is equivalent  to a cutoff of   7.74,  7.74,  7.09 a.u.
   NGXF,Y,Z  is equivalent  to a cutoff of  15.48, 15.48, 14.19 a.u.

 SYSTEM =  NiAl                                    
 POSCAR =  New structure                           

 Startparameter for this run:
   NWRITE =      2    write-flag & timer
   PREC   = normal    normal or accurate (medium, high low for compatibility)
   ISTART =      0    job   : 0-new  1-cont  2-samecut
   ICHARG =      2    charge: 1-file 2-atom 10-const
   ISPIN  =      1    spin polarized calculation?
   LNONCOLLINEAR =      F non collinear calculations
   LSORBIT =      F    spin-orbit coupling
   INIWAV =      1    electr: 0-lowe 1-rand  2-diag
   LASPH  =      F    aspherical Exc in radial PAW
   METAGGA=      F    non-selfconsistent MetaGGA calc.

 Electronic Relaxation 1
   ENCUT  =  300.0 eV  22.05 Ry    4.70 a.u.  24.26 24.26 42.37*2*pi/ulx,y,z
   ENINI  =  300.0     initial cutoff
   ENAUG  =  627.1 eV  augmentation charge cutoff
   NELM   =     60;   NELMIN=  6; NELMDL= -5     # of ELM steps 
   EDIFF  = 0.5E-05   stopping-criterion for ELM
   LREAL  =      T    real-space projection
   NLSPLINE    = F    spline interpolate recip. space projectors
   LCOMPAT=      F    compatible to vasp.4.4
   GGA_COMPAT  = T    GGA compatible to vasp.4.4-vasp.4.6
   LMAXPAW     = -100 max onsite density
   LMAXMIX     =    2 max onsite mixed and CHGCAR
   VOSKOWN=      0    Vosko Wilk Nusair interpolation
   ROPT   =   -0.00050  -0.00050
 Ionic relaxation
   EDIFFG = 0.5E-04   stopping-criterion for IOM
   NSW    =      0    number of steps for IOM
   NBLOCK =      1;   KBLOCK =      1    inner block; outer block 
   IBRION =     -1    ionic relax: 0-MD 1-quasi-New 2-CG
   NFREE  =      0    steps in history (QN), initial steepest desc. (CG)
   ISIF   =      0    stress and relaxation
   IWAVPR =     10    prediction:  0-non 1-charg 2-wave 3-comb
   ISYM   =      2    0-nonsym 1-usesym 2-fastsym
   LCORR  =      T    Harris-Foulkes like correction to forces

   POTIM  = 0.5000    time-step for ionic-motion
   TEIN   =    0.0    initial temperature
   TEBEG  =    0.0;   TEEND  =   0.0 temperature during run
   SMASS  =  -3.00    Nose mass-parameter (am)
   estimated Nose-frequenzy (Omega)   =  0.10E-29 period in steps =****** mass=  -0.675E-26a.u.
   SCALEE = 1.0000    scale energy and forces
   NPACO  =    256;   APACO  = 16.0  distance and # of slots for P.C.
   PSTRESS=    0.0 pullay stress

  Mass of Ions in am
   POMASS =  26.98 14.00
  Ionic Valenz
   ZVAL   =   3.00  5.00
  Atomic Wigner-Seitz radii
   RWIGS  =  -1.00 -1.00
  virtual crystal weights 
   VCA    =   1.00  1.00
   NELECT =     766.0000    total number of electrons
   NUPDOWN=      -1.0000    fix difference up-down

 DOS related values:
   EMIN   =  10.00;   EMAX   =-10.00  energy-range for DOS
   EFERMI =   0.00
   ISMEAR =     0;   SIGMA  =   0.05  broadening in eV -4-tet -1-fermi 0-gaus

 Electronic relaxation 2 (details)
   IALGO  =     38    algorithm
   LDIAG  =      T    sub-space diagonalisation (order eigenvalues)
   LSUBROT=      F    optimize rotation matrix (better conditioning)
   TURBO    =      0    0=normal 1=particle mesh
   IRESTART =      0    0=no restart 2=restart with 2 vectors
   NREBOOT  =      0    no. of reboots
   NMIN     =      0    reboot dimension
   EREF     =   0.00    reference energy to select bands
   IMIX   =      4    mixing-type and parameters
     AMIX     =   0.40;   BMIX     =  1.00
     AMIX_MAG =   1.60;   BMIX_MAG =  1.00
     AMIN     =   0.10
     WC   =   100.;   INIMIX=   1;  MIXPRE=   1;  MAXMIX= -45

 Intra band minimization:
   WEIMIN = 0.0000     energy-eigenvalue tresh-hold
   EBREAK =  0.24E-08  absolut break condition
   DEPER  =   0.30     relativ break condition  

   TIME   =   0.40     timestep for ELM

  volume/ion in A,a.u.               =      30.19       203.75
  Fermi-wavevector in a.u.,A,eV,Ry     =   0.759583  1.435404  7.850108  0.576967
  Thomas-Fermi vector in A             =   1.858410
 
 Write flags
   LWAVE        =      F    write WAVECAR
   LDOWNSAMPLE  =      F    k-point downsampling of WAVECAR
   LCHARG       =      F    write CHGCAR
   LVTOT        =      F    write LOCPOT, total local potential
   LVHAR        =      F    write LOCPOT, Hartree potential only
   LELF         =      F    write electronic localiz. function (ELF)
   LORBIT       =      0    0 simple, 1 ext, 2 COOP (PROOUT), +10 PAW based schemes


 Dipole corrections
   LMONO  =      F    monopole corrections only (constant potential shift)
   LDIPOL =      F    correct potential (dipole corrections)
   IDIPOL =      0    1-x, 2-y, 3-z, 4-all directions 
   EPSILON=  1.0000000 bulk dielectric constant

 Exchange correlation treatment:
   GGA     =    --    GGA type
   LEXCH   =     8    internal setting for exchange type
   VOSKOWN=      0    Vosko Wilk Nusair interpolation
   LHFCALC =     F    Hartree Fock is set to
   LHFONE  =     F    Hartree Fock one center treatment
   AEXX    =    0.0000 exact exchange contribution

 Linear response parameters
   LEPSILON=     F    determine dielectric tensor
   LRPA    =     F    only Hartree local field effects (RPA)
   LNABLA  =     F    use nabla operator in PAW spheres
   LVEL    =     F    velocity operator in full k-point grid
   LINTERFAST=   F  fast interpolation
   KINTER  =     0    interpolate to denser k-point grid
   CSHIFT  =0.1000    complex shift for real part using Kramers Kronig
   OMEGAMAX=  -1.0    maximum frequency
   DEG_THRESHOLD= 0.2000000E-02 threshold for treating states as degnerate
   RTIME   =   -0.100 relaxation time in fs
  (WPLASMAI=    0.000 imaginary part of plasma frequency in eV, 0.658/RTIME)
   DFIELD  = 0.0000000 0.0000000 0.0000000 field for delta impulse in time
 
 Orbital magnetization related:
   ORBITALMAG=     F  switch on orbital magnetization
   LCHIMAG   =     F  perturbation theory with respect to B field
   DQ        =  0.001000  dq finite difference perturbation B field
   LLRAUG    =     F  two centre corrections for induced B field



--------------------------------------------------------------------------------------------------------


 Static calculation
 charge density and potential will be updated during run
 non-spin polarized calculation
 Variant of blocked Davidson
 Davidson routine will perform the subspace rotation
 perform sub-space diagonalisation
    after iterative eigenvector-optimisation
 modified Broyden-mixing scheme, WC =      100.0
 initial mixing is a Kerker type mixing with AMIX =  0.4000 and BMIX =      1.0000
 Hartree-type preconditioning will be used
 using additional bands          133
 real space projection scheme for non local part
 use partial core corrections
 calculate Harris-corrections to forces 
   (improved forces if not selfconsistent)
 use gradient corrections 
 use of overlap-Matrix (Vanderbilt PP)
 Gauss-broadening in eV      SIGMA  =   0.05


--------------------------------------------------------------------------------------------------------


  energy-cutoff  :      300.00
  volume of cell :     7668.80
      direct lattice vectors                 reciprocal lattice vectors
     0.000000000-17.180573462  0.000000000     0.000000000 -0.058205275  0.033604831
     0.000000000 -8.590286731-14.878813070     0.000000000  0.000000000 -0.067209662
    30.000000000  0.000000000  0.000000000     0.033333333  0.000000000  0.000000000

  length of vectors
    17.180573462 17.180573462 30.000000000     0.067209662  0.067209662  0.033333333


 
 k-points in units of 2pi/SCALE and weight: Automatic generation                    
   0.00000000  0.00000000  0.00000000       0.250
   0.00000000 -0.02910264  0.01680242       0.500
   0.00000000  0.00000000 -0.03360483       0.250
 
 k-points in reciprocal lattice and weights: Automatic generation                    
   0.00000000  0.00000000  0.00000000       0.250
   0.50000000  0.00000000  0.00000000       0.500
   0.00000000  0.50000000  0.00000000       0.250
 
 position of ions in fractional coordinates (direct lattice) 
   0.44444456  0.44444473  0.07873467
   0.44444419  0.77777777  0.07873467
   0.44444468  0.11111101  0.07873467
   0.77777744  0.44444473  0.07873467
   0.77777765  0.77777777  0.07873467
   0.77777756  0.11111101  0.07873467
   0.11111110  0.44444473  0.07873467
   0.11111131  0.77777777  0.07873467
   0.11111122  0.11111101  0.07873467
   0.55555520  0.55555574  0.15702600
   0.55555541  0.88888878  0.15702600
   0.55555591  0.22222203  0.15702600
   0.88888866  0.55555574  0.15702600
   0.88888887  0.88888878  0.15702600
   0.88888878  0.22222203  0.15702600
   0.22222232  0.55555574  0.15702600
   0.22222253  0.88888878  0.15702600
   0.22222245  0.22222203  0.15702600
   0.66666642  0.66666675  0.23375733
   0.66666692  0.00000000  0.23375733
   0.66666655  0.33333304  0.23375733
   0.00000008  0.66666675  0.23375733
   0.00000000  0.00000000  0.23375733
   0.00000021  0.33333304  0.23375733
   0.33333354  0.66666675  0.23375733
   0.33333346  0.00000000  0.23375733
   0.33333367  0.33333304  0.23375733
   0.77777765  0.77777777  0.31173067
   0.77777756  0.11111101  0.31173067
   0.77777744  0.44444473  0.31173067
   0.11111131  0.77777777  0.31173067
   0.11111122  0.11111101  0.31173067
   0.11111110  0.44444473  0.31173067
   0.44444419  0.77777777  0.31173067
   0.44444468  0.11111101  0.31173067
   0.44444456  0.44444473  0.31173067
   0.88888887  0.88888878  0.38970400
   0.88888878  0.22222203  0.38970400
   0.88888866  0.55555574  0.38970400
   0.22222253  0.88888878  0.38970400
   0.22222245  0.22222203  0.38970400
   0.22222232  0.55555574  0.38970400
   0.55555541  0.88888878  0.38970400
   0.55555591  0.22222203  0.38970400
   0.55555520  0.55555574  0.38970400
   0.00000000  0.00000000  0.46643533
   0.00000021  0.33333304  0.46643533
   0.00000008  0.66666675  0.46643533
   0.33333346  0.00000000  0.46643533
   0.33333367  0.33333304  0.46643533
   0.33333354  0.66666675  0.46643533
   0.66666692  0.00000000  0.46643533
   0.66666655  0.33333304  0.46643533
   0.66666642  0.66666675  0.46643533
   0.11111122  0.11111101  0.54472667
   0.11111110  0.44444473  0.54472667
   0.11111131  0.77777777  0.54472667
   0.44444468  0.11111101  0.54472667
   0.44444456  0.44444473  0.54472667
   0.44444419  0.77777777  0.54472667
   0.77777756  0.11111101  0.54472667
   0.77777744  0.44444473  0.54472667
   0.77777765  0.77777777  0.54472667
   0.27777777  0.27777753  0.07873467
   0.27777764  0.61111125  0.07873467
   0.27777785  0.94444429  0.07873467
   0.61111123  0.27777753  0.07873467
   0.61111110  0.61111125  0.07873467
   0.61111131  0.94444429  0.07873467
   0.94444469  0.27777753  0.07873467
   0.94444456  0.61111125  0.07873467
   0.94444477  0.94444429  0.07873467
   0.38888865  0.38888922  0.15702600
   0.38888886  0.72222226  0.15702600
   0.38888878  0.05555551  0.15702600
   0.72222211  0.38888922  0.15702600
   0.72222232  0.72222226  0.15702600
   0.72222224  0.05555551  0.15702600
   0.05555519  0.38888922  0.15702600
   0.05555540  0.72222226  0.15702600
   0.05555532  0.05555551  0.15702600
   0.49999988  0.50000023  0.23375733
   0.50000009  0.83333327  0.23375733
   0.50000000  0.16666652  0.23375733
   0.83333334  0.50000023  0.23375733
   0.83333355  0.83333327  0.23375733
   0.83333346  0.16666652  0.23375733
   0.16666642  0.50000023  0.23375733
   0.16666663  0.83333327  0.23375733
   0.16666654  0.16666652  0.23375733
   0.61111110  0.61111125  0.31173067
   0.61111131  0.94444429  0.31173067
   0.61111123  0.27777753  0.31173067
   0.94444456  0.61111125  0.31173067
   0.94444477  0.94444429  0.31173067
   0.94444469  0.27777753  0.31173067
   0.27777764  0.61111125  0.31173067
   0.27777785  0.94444429  0.31173067
   0.27777777  0.27777753  0.31173067
   0.72222232  0.72222226  0.38970400
   0.72222224  0.05555551  0.38970400
   0.72222211  0.38888922  0.38970400
   0.05555540  0.72222226  0.38970400
   0.05555532  0.05555551  0.38970400
   0.05555519  0.38888922  0.38970400
   0.38888886  0.72222226  0.38970400
   0.38888878  0.05555551  0.38970400
   0.38888865  0.38888922  0.38970400
   0.83333355  0.83333327  0.46643533
   0.83333346  0.16666652  0.46643533
   0.83333334  0.50000023  0.46643533
   0.16666663  0.83333327  0.46643533
   0.16666654  0.16666652  0.46643533
   0.16666642  0.50000023  0.46643533
   0.50000009  0.83333327  0.46643533
   0.50000000  0.16666652  0.46643533
   0.49999988  0.50000023  0.46643533
   0.94444477  0.94444429  0.54472667
   0.94444469  0.27777753  0.54472667
   0.94444456  0.61111125  0.54472667
   0.27777785  0.94444429  0.54472667
   0.27777777  0.27777753  0.54472667
   0.27777764  0.61111125  0.54472667
   0.61111131  0.94444429  0.54472667
   0.61111123  0.27777753  0.54472667
   0.61111110  0.61111125  0.54472667
   0.27777783  0.44444473  0.07873467
   0.27777804  0.77777777  0.07873467
   0.27777795  0.11111101  0.07873467
   0.61111071  0.44444473  0.07873467
   0.61111092  0.77777777  0.07873467
   0.61111141  0.11111101  0.07873467
   0.94444417  0.44444473  0.07873467
   0.94444438  0.77777777  0.07873467
   0.94444429  0.11111101  0.07873467
   0.38888905  0.55555574  0.15702600
   0.38888868  0.88888878  0.15702600
   0.38888918  0.22222203  0.15702600
   0.72222193  0.55555574  0.15702600
   0.72222214  0.88888878  0.15702600
   0.72222205  0.22222203  0.15702600
   0.05555559  0.55555574  0.15702600
   0.05555580  0.88888878  0.15702600
   0.05555572  0.22222203  0.15702600
   0.49999969  0.66666675  0.23375733
   0.50000019  0.00000000  0.23375733
   0.50000040  0.33333304  0.23375733
   0.83333315  0.66666675  0.23375733
   0.83333307  0.00000000  0.23375733
   0.83333328  0.33333304  0.23375733
   0.16666681  0.66666675  0.23375733
   0.16666673  0.00000000  0.23375733
   0.16666694  0.33333304  0.23375733
   0.61111092  0.77777777  0.31173067
   0.61111141  0.11111101  0.31173067
   0.61111071  0.44444473  0.31173067
   0.94444438  0.77777777  0.31173067
   0.94444429  0.11111101  0.31173067
   0.94444417  0.44444473  0.31173067
   0.27777804  0.77777777  0.31173067
   0.27777795  0.11111101  0.31173067
   0.27777783  0.44444473  0.31173067
   0.72222214  0.88888878  0.38970400
   0.72222205  0.22222203  0.38970400
   0.72222193  0.55555574  0.38970400
   0.05555580  0.88888878  0.38970400
   0.05555572  0.22222203  0.38970400
   0.05555559  0.55555574  0.38970400
   0.38888868  0.88888878  0.38970400
   0.38888918  0.22222203  0.38970400
   0.38888905  0.55555574  0.38970400
   0.83333307  0.00000000  0.46643533
   0.83333328  0.33333304  0.46643533
   0.83333315  0.66666675  0.46643533
   0.16666673  0.00000000  0.46643533
   0.16666694  0.33333304  0.46643533
   0.16666681  0.66666675  0.46643533
   0.50000019  0.00000000  0.46643533
   0.50000040  0.33333304  0.46643533
   0.49999969  0.66666675  0.46643533
   0.94444429  0.11111101  0.54472667
   0.94444417  0.44444473  0.54472667
   0.94444438  0.77777777  0.54472667
   0.27777795  0.11111101  0.54472667
   0.27777783  0.44444473  0.54472667
   0.27777804  0.77777777  0.54472667
   0.61111141  0.11111101  0.54472667
   0.61111071  0.44444473  0.54472667
   0.61111092  0.77777777  0.54472667
   0.44444450  0.27777753  0.07873467
   0.44444437  0.61111125  0.07873467
   0.44444458  0.94444429  0.07873467
   0.77777796  0.27777753  0.07873467
   0.77777783  0.61111125  0.07873467
   0.77777804  0.94444429  0.07873467
   0.11111104  0.27777753  0.07873467
   0.11111091  0.61111125  0.07873467
   0.11111112  0.94444429  0.07873467
   0.55555538  0.38888922  0.15702600
   0.55555559  0.72222226  0.15702600
   0.55555551  0.05555551  0.15702600
   0.88888884  0.38888922  0.15702600
   0.88888905  0.72222226  0.15702600
   0.88888897  0.05555551  0.15702600
   0.22222192  0.38888922  0.15702600
   0.22222213  0.72222226  0.15702600
   0.22222205  0.05555551  0.15702600
   0.66666661  0.50000023  0.23375733
   0.66666682  0.83333327  0.23375733
   0.66666673  0.16666652  0.23375733
   0.99999969  0.50000023  0.23375733
   0.99999990  0.83333327  0.23375733
   0.99999981  0.16666652  0.23375733
   0.33333315  0.50000023  0.23375733
   0.33333336  0.83333327  0.23375733
   0.33333327  0.16666652  0.23375733
   0.77777783  0.61111125  0.31173067
   0.77777804  0.94444429  0.31173067
   0.77777796  0.27777753  0.31173067
   0.11111091  0.61111125  0.31173067
   0.11111112  0.94444429  0.31173067
   0.11111104  0.27777753  0.31173067
   0.44444437  0.61111125  0.31173067
   0.44444458  0.94444429  0.31173067
   0.44444450  0.27777753  0.31173067
   0.88888905  0.72222226  0.38970400
   0.88888897  0.05555551  0.38970400
   0.88888884  0.38888922  0.38970400
   0.22222213  0.72222226  0.38970400
   0.22222205  0.05555551  0.38970400
   0.22222192  0.38888922  0.38970400
   0.55555559  0.72222226  0.38970400
   0.55555551  0.05555551  0.38970400
   0.55555538  0.38888922  0.38970400
   0.99999990  0.83333327  0.46643533
   0.99999981  0.16666652  0.46643533
   0.99999969  0.50000023  0.46643533
   0.33333336  0.83333327  0.46643533
   0.33333327  0.16666652  0.46643533
   0.33333315  0.50000023  0.46643533
   0.66666682  0.83333327  0.46643533
   0.66666673  0.16666652  0.46643533
   0.66666661  0.50000023  0.46643533
   0.11111112  0.94444429  0.54472667
   0.11111104  0.27777753  0.54472667
   0.11111091  0.61111125  0.54472667
   0.44444458  0.94444429  0.54472667
   0.44444450  0.27777753  0.54472667
   0.44444437  0.61111125  0.54472667
   0.77777804  0.94444429  0.54472667
   0.77777796  0.27777753  0.54472667
   0.77777783  0.61111125  0.54472667
   0.34003429  0.48659795  0.60133333
   0.38217494  0.40231704  0.60133333
 
 position of ions in cartesian coordinates  (Angst):
   2.36204000-11.45372000 -6.61281000
   2.36204000-14.31714000-11.57241000
   2.36204000 -8.59029000 -1.65320000
   2.36204000-17.18057000 -6.61281000
   2.36204000-20.04400000-11.57241000
   2.36204000-14.31714000 -1.65320000
   2.36204000 -5.72686000 -6.61281000
   2.36204000 -8.59029000-11.57241000
   2.36204000 -2.86343000 -1.65320000
   4.71078000-14.31714000 -8.26601000
   4.71078000-17.18057000-13.22561000
   4.71078000-11.45372000 -3.30640000
   4.71078000-20.04400000 -8.26601000
   4.71078000-22.90743000-13.22561000
   4.71078000-17.18057000 -3.30640000
   4.71078000 -8.59029000 -8.26601000
   4.71078000-11.45372000-13.22561000
   4.71078000 -5.72686000 -3.30640000
   7.01272000-17.18057000 -9.91921000
   7.01272000-11.45372000  0.00000000
   7.01272000-14.31714000 -4.95960000
   7.01272000 -5.72686000 -9.91921000
   7.01272000  0.00000000  0.00000000
   7.01272000 -2.86343000 -4.95960000
   7.01272000-11.45372000 -9.91921000
   7.01272000 -5.72686000  0.00000000
   7.01272000 -8.59029000 -4.95960000
   9.35192000-20.04400000-11.57241000
   9.35192000-14.31714000 -1.65320000
   9.35192000-17.18057000 -6.61281000
   9.35192000 -8.59029000-11.57241000
   9.35192000 -2.86343000 -1.65320000
   9.35192000 -5.72686000 -6.61281000
   9.35192000-14.31714000-11.57241000
   9.35192000 -8.59029000 -1.65320000
   9.35192000-11.45372000 -6.61281000
  11.69112000-22.90743000-13.22561000
  11.69112000-17.18057000 -3.30640000
  11.69112000-20.04400000 -8.26601000
  11.69112000-11.45372000-13.22561000
  11.69112000 -5.72686000 -3.30640000
  11.69112000 -8.59029000 -8.26601000
  11.69112000-17.18057000-13.22561000
  11.69112000-11.45372000 -3.30640000
  11.69112000-14.31714000 -8.26601000
  13.99306000  0.00000000  0.00000000
  13.99306000 -2.86343000 -4.95960000
  13.99306000 -5.72686000 -9.91921000
  13.99306000 -5.72686000  0.00000000
  13.99306000 -8.59029000 -4.95960000
  13.99306000-11.45372000 -9.91921000
  13.99306000-11.45372000  0.00000000
  13.99306000-14.31714000 -4.95960000
  13.99306000-17.18057000 -9.91921000
  16.34180000 -2.86343000 -1.65320000
  16.34180000 -5.72686000 -6.61281000
  16.34180000 -8.59029000-11.57241000
  16.34180000 -8.59029000 -1.65320000
  16.34180000-11.45372000 -6.61281000
  16.34180000-14.31714000-11.57241000
  16.34180000-14.31714000 -1.65320000
  16.34180000-17.18057000 -6.61281000
  16.34180000-20.04400000-11.57241000
   2.36204000 -7.15857000 -4.13300000
   2.36204000-10.02200000 -9.09261000
   2.36204000-12.88543000-14.05221000
   2.36204000-12.88543000 -4.13300000
   2.36204000-15.74886000 -9.09261000
   2.36204000-18.61229000-14.05221000
   2.36204000-18.61229000 -4.13300000
   2.36204000-21.47572000 -9.09261000
   2.36204000-24.33915000-14.05221000
   4.71078000-10.02200000 -5.78621000
   4.71078000-12.88543000-10.74581000
   4.71078000 -7.15857000 -0.82660000
   4.71078000-15.74886000 -5.78621000
   4.71078000-18.61229000-10.74581000
   4.71078000-12.88543000 -0.82660000
   4.71078000 -4.29514000 -5.78621000
   4.71078000 -7.15857000-10.74581000
   4.71078000 -1.43171000 -0.82660000
   7.01272000-12.88543000 -7.43941000
   7.01272000-15.74886000-12.39901000
   7.01272000-10.02200000 -2.47980000
   7.01272000-18.61229000 -7.43941000
   7.01272000-21.47572000-12.39901000
   7.01272000-15.74886000 -2.47980000
   7.01272000 -7.15857000 -7.43941000
   7.01272000-10.02200000-12.39901000
   7.01272000 -4.29514000 -2.47980000
   9.35192000-15.74886000 -9.09261000
   9.35192000-18.61229000-14.05221000
   9.35192000-12.88543000 -4.13300000
   9.35192000-21.47572000 -9.09261000
   9.35192000-24.33915000-14.05221000
   9.35192000-18.61229000 -4.13300000
   9.35192000-10.02200000 -9.09261000
   9.35192000-12.88543000-14.05221000
   9.35192000 -7.15857000 -4.13300000
  11.69112000-18.61229000-10.74581000
  11.69112000-12.88543000 -0.82660000
  11.69112000-15.74886000 -5.78621000
  11.69112000 -7.15857000-10.74581000
  11.69112000 -1.43171000 -0.82660000
  11.69112000 -4.29514000 -5.78621000
  11.69112000-12.88543000-10.74581000
  11.69112000 -7.15857000 -0.82660000
  11.69112000-10.02200000 -5.78621000
  13.99306000-21.47572000-12.39901000
  13.99306000-15.74886000 -2.47980000
  13.99306000-18.61229000 -7.43941000
  13.99306000-10.02200000-12.39901000
  13.99306000 -4.29514000 -2.47980000
  13.99306000 -7.15857000 -7.43941000
  13.99306000-15.74886000-12.39901000
  13.99306000-10.02200000 -2.47980000
  13.99306000-12.88543000 -7.43941000
  16.34180000-24.33915000-14.05221000
  16.34180000-18.61229000 -4.13300000
  16.34180000-21.47572000 -9.09261000
  16.34180000-12.88543000-14.05221000
  16.34180000 -7.15857000 -4.13300000
  16.34180000-10.02200000 -9.09261000
  16.34180000-18.61229000-14.05221000
  16.34180000-12.88543000 -4.13300000
  16.34180000-15.74886000 -9.09261000
   2.36204000 -8.59029000 -6.61281000
   2.36204000-11.45372000-11.57241000
   2.36204000 -5.72686000 -1.65320000
   2.36204000-14.31714000 -6.61281000
   2.36204000-17.18057000-11.57241000
   2.36204000-11.45372000 -1.65320000
   2.36204000-20.04400000 -6.61281000
   2.36204000-22.90743000-11.57241000
   2.36204000-17.18057000 -1.65320000
   4.71078000-11.45372000 -8.26601000
   4.71078000-14.31714000-13.22561000
   4.71078000 -8.59029000 -3.30640000
   4.71078000-17.18057000 -8.26601000
   4.71078000-20.04400000-13.22561000
   4.71078000-14.31714000 -3.30640000
   4.71078000 -5.72686000 -8.26601000
   4.71078000 -8.59029000-13.22561000
   4.71078000 -2.86343000 -3.30640000
   7.01272000-14.31714000 -9.91921000
   7.01272000 -8.59029000  0.00000000
   7.01272000-11.45372000 -4.95960000
   7.01272000-20.04400000 -9.91921000
   7.01272000-14.31714000  0.00000000
   7.01272000-17.18057000 -4.95960000
   7.01272000 -8.59029000 -9.91921000
   7.01272000 -2.86343000  0.00000000
   7.01272000 -5.72686000 -4.95960000
   9.35192000-17.18057000-11.57241000
   9.35192000-11.45372000 -1.65320000
   9.35192000-14.31714000 -6.61281000
   9.35192000-22.90743000-11.57241000
   9.35192000-17.18057000 -1.65320000
   9.35192000-20.04400000 -6.61281000
   9.35192000-11.45372000-11.57241000
   9.35192000 -5.72686000 -1.65320000
   9.35192000 -8.59029000 -6.61281000
  11.69112000-20.04400000-13.22561000
  11.69112000-14.31714000 -3.30640000
  11.69112000-17.18057000 -8.26601000
  11.69112000 -8.59029000-13.22561000
  11.69112000 -2.86343000 -3.30640000
  11.69112000 -5.72686000 -8.26601000
  11.69112000-14.31714000-13.22561000
  11.69112000 -8.59029000 -3.30640000
  11.69112000-11.45372000 -8.26601000
  13.99306000-14.31714000  0.00000000
  13.99306000-17.18057000 -4.95960000
  13.99306000-20.04400000 -9.91921000
  13.99306000 -2.86343000  0.00000000
  13.99306000 -5.72686000 -4.95960000
  13.99306000 -8.59029000 -9.91921000
  13.99306000 -8.59029000  0.00000000
  13.99306000-11.45372000 -4.95960000
  13.99306000-14.31714000 -9.91921000
  16.34180000-17.18057000 -1.65320000
  16.34180000-20.04400000 -6.61281000
  16.34180000-22.90743000-11.57241000
  16.34180000 -5.72686000 -1.65320000
  16.34180000 -8.59029000 -6.61281000
  16.34180000-11.45372000-11.57241000
  16.34180000-11.45372000 -1.65320000
  16.34180000-14.31714000 -6.61281000
  16.34180000-17.18057000-11.57241000
   2.36204000-10.02200000 -4.13300000
   2.36204000-12.88543000 -9.09261000
   2.36204000-15.74886000-14.05221000
   2.36204000-15.74886000 -4.13300000
   2.36204000-18.61229000 -9.09261000
   2.36204000-21.47572000-14.05221000
   2.36204000 -4.29514000 -4.13300000
   2.36204000 -7.15857000 -9.09261000
   2.36204000-10.02200000-14.05221000
   4.71078000-12.88543000 -5.78621000
   4.71078000-15.74886000-10.74581000
   4.71078000-10.02200000 -0.82660000
   4.71078000-18.61229000 -5.78621000
   4.71078000-21.47572000-10.74581000
   4.71078000-15.74886000 -0.82660000
   4.71078000 -7.15857000 -5.78621000
   4.71078000-10.02200000-10.74581000
   4.71078000 -4.29514000 -0.82660000
   7.01272000-15.74886000 -7.43941000
   7.01272000-18.61229000-12.39901000
   7.01272000-12.88543000 -2.47980000
   7.01272000-21.47571346 -7.43941000
   7.01272000-24.33914346-12.39901000
   7.01272000-18.61228346 -2.47980000
   7.01272000-10.02200000 -7.43941000
   7.01272000-12.88543000-12.39901000
   7.01272000 -7.15857000 -2.47980000
   9.35192000-18.61229000 -9.09261000
   9.35192000-21.47572000-14.05221000
   9.35192000-15.74886000 -4.13300000
   9.35192000 -7.15857000 -9.09261000
   9.35192000-10.02200000-14.05221000
   9.35192000 -4.29514000 -4.13300000
   9.35192000-12.88543000 -9.09261000
   9.35192000-15.74886000-14.05221000
   9.35192000-10.02200000 -4.13300000
  11.69112000-21.47572000-10.74581000
  11.69112000-15.74886000 -0.82660000
  11.69112000-18.61229000 -5.78621000
  11.69112000-10.02200000-10.74581000
  11.69112000 -4.29514000 -0.82660000
  11.69112000 -7.15857000 -5.78621000
  11.69112000-15.74886000-10.74581000
  11.69112000-10.02200000 -0.82660000
  11.69112000-12.88543000 -5.78621000
  13.99306000-24.33914346-12.39901000
  13.99306000-18.61228346 -2.47980000
  13.99306000-21.47571346 -7.43941000
  13.99306000-12.88543000-12.39901000
  13.99306000 -7.15857000 -2.47980000
  13.99306000-10.02200000 -7.43941000
  13.99306000-18.61229000-12.39901000
  13.99306000-12.88543000 -2.47980000
  13.99306000-15.74886000 -7.43941000
  16.34180000-10.02200000-14.05221000
  16.34180000 -4.29514000 -4.13300000
  16.34180000 -7.15857000 -9.09261000
  16.34180000-15.74886000-14.05221000
  16.34180000-10.02200000 -4.13300000
  16.34180000-12.88543000 -9.09261000
  16.34180000-21.47572000-14.05221000
  16.34180000-15.74886000 -4.13300000
  16.34180000-18.61229000 -9.09261000
  18.04000000-10.02200000 -7.24000000
  18.04000000-10.02200333 -5.98600000
 


--------------------------------------------------------------------------------------------------------


 k-point  1 :   0.0000 0.0000 0.0000  plane waves:   90499
 k-point  2 :   0.5000 0.0000 0.0000  plane waves:   90530
 k-point  3 :   0.0000 0.5000 0.0000  plane waves:   90530

 maximum and minimum number of plane-waves per node :     90530    90499

 maximum number of plane-waves:     90530
 maximum index in each direction: 
   IXMAX=   24   IYMAX=   24   IZMAX=   42
   IXMIN=  -24   IYMIN=  -24   IZMIN=  -42


 serial   3D FFT for wavefunctions
 parallel 3D FFT for charge:
    minimum data exchange during FFTs selected (reduces bandwidth)


 total amount of memory used by VASP MPI-rank0   652164. kBytes
=======================================================================

   base      :      30000. kBytes
   nonlr-proj:      89943. kBytes
   fftplans  :      40601. kBytes
   grid      :      95147. kBytes
   one-center:       3950. kBytes
   wavefun   :     392523. kBytes
 
     INWAV:  cpu time    0.0001: real time    0.0002
 Broyden mixing: mesh for mixing (old mesh)
   NGX = 49   NGY = 49   NGZ = 85
  (NGX  =160   NGY  =160   NGZ  =256)
  gives a total of 204085 points

 initial charge density was supplied:
 charge density of overlapping atoms calculated
 number of electron     766.0000000 magnetization 
 keeping initial charge density in first step


--------------------------------------------------------------------------------------------------------


 Maximum index for non-local projection operator         4280
 Maximum index for augmentation-charges          758 (set IRDMAX)


--------------------------------------------------------------------------------------------------------


 First call to EWALD:  gamma=   0.090
 Maximum number of real-space cells 3x 3x 2
 Maximum number of reciprocal cells 2x 2x 4

    FEWALD:  cpu time    0.0255: real time    0.0255


----------------------------------------- Iteration    1(   1)  ---------------------------------------


    POTLOK:  cpu time    0.7030: real time    0.7659
    SETDIJ:  cpu time    0.0864: real time    0.0865
     EDDAV:  cpu time   18.3113: real time   20.8553
       DOS:  cpu time    0.0024: real time    0.0024
    --------------------------------------------
      LOOP:  cpu time   19.1051: real time   21.7291

 eigenvalue-minimisations  :  3144
 total energy-change (2. order) : 0.2135422E+04  (-0.1842423E+05)
 number of electron     766.0000000 magnetization 
 augmentation part      766.0000000 magnetization 

 Free energy of the ion-electron system (eV)
  ---------------------------------------------------
  alpha Z        PSCENC =       505.22967617
  Ewald energy   TEWEN  =     88586.12963646
  -Hartree energ DENC   =   -102643.91621858
  -exchange      EXHF   =         0.00000000
  -V(xc)+E(xc)   XCENC  =     -6604.60751630
  PAW double counting   =     17092.30507181    -9042.14386232
  entropy T*S    EENTRO =        -0.05985230
  eigenvalues    EBANDS =       223.28337749
  atomic energy  EATOM  =     14019.20197576
  Solvation  Ediel_sol  =         0.00000000
  ---------------------------------------------------
  free energy    TOTEN  =      2135.42228818 eV

  energy without entropy =     2135.48214048  energy(sigma->0) =     2135.45221433


--------------------------------------------------------------------------------------------------------




----------------------------------------- Iteration    1(   2)  ---------------------------------------


     EDDAV:  cpu time   22.8566: real time   25.6958
       DOS:  cpu time    0.0011: real time    0.0011
    --------------------------------------------
      LOOP:  cpu time   22.8588: real time   25.6992

 eigenvalue-minimisations  :  4200
 total energy-change (2. order) :-0.2876368E+04  (-0.2710250E+04)
 number of electron     766.0000000 magnetization 
 augmentation part      766.0000000 magnetization 

 Free energy of the ion-electron system (eV)
  ---------------------------------------------------
  alpha Z        PSCENC =       505.22967617
  Ewald energy   TEWEN  =     88586.12963646
  -Hartree energ DENC   =   -102643.91621858
  -exchange      EXHF   =         0.00000000
  -V(xc)+E(xc)   XCENC  =     -6604.60751630
  PAW double counting   =     17092.30507181    -9042.14386232
  entropy T*S    EENTRO =        -0.10658578
  eigenvalues    EBANDS =     -2653.03803072
  atomic energy  EATOM  =     14019.20197576
  Solvation  Ediel_sol  =         0.00000000
  ---------------------------------------------------
  free energy    TOTEN  =      -740.94585351 eV

  energy without entropy =     -740.83926773  energy(sigma->0) =     -740.89256062


--------------------------------------------------------------------------------------------------------




----------------------------------------- Iteration    1(   3)  ---------------------------------------


     EDDAV:  cpu time   24.8644: real time   28.0668
       DOS:  cpu time    0.0021: real time    0.0021
    --------------------------------------------
      LOOP:  cpu time   24.8677: real time   28.0712

 eigenvalue-minimisations  :  4704
 total energy-change (2. order) :-0.2115789E+03  (-0.2030449E+03)
 number of electron     766.0000000 magnetization 
 augmentation part      766.0000000 magnetization 

 Free energy of the ion-electron system (eV)
  ---------------------------------------------------
  alpha Z        PSCENC =       505.22967617
  Ewald energy   TEWEN  =     88586.12963646
  -Hartree energ DENC   =   -102643.91621858
  -exchange      EXHF   =         0.00000000
  -V(xc)+E(xc)   XCENC  =     -6604.60751630
  PAW double counting   =     17092.30507181    -9042.14386232
  entropy T*S    EENTRO =        -0.22029773
  eigenvalues    EBANDS =     -2864.50325427
  atomic energy  EATOM  =     14019.20197576
  Solvation  Ediel_sol  =         0.00000000
  ---------------------------------------------------
  free energy    TOTEN  =      -952.52478901 eV

  energy without entropy =     -952.30449127  energy(sigma->0) =     -952.41464014


--------------------------------------------------------------------------------------------------------




----------------------------------------- Iteration    1(   4)  ---------------------------------------


     EDDAV:  cpu time   23.4687: real time   26.4838
       DOS:  cpu time    0.0019: real time    0.0019
    --------------------------------------------
      LOOP:  cpu time   23.4718: real time   26.4882

 eigenvalue-minimisations  :  4356
 total energy-change (2. order) :-0.8610120E+01  (-0.8320006E+01)
 number of electron     766.0000000 magnetization 
 augmentation part      766.0000000 magnetization 

 Free energy of the ion-electron system (eV)
  ---------------------------------------------------
  alpha Z        PSCENC =       505.22967617
  Ewald energy   TEWEN  =     88586.12963646
  -Hartree energ DENC   =   -102643.91621858
  -exchange      EXHF   =         0.00000000
  -V(xc)+E(xc)   XCENC  =     -6604.60751630
  PAW double counting   =     17092.30507181    -9042.14386232
  entropy T*S    EENTRO =        -0.24283991
  eigenvalues    EBANDS =     -2873.09083194
  atomic energy  EATOM  =     14019.20197576
  Solvation  Ediel_sol  =         0.00000000
  ---------------------------------------------------
  free energy    TOTEN  =      -961.13490885 eV

  energy without entropy =     -960.89206895  energy(sigma->0) =     -961.01348890


--------------------------------------------------------------------------------------------------------




----------------------------------------- Iteration    1(   5)  ---------------------------------------


     EDDAV:  cpu time   26.7594: real time   30.0656
       DOS:  cpu time    0.0014: real time    0.0014
    CHARGE:  cpu time    1.6314: real time    1.6782
    MIXING:  cpu time    0.0231: real time    0.0231
    --------------------------------------------
      LOOP:  cpu time   28.4167: real time   31.7709

 eigenvalue-minimisations  :  5100
 total energy-change (2. order) :-0.4889846E+00  (-0.4747462E+00)
 number of electron     766.0000012 magnetization 
 augmentation part       -9.9463157 magnetization 

 Broyden mixing:
  rms(total) = 0.18666E+01    rms(broyden)= 0.18659E+01
  rms(prec ) = 0.26151E+01
  weight for this iteration     100.00

 Free energy of the ion-electron system (eV)
  ---------------------------------------------------
  alpha Z        PSCENC =       505.22967617
  Ewald energy   TEWEN  =     88586.12963646
  -Hartree energ DENC   =   -102643.91621858
  -exchange      EXHF   =         0.00000000
  -V(xc)+E(xc)   XCENC  =     -6604.60751630
  PAW double counting   =     17092.30507181    -9042.14386232
  entropy T*S    EENTRO =        -0.24146006
  eigenvalues    EBANDS =     -2873.58119638
  atomic energy  EATOM  =     14019.20197576
  Solvation  Ediel_sol  =         0.00000000
  ---------------------------------------------------
  free energy    TOTEN  =      -961.62389345 eV

  energy without entropy =     -961.38243339  energy(sigma->0) =     -961.50316342


--------------------------------------------------------------------------------------------------------




----------------------------------------- Iteration    1(   6)  ---------------------------------------


    POTLOK:  cpu time    0.6772: real time    0.6772
    SETDIJ:  cpu time    0.0857: real time    0.0857
     EDDAV:  cpu time   22.0975: real time   24.9352
       DOS:  cpu time    0.0011: real time    0.0011
    CHARGE:  cpu time    1.6275: real time    1.6567
    MIXING:  cpu time    0.0241: real time    0.0272
    --------------------------------------------
      LOOP:  cpu time   24.5147: real time   27.3859

 eigenvalue-minimisations  :  4008
 total energy-change (2. order) :-0.1599114E+02  (-0.1879289E+02)
 number of electron     766.0000027 magnetization 
 augmentation part       -9.7255230 magnetization 

 Broyden mixing:
  rms(total) = 0.19579E+01    rms(broyden)= 0.19573E+01
  rms(prec ) = 0.42776E+01
  weight for this iteration     100.00

 eigenvalues of (default mixing * dielectric matrix)
  average eigenvalue GAMMA=   0.6761
  0.6761

 Free energy of the ion-electron system (eV)
  ---------------------------------------------------
  alpha Z        PSCENC =       505.22967617
  Ewald energy   TEWEN  =     88586.12963646
  -Hartree energ DENC   =   -103564.44731901
  -exchange      EXHF   =         0.00000000
  -V(xc)+E(xc)   XCENC  =     -6594.52025594
  PAW double counting   =     19050.31968161   -11001.50739842
  entropy T*S    EENTRO =        -0.18131920
  eigenvalues    EBANDS =     -1977.83971345
  atomic energy  EATOM  =     14019.20197576
  Solvation  Ediel_sol  =         0.00000000
  ---------------------------------------------------
  free energy    TOTEN  =      -977.61503602 eV

  energy without entropy =     -977.43371682  energy(sigma->0) =     -977.52437642


--------------------------------------------------------------------------------------------------------




----------------------------------------- Iteration    1(   7)  ---------------------------------------


    POTLOK:  cpu time    0.6780: real time    0.6781
    SETDIJ:  cpu time    0.0866: real time    0.0866
     EDDAV:  cpu time   21.8308: real time   24.6650
       DOS:  cpu time    0.0014: real time    0.0014
    CHARGE:  cpu time    1.6312: real time    1.6604
    MIXING:  cpu time    0.0252: real time    0.0252
    --------------------------------------------
      LOOP:  cpu time   24.2547: real time   27.1191

 eigenvalue-minimisations  :  3960
 total energy-change (2. order) : 0.4090054E+02  (-0.1282657E+02)
 number of electron     766.0000007 magnetization 
 augmentation part      -10.0286419 magnetization 

 Broyden mixing:
  rms(total) = 0.10219E+01    rms(broyden)= 0.10202E+01
  rms(prec ) = 0.12885E+01
  weight for this iteration     100.00

 eigenvalues of (default mixing * dielectric matrix)
  average eigenvalue GAMMA=   0.9781
  1.6924  0.2639

 Free energy of the ion-electron system (eV)
  ---------------------------------------------------
  alpha Z        PSCENC =       505.22967617
  Ewald energy   TEWEN  =     88586.12963646
  -Hartree energ DENC   =   -103053.20211874
  -exchange      EXHF   =         0.00000000
  -V(xc)+E(xc)   XCENC  =     -6592.04448512
  PAW double counting   =     19435.03391184   -11386.38506614
  entropy T*S    EENTRO =        -0.07953262
  eigenvalues    EBANDS =     -2450.59848977
  atomic energy  EATOM  =     14019.20197576
  Solvation  Ediel_sol  =         0.00000000
  ---------------------------------------------------
  free energy    TOTEN  =      -936.71449215 eV

  energy without entropy =     -936.63495953  energy(sigma->0) =     -936.67472584


--------------------------------------------------------------------------------------------------------




----------------------------------------- Iteration    1(   8)  ---------------------------------------


    POTLOK:  cpu time    0.6898: real time    0.6899
    SETDIJ:  cpu time    0.0864: real time    0.0864
     EDDAV:  cpu time   21.9230: real time   24.8005
       DOS:  cpu time    0.0010: real time    0.0010
    CHARGE:  cpu time    1.6387: real time    1.6679
    MIXING:  cpu time    0.0262: real time    0.0262
    --------------------------------------------
      LOOP:  cpu time   24.3668: real time   27.2912

 eigenvalue-minimisations  :  3984
 total energy-change (2. order) :-0.1503605E+01  (-0.3954002E+01)
 number of electron     766.0000017 magnetization 
 augmentation part       -9.9891569 magnetization 

 Broyden mixing:
  rms(total) = 0.69448E+00    rms(broyden)= 0.69325E+00
  rms(prec ) = 0.14304E+01
  weight for this iteration     100.00

 eigenvalues of (default mixing * dielectric matrix)
  average eigenvalue GAMMA=   1.0800
  2.4111  0.5508  0.2780

 Free energy of the ion-electron system (eV)
  ---------------------------------------------------
  alpha Z        PSCENC =       505.22967617
  Ewald energy   TEWEN  =     88586.12963646
  -Hartree energ DENC   =   -103178.72176629
  -exchange      EXHF   =         0.00000000
  -V(xc)+E(xc)   XCENC  =     -6584.38987554
  PAW double counting   =     20760.85553296   -12712.90360381
  entropy T*S    EENTRO =        -0.10739788
  eigenvalues    EBANDS =     -2333.51227512
  atomic energy  EATOM  =     14019.20197576
  Solvation  Ediel_sol  =         0.00000000
  ---------------------------------------------------
  free energy    TOTEN  =      -938.21809729 eV

  energy without entropy =     -938.11069941  energy(sigma->0) =     -938.16439835


--------------------------------------------------------------------------------------------------------




----------------------------------------- Iteration    1(   9)  ---------------------------------------


    POTLOK:  cpu time    0.6823: real time    0.6823
    SETDIJ:  cpu time    0.0867: real time    0.0867
     EDDAV:  cpu time   22.5736: real time   25.4661
       DOS:  cpu time    0.0020: real time    0.0020
    CHARGE:  cpu time    1.6472: real time    1.6768
    MIXING:  cpu time    0.0277: real time    0.0277
    --------------------------------------------
      LOOP:  cpu time   25.0211: real time   27.9443

 eigenvalue-minimisations  :  4128
 total energy-change (2. order) :-0.4039349E+01  (-0.6251141E+00)
 number of electron     766.0000012 magnetization 
 augmentation part      -10.1388288 magnetization 

 Broyden mixing:
  rms(total) = 0.69745E+00    rms(broyden)= 0.69647E+00
  rms(prec ) = 0.23089E+01
  weight for this iteration     100.00

 eigenvalues of (default mixing * dielectric matrix)
  average eigenvalue GAMMA=   0.9013
  2.4998  0.6643  0.2812  0.1599

 Free energy of the ion-electron system (eV)
  ---------------------------------------------------
  alpha Z        PSCENC =       505.22967617
  Ewald energy   TEWEN  =     88586.12963646
  -Hartree energ DENC   =   -103275.24479795
  -exchange      EXHF   =         0.00000000
  -V(xc)+E(xc)   XCENC  =     -6580.14057723
  PAW double counting   =     21413.20919716   -13365.74390915
  entropy T*S    EENTRO =        -0.07952487
  eigenvalues    EBANDS =     -2244.81912302
  atomic energy  EATOM  =     14019.20197576
  Solvation  Ediel_sol  =         0.00000000
  ---------------------------------------------------
  free energy    TOTEN  =      -942.25744667 eV

  energy without entropy =     -942.17792180  energy(sigma->0) =     -942.21768423


--------------------------------------------------------------------------------------------------------




----------------------------------------- Iteration    1(  10)  ---------------------------------------


    POTLOK:  cpu time    0.6899: real time    0.6899
    SETDIJ:  cpu time    0.0863: real time    0.0863
     EDDAV:  cpu time   22.9432: real time   25.8672
       DOS:  cpu time    0.0024: real time    0.0024
    CHARGE:  cpu time    1.6465: real time    1.6760
    MIXING:  cpu time    0.0290: real time    0.0290
    --------------------------------------------
      LOOP:  cpu time   25.3989: real time   28.3542

 eigenvalue-minimisations  :  4212
 total energy-change (2. order) : 0.8198229E+01  (-0.5006562E+00)
 number of electron     766.0000008 magnetization 
 augmentation part      -10.1917260 magnetization 

 Broyden mixing:
  rms(total) = 0.23653E+00    rms(broyden)= 0.23645E+00
  rms(prec ) = 0.31759E+00
  weight for this iteration     100.00

 eigenvalues of (default mixing * dielectric matrix)
  average eigenvalue GAMMA=   0.8373
  2.4987  0.8342  0.4247  0.2854  0.1435

 Free energy of the ion-electron system (eV)
  ---------------------------------------------------
  alpha Z        PSCENC =       505.22967617
  Ewald energy   TEWEN  =     88586.12963646
  -Hartree energ DENC   =   -103389.22262170
  -exchange      EXHF   =         0.00000000
  -V(xc)+E(xc)   XCENC  =     -6574.72895301
  PAW double counting   =     22232.58736451   -14185.78208252
  entropy T*S    EENTRO =        -0.05377926
  eigenvalues    EBANDS =     -2127.42043377
  atomic energy  EATOM  =     14019.20197576
  Solvation  Ediel_sol  =         0.00000000
  ---------------------------------------------------
  free energy    TOTEN  =      -934.05921737 eV

  energy without entropy =     -934.00543810  energy(sigma->0) =     -934.03232773


--------------------------------------------------------------------------------------------------------




----------------------------------------- Iteration    1(  11)  ---------------------------------------


    POTLOK:  cpu time    0.6853: real time    0.6853
    SETDIJ:  cpu time    0.0866: real time    0.0866
     EDDAV:  cpu time   22.2456: real time   25.0706
       DOS:  cpu time    0.0319: real time    0.0320
    CHARGE:  cpu time    1.6412: real time    1.6704
    MIXING:  cpu time    0.0301: real time    0.0301
    --------------------------------------------
      LOOP:  cpu time   24.7222: real time   27.5782

 eigenvalue-minimisations  :  4044
 total energy-change (2. order) : 0.7254229E-01  (-0.2640914E+00)
 number of electron     766.0000012 magnetization 
 augmentation part      -10.2030738 magnetization 

 Broyden mixing:
  rms(total) = 0.10748E+00    rms(broyden)= 0.10705E+00
  rms(prec ) = 0.15172E+00
  weight for this iteration     100.00

 eigenvalues of (default mixing * dielectric matrix)
  average eigenvalue GAMMA=   0.8437
  2.3919  1.2756  0.5480  0.4203  0.2866  0.1399

 Free energy of the ion-electron system (eV)
  ---------------------------------------------------
  alpha Z        PSCENC =       505.22967617
  Ewald energy   TEWEN  =     88586.12963646
  -Hartree energ DENC   =   -103409.31367245
  -exchange      EXHF   =         0.00000000
  -V(xc)+E(xc)   XCENC  =     -6574.31369784
  PAW double counting   =     22277.59064041   -14230.89042498
  entropy T*S    EENTRO =        -0.05900574
  eigenvalues    EBANDS =     -2107.56180287
  atomic energy  EATOM  =     14019.20197576
  Solvation  Ediel_sol  =         0.00000000
  ---------------------------------------------------
  free energy    TOTEN  =      -933.98667508 eV

  energy without entropy =     -933.92766934  energy(sigma->0) =     -933.95717221


--------------------------------------------------------------------------------------------------------




----------------------------------------- Iteration    1(  12)  ---------------------------------------


    POTLOK:  cpu time    0.6921: real time    0.6922
    SETDIJ:  cpu time    0.0870: real time    0.0870
     EDDAV:  cpu time   22.5380: real time   25.4979
       DOS:  cpu time    0.0021: real time    0.0021
    CHARGE:  cpu time    1.6408: real time    1.6702
    MIXING:  cpu time    0.0320: real time    0.0351
    --------------------------------------------
      LOOP:  cpu time   24.9936: real time   27.9870

 eigenvalue-minimisations  :  4128
 total energy-change (2. order) : 0.1242570E-01  (-0.5442143E-01)
 number of electron     766.0000015 magnetization 
 augmentation part      -10.1672830 magnetization 

 Broyden mixing:
  rms(total) = 0.10413E+00    rms(broyden)= 0.10345E+00
  rms(prec ) = 0.12632E+00
  weight for this iteration     100.00

 eigenvalues of (default mixing * dielectric matrix)
  average eigenvalue GAMMA=   0.9135
  2.5225  1.4410  0.7708  0.7708  0.4612  0.2884  0.1398

 Free energy of the ion-electron system (eV)
  ---------------------------------------------------
  alpha Z        PSCENC =       505.22967617
  Ewald energy   TEWEN  =     88586.12963646
  -Hartree energ DENC   =   -103452.79568785
  -exchange      EXHF   =         0.00000000
  -V(xc)+E(xc)   XCENC  =     -6574.05969727
  PAW double counting   =     22246.92284953   -14200.53352272
  entropy T*S    EENTRO =        -0.06908104
  eigenvalues    EBANDS =     -2064.00039840
  atomic energy  EATOM  =     14019.20197576
  Solvation  Ediel_sol  =         0.00000000
  ---------------------------------------------------
  free energy    TOTEN  =      -933.97424938 eV

  energy without entropy =     -933.90516833  energy(sigma->0) =     -933.93970886


--------------------------------------------------------------------------------------------------------




----------------------------------------- Iteration    1(  13)  ---------------------------------------


    POTLOK:  cpu time    0.6958: real time    0.6958
    SETDIJ:  cpu time    0.0878: real time    0.0878
     EDDAV:  cpu time   21.9392: real time   24.7757
       DOS:  cpu time    0.0010: real time    0.0010
    CHARGE:  cpu time    1.6522: real time    1.6816
    MIXING:  cpu time    0.0328: real time    0.0328
    --------------------------------------------
      LOOP:  cpu time   24.4102: real time   27.2773

 eigenvalue-minimisations  :  3984
 total energy-change (2. order) : 0.4141830E-01  (-0.8301567E-02)
 number of electron     766.0000013 magnetization 
 augmentation part      -10.1917017 magnetization 

 Broyden mixing:
  rms(total) = 0.46511E-01    rms(broyden)= 0.46251E-01
  rms(prec ) = 0.66593E-01
  weight for this iteration     100.00

 eigenvalues of (default mixing * dielectric matrix)
  average eigenvalue GAMMA=   0.9980
  2.4322  2.1815  0.9665  0.9665  0.1398  0.2880  0.5047  0.5047

 Free energy of the ion-electron system (eV)
  ---------------------------------------------------
  alpha Z        PSCENC =       505.22967617
  Ewald energy   TEWEN  =     88586.12963646
  -Hartree energ DENC   =   -103484.86943439
  -exchange      EXHF   =         0.00000000
  -V(xc)+E(xc)   XCENC  =     -6573.25887180
  PAW double counting   =     22303.44013355   -14257.22046306
  entropy T*S    EENTRO =        -0.05922585
  eigenvalues    EBANDS =     -2032.52625791
  atomic energy  EATOM  =     14019.20197576
  Solvation  Ediel_sol  =         0.00000000
  ---------------------------------------------------
  free energy    TOTEN  =      -933.93283108 eV

  energy without entropy =     -933.87360523  energy(sigma->0) =     -933.90321816


--------------------------------------------------------------------------------------------------------




----------------------------------------- Iteration    1(  14)  ---------------------------------------


    POTLOK:  cpu time    0.6833: real time    0.6833
    SETDIJ:  cpu time    0.0872: real time    0.0872
     EDDAV:  cpu time   20.1637: real time   22.8697
       DOS:  cpu time    0.0012: real time    0.0012
    CHARGE:  cpu time    1.6530: real time    1.6824
    MIXING:  cpu time    0.0343: real time    0.0343
    --------------------------------------------
      LOOP:  cpu time   22.6242: real time   25.3618

 eigenvalue-minimisations  :  3564
 total energy-change (2. order) : 0.1930342E-01  (-0.5106455E-02)
 number of electron     766.0000013 magnetization 
 augmentation part      -10.1869114 magnetization 

 Broyden mixing:
  rms(total) = 0.28137E-01    rms(broyden)= 0.28128E-01
  rms(prec ) = 0.45654E-01
  weight for this iteration     100.00

 eigenvalues of (default mixing * dielectric matrix)
  average eigenvalue GAMMA=   1.0154
  2.5892  2.5892  0.9305  0.9305  0.6052  0.6052  0.4611  0.1398  0.2881

 Free energy of the ion-electron system (eV)
  ---------------------------------------------------
  alpha Z        PSCENC =       505.22967617
  Ewald energy   TEWEN  =     88586.12963646
  -Hartree energ DENC   =   -103518.72252817
  -exchange      EXHF   =         0.00000000
  -V(xc)+E(xc)   XCENC  =     -6572.86116040
  PAW double counting   =     22301.14202859   -14255.07490541
  entropy T*S    EENTRO =        -0.06160251
  eigenvalues    EBANDS =     -1998.89664815
  atomic energy  EATOM  =     14019.20197576
  Solvation  Ediel_sol  =         0.00000000
  ---------------------------------------------------
  free energy    TOTEN  =      -933.91352766 eV

  energy without entropy =     -933.85192515  energy(sigma->0) =     -933.88272641


--------------------------------------------------------------------------------------------------------




----------------------------------------- Iteration    1(  15)  ---------------------------------------


    POTLOK:  cpu time    0.6916: real time    0.6916
    SETDIJ:  cpu time    0.0862: real time    0.0862
     EDDAV:  cpu time   20.7310: real time   23.3810
       DOS:  cpu time    0.0118: real time    0.0118
    CHARGE:  cpu time    1.6309: real time    1.6599
    MIXING:  cpu time    0.0366: real time    0.0366
    --------------------------------------------
      LOOP:  cpu time   23.1896: real time   25.8697

 eigenvalue-minimisations  :  3684
 total energy-change (2. order) : 0.8992969E-02  (-0.1966990E-02)
 number of electron     766.0000013 magnetization 
 augmentation part      -10.1828412 magnetization 

 Broyden mixing:
  rms(total) = 0.18673E-01    rms(broyden)= 0.18668E-01
  rms(prec ) = 0.29537E-01
  weight for this iteration     100.00

 eigenvalues of (default mixing * dielectric matrix)
  average eigenvalue GAMMA=   1.0461
  2.6658  2.6658  1.1411  1.1411  0.1398  0.2881  0.7169  0.7169  0.4821  0.5033

 Free energy of the ion-electron system (eV)
  ---------------------------------------------------
  alpha Z        PSCENC =       505.22967617
  Ewald energy   TEWEN  =     88586.12963646
  -Hartree energ DENC   =   -103547.78819152
  -exchange      EXHF   =         0.00000000
  -V(xc)+E(xc)   XCENC  =     -6572.55798938
  PAW double counting   =     22295.22779123   -14249.23973809
  entropy T*S    EENTRO =        -0.06045423
  eigenvalues    EBANDS =     -1970.04724109
  atomic energy  EATOM  =     14019.20197576
  Solvation  Ediel_sol  =         0.00000000
  ---------------------------------------------------
  free energy    TOTEN  =      -933.90453469 eV

  energy without entropy =     -933.84408046  energy(sigma->0) =     -933.87430758


--------------------------------------------------------------------------------------------------------




----------------------------------------- Iteration    1(  16)  ---------------------------------------


    POTLOK:  cpu time    0.6879: real time    0.6880
    SETDIJ:  cpu time    0.0862: real time    0.0862
     EDDAV:  cpu time   21.1467: real time   23.8527
       DOS:  cpu time    0.0139: real time    0.0139
    CHARGE:  cpu time    1.6374: real time    1.6668
    MIXING:  cpu time    0.0386: real time    0.0386
    --------------------------------------------
      LOOP:  cpu time   23.6123: real time   26.3489

 eigenvalue-minimisations  :  3792
 total energy-change (2. order) :-0.4226318E-02  (-0.7351375E-03)
 number of electron     766.0000013 magnetization 
 augmentation part      -10.1809181 magnetization 

 Broyden mixing:
  rms(total) = 0.13423E-01    rms(broyden)= 0.13421E-01
  rms(prec ) = 0.20768E-01
  weight for this iteration     100.00

 eigenvalues of (default mixing * dielectric matrix)
  average eigenvalue GAMMA=   1.1969
  3.6161  2.6165  2.2222  0.9546  0.9546  0.1398  0.2881  0.7885  0.5857  0.4645
  0.5348

 Free energy of the ion-electron system (eV)
  ---------------------------------------------------
  alpha Z        PSCENC =       505.22967617
  Ewald energy   TEWEN  =     88586.12963646
  -Hartree energ DENC   =   -103563.38685152
  -exchange      EXHF   =         0.00000000
  -V(xc)+E(xc)   XCENC  =     -6572.43421778
  PAW double counting   =     22292.15144998   -14246.14163637
  entropy T*S    EENTRO =        -0.06021968
  eigenvalues    EBANDS =     -1954.59857402
  atomic energy  EATOM  =     14019.20197576
  Solvation  Ediel_sol  =         0.00000000
  ---------------------------------------------------
  free energy    TOTEN  =      -933.90876101 eV

  energy without entropy =     -933.84854133  energy(sigma->0) =     -933.87865117


--------------------------------------------------------------------------------------------------------




----------------------------------------- Iteration    1(  17)  ---------------------------------------


    POTLOK:  cpu time    0.7035: real time    0.7035
    SETDIJ:  cpu time    0.0866: real time    0.0866
     EDDAV:  cpu time   19.3219: real time   21.8975
       DOS:  cpu time    0.0018: real time    0.0018
    CHARGE:  cpu time    1.6384: real time    1.6676
    MIXING:  cpu time    0.0395: real time    0.0395
    --------------------------------------------
[...]
     11.69112     -8.59029     -8.26601        -0.060983     -0.018890     -0.002575
     11.69112    -17.18057    -13.22561         0.010769      0.007409     -0.028805
     11.69112    -11.45372     -3.30640        -0.001926     -0.002066     -0.032710
     11.69112    -14.31714     -8.26601         0.005256      0.031505      0.012589
     13.99306      0.00000      0.00000         0.005549     -0.006938      0.007268
     13.99306     -2.86343     -4.95960         0.009069     -0.009002      0.007285
     13.99306     -5.72686     -9.91921         0.002004      0.027129     -0.007983
     13.99306     -5.72686      0.00000         0.011413     -0.000981     -0.008975
     13.99306     -8.59029     -4.95960        -0.078830     -0.002441      0.007145
     13.99306    -11.45372     -9.91921        -0.019771      0.023553      0.030422
     13.99306    -11.45372      0.00000        -0.004078     -0.003930      0.017725
     13.99306    -14.31714     -4.95960         0.017066      0.021821     -0.010491
     13.99306    -17.18057     -9.91921        -0.015392      0.016806      0.013301
     16.34180     -2.86343     -1.65320        -0.020129     -0.018813      0.008377
     16.34180     -5.72686     -6.61281         0.035714     -0.015835     -0.006153
     16.34180     -8.59029    -11.57241         0.047085      0.004391      0.001364
     16.34180     -8.59029     -1.65320         0.035835      0.002891     -0.014074
     16.34180    -11.45372     -6.61281        -0.243161     -0.414070     -0.047565
     16.34180    -14.31714    -11.57241         0.010955      0.010900     -0.000628
     16.34180    -14.31714     -1.65320         0.010530      0.004951     -0.002200
     16.34180    -17.18057     -6.61281         0.003701      0.017150     -0.004574
     16.34180    -20.04400    -11.57241        -0.003698     -0.016004     -0.011366
      2.36204     -7.15857     -4.13300        -0.009446     -0.004319      0.001518
      2.36204    -10.02200     -9.09261        -0.016582     -0.000000     -0.012983
      2.36204    -12.88543    -14.05221        -0.003136      0.004725     -0.008778
      2.36204    -12.88543     -4.13300        -0.009446      0.004319      0.001518
      2.36204    -15.74886     -9.09261         0.010760     -0.011302     -0.013320
      2.36204    -18.61229    -14.05221         0.001435      0.000000     -0.018525
      2.36204    -18.61229     -4.13300        -0.003579     -0.000000     -0.003297
      2.36204    -21.47572     -9.09261         0.010760      0.011302     -0.013320
      2.36204    -24.33915    -14.05221        -0.003136     -0.004725     -0.008778
      4.71078    -10.02200     -5.78621         0.014660      0.000000      0.017406
      4.71078    -12.88543    -10.74581        -0.006434      0.018292      0.005160
      4.71078     -7.15857     -0.82660        -0.003955      0.003091     -0.008216
      4.71078    -15.74886     -5.78621        -0.012101      0.008557      0.002864
      4.71078    -18.61229    -10.74581        -0.003542     -0.000000      0.009058
      4.71078    -12.88543     -0.82660        -0.003955     -0.003091     -0.008216
      4.71078     -4.29514     -5.78621        -0.012101     -0.008557      0.002864
      4.71078     -7.15857    -10.74581        -0.006434     -0.018292      0.005160
      4.71078     -1.43171     -0.82660        -0.009896     -0.000000     -0.010946
      7.01272    -12.88543     -7.43941         0.011341      0.001282     -0.001973
      7.01272    -15.74886    -12.39901         0.010101     -0.015776      0.011087
      7.01272    -10.02200     -2.47980         0.004345     -0.000000     -0.019515
      7.01272    -18.61229     -7.43941         0.011147     -0.000000      0.000476
      7.01272    -21.47572    -12.39901         0.010101      0.015776      0.011087
      7.01272    -15.74886     -2.47980         0.005904      0.000279      0.009266
      7.01272     -7.15857     -7.43941         0.011341     -0.001282     -0.001973
      7.01272    -10.02200    -12.39901        -0.003599      0.000000      0.014309
      7.01272     -4.29514     -2.47980         0.005904     -0.000279      0.009266
      9.35192    -15.74886     -9.09261        -0.011547     -0.008858      0.007476
      9.35192    -18.61229    -14.05221        -0.013838     -0.000000      0.000248
      9.35192    -12.88543     -4.13300         0.019727      0.024175     -0.016547
      9.35192    -21.47572     -9.09261        -0.011547      0.008858      0.007476
      9.35192    -24.33915    -14.05221         0.011997     -0.007028     -0.007969
      9.35192    -18.61229     -4.13300        -0.004848     -0.000000     -0.007313
      9.35192    -10.02200     -9.09261         0.003886     -0.000000     -0.004557
      9.35192    -12.88543    -14.05221         0.011997      0.007028     -0.007969
      9.35192     -7.15857     -4.13300         0.019727     -0.024175     -0.016547
     11.69112    -18.61229    -10.74581         0.026906      0.000000      0.016769
     11.69112    -12.88543     -0.82660         0.005260      0.007194     -0.005857
     11.69112    -15.74886     -5.78621        -0.013366      0.005333      0.003850
     11.69112     -7.15857    -10.74581        -0.010960     -0.010839      0.019501
     11.69112     -1.43171     -0.82660         0.000356     -0.000000      0.014027
     11.69112     -4.29514     -5.78621        -0.013366     -0.005333      0.003850
     11.69112    -12.88543    -10.74581        -0.010960      0.010839      0.019501
     11.69112     -7.15857     -0.82660         0.005260     -0.007194     -0.005857
     11.69112    -10.02200     -5.78621        -0.072463     -0.000000     -0.010777
     13.99306    -21.47572    -12.39901        -0.003200     -0.012276      0.004174
     13.99306    -15.74886     -2.47980         0.010973     -0.003023     -0.004006
     13.99306    -18.61229     -7.43941        -0.003747      0.000000     -0.008323
     13.99306    -10.02200    -12.39901         0.015848      0.000000     -0.006215
     13.99306     -4.29514     -2.47980         0.010973      0.003023     -0.004006
     13.99306     -7.15857     -7.43941        -0.103263      0.023988      0.004271
     13.99306    -15.74886    -12.39901        -0.003200      0.012276      0.004174
     13.99306    -10.02200     -2.47980        -0.015709     -0.000000     -0.014462
     13.99306    -12.88543     -7.43941        -0.103263     -0.023988      0.004271
     16.34180    -24.33915    -14.05221         0.000063     -0.005617      0.004910
     16.34180    -18.61229     -4.13300        -0.005246      0.000000     -0.008886
     16.34180    -21.47572     -9.09261         0.014898     -0.006848      0.012340
     16.34180    -12.88543    -14.05221         0.000063      0.005617      0.004910
     16.34180     -7.15857     -4.13300         0.029709     -0.013851      0.004429
     16.34180    -10.02200     -9.09261         0.019085     -0.000000      0.147094
     16.34180    -18.61229    -14.05221         0.010774      0.000000     -0.012748
     16.34180    -12.88543     -4.13300         0.029709      0.013851      0.004429
     16.34180    -15.74886     -9.09261         0.014898      0.006848      0.012340
      2.36204     -8.59029     -6.61281        -0.023962      0.020791      0.007886
      2.36204    -11.45372    -11.57241        -0.008045     -0.002108     -0.004631
      2.36204     -5.72686     -1.65320        -0.007910      0.005623     -0.001943
      2.36204    -14.31714     -6.61281        -0.000664     -0.000330      0.015845
      2.36204    -17.18057    -11.57241        -0.008726      0.020509      0.003912
      2.36204    -11.45372     -1.65320         0.005054     -0.007011     -0.000739
      2.36204    -20.04400     -6.61281         0.001152      0.002415      0.007541
      2.36204    -22.90743    -11.57241         0.003868     -0.003244      0.003943
      2.36204    -17.18057     -1.65320        -0.007987      0.001858      0.001344
      4.71078    -11.45372     -8.26601         0.002508     -0.021419     -0.007972
      4.71078    -14.31714    -13.22561        -0.007559     -0.003540     -0.000805
      4.71078     -8.59029     -3.30640        -0.006164     -0.011766     -0.001554
      4.71078    -17.18057     -8.26601        -0.003397     -0.016042     -0.001408
      4.71078    -20.04400    -13.22561        -0.020913     -0.005170      0.005076
      4.71078    -14.31714     -3.30640        -0.006852     -0.003706     -0.001468
      4.71078     -5.72686     -8.26601         0.004445     -0.015270      0.015236
      4.71078     -8.59029    -13.22561        -0.015396     -0.004406      0.005769
      4.71078     -2.86343     -3.30640        -0.016893      0.005741      0.004587
      7.01272    -14.31714     -9.91921         0.009463      0.007291      0.005907
      7.01272     -8.59029      0.00000         0.017249     -0.011689     -0.000753
      7.01272    -11.45372     -4.95960         0.016206     -0.007078      0.009894
      7.01272    -20.04400     -9.91921         0.008994     -0.001423     -0.011819
      7.01272    -14.31714      0.00000         0.006329      0.004856      0.000353
      7.01272    -17.18057     -4.95960         0.016331     -0.009532     -0.008615
      7.01272     -8.59029     -9.91921         0.006450     -0.000131      0.020087
      7.01272     -2.86343      0.00000         0.001019      0.002732     -0.021490
      7.01272     -5.72686     -4.95960         0.009328     -0.027422     -0.015815
      9.35192    -17.18057    -11.57241        -0.020239      0.009584     -0.012564
      9.35192    -11.45372     -1.65320        -0.009884      0.005742     -0.016579
      9.35192    -14.31714     -6.61281         0.008295      0.037767     -0.001175
      9.35192    -22.90743    -11.57241         0.002334     -0.003370     -0.006075
      9.35192    -17.18057     -1.65320         0.002852      0.010116      0.004152
      9.35192    -20.04400     -6.61281         0.001019      0.006526      0.003812
      9.35192    -11.45372    -11.57241        -0.004057      0.001509      0.017927
      9.35192     -5.72686     -1.65320         0.001233      0.002141      0.001688
      9.35192     -8.59029     -6.61281        -0.006667      0.021891      0.004019
     11.69112    -20.04400    -13.22561         0.010769     -0.007409     -0.028805
     11.69112    -14.31714     -3.30640        -0.015988      0.007889     -0.010398
     11.69112    -17.18057     -8.26601         0.010147      0.019056     -0.001137
     11.69112     -8.59029    -13.22561        -0.001879     -0.000675      0.011865
     11.69112     -2.86343     -3.30640        -0.002291     -0.017963     -0.014191
     11.69112     -5.72686     -8.26601         0.005256     -0.031505      0.012589
     11.69112    -14.31714    -13.22561        -0.010582      0.008915      0.007786
     11.69112     -8.59029     -3.30640        -0.001926      0.002066     -0.032710
     11.69112    -11.45372     -8.26601        -0.060983      0.018890     -0.002575
     13.99306    -14.31714      0.00000         0.011413      0.000981     -0.008975
     13.99306    -17.18057     -4.95960         0.009069      0.009002      0.007285
     13.99306    -20.04400     -9.91921        -0.015392     -0.016806      0.013301
     13.99306     -2.86343      0.00000         0.005549      0.006938      0.007268
     13.99306     -5.72686     -4.95960         0.017066     -0.021821     -0.010491
     13.99306     -8.59029     -9.91921        -0.019771     -0.023553      0.030422
     13.99306     -8.59029      0.00000        -0.004078      0.003930      0.017725
     13.99306    -11.45372     -4.95960        -0.078830      0.002441      0.007145
     13.99306    -14.31714     -9.91921         0.002004     -0.027129     -0.007983
     16.34180    -17.18057     -1.65320        -0.020129      0.018813      0.008377
     16.34180    -20.04400     -6.61281         0.003701     -0.017150     -0.004574
     16.34180    -22.90743    -11.57241         0.010955     -0.010900     -0.000628
     16.34180     -5.72686     -1.65320         0.010530     -0.004951     -0.002200
     16.34180     -8.59029     -6.61281        -0.243161      0.414070     -0.047565
     16.34180    -11.45372    -11.57241         0.047085     -0.004391      0.001364
     16.34180    -11.45372     -1.65320         0.035835     -0.002891     -0.014074
     16.34180    -14.31714     -6.61281         0.035714      0.015835     -0.006153
     16.34180    -17.18057    -11.57241        -0.003698      0.016004     -0.011366
      2.36204    -10.02200     -4.13300        -0.020007     -0.000000     -0.002170
      2.36204    -12.88543     -9.09261        -0.007157      0.019837     -0.012438
      2.36204    -15.74886    -14.05221        -0.004530     -0.003124      0.006175
      2.36204    -15.74886     -4.13300        -0.002567     -0.005089      0.002602
      2.36204    -18.61229     -9.09261        -0.013617     -0.000000     -0.003306
      2.36204    -21.47572    -14.05221        -0.004530      0.003124      0.006175
      2.36204     -4.29514     -4.13300        -0.002567      0.005089      0.002602
      2.36204     -7.15857     -9.09261        -0.007157     -0.019837     -0.012438
      2.36204    -10.02200    -14.05221        -0.004868      0.000000      0.007863
      4.71078    -12.88543     -5.78621         0.002715      0.002668     -0.013477
      4.71078    -15.74886    -10.74581        -0.009444     -0.010506     -0.006704
      4.71078    -10.02200     -0.82660         0.000555      0.000000     -0.009222
      4.71078    -18.61229     -5.78621        -0.010982     -0.000000      0.000051
      4.71078    -21.47572    -10.74581        -0.009444      0.010506     -0.006704
      4.71078    -15.74886     -0.82660        -0.012446     -0.009679     -0.006613
      4.71078     -7.15857     -5.78621         0.002715     -0.002668     -0.013477
      4.71078    -10.02200    -10.74581         0.006081     -0.000000      0.005959
      4.71078     -4.29514     -0.82660        -0.012446      0.009679     -0.006613
      7.01272    -15.74886     -7.43941         0.002105      0.010223     -0.003391
      7.01272    -18.61229    -12.39901         0.029374     -0.000000     -0.000598
      7.01272    -12.88543     -2.47980         0.002666      0.017742     -0.018710
      7.01272    -21.47571     -7.43941         0.002105     -0.010223     -0.003391
      7.01272    -24.33914    -12.39901         0.005787      0.005648      0.012594
      7.01272    -18.61228     -2.47980         0.005122      0.000000      0.005244
      7.01272    -10.02200     -7.43941         0.034168      0.000000     -0.014580
      7.01272    -12.88543    -12.39901         0.005787     -0.005648      0.012594
      7.01272     -7.15857     -2.47980         0.002666     -0.017742     -0.018710
      9.35192    -18.61229     -9.09261        -0.017574     -0.000000      0.015048
      9.35192    -21.47572    -14.05221        -0.001981     -0.000078     -0.001232
      9.35192    -15.74886     -4.13300        -0.005699     -0.010310      0.002918
      9.35192     -7.15857     -9.09261         0.016188     -0.024829      0.025084
      9.35192    -10.02200    -14.05221         0.014460      0.000000     -0.005904
      9.35192     -4.29514     -4.13300        -0.005699      0.010310      0.002918
      9.35192    -12.88543     -9.09261         0.016188      0.024829      0.025084
      9.35192    -15.74886    -14.05221        -0.001981      0.000078     -0.001232
      9.35192    -10.02200     -4.13300         0.015762     -0.000000     -0.001316
     11.69112    -21.47572    -10.74581         0.021434     -0.010772      0.013573
     11.69112    -15.74886     -0.82660        -0.006344      0.002231     -0.003129
     11.69112    -18.61229     -5.78621        -0.012399     -0.000000      0.010775
     11.69112    -10.02200    -10.74581         0.006047     -0.000000      0.024539
     11.69112     -4.29514     -0.82660        -0.006344     -0.002231     -0.003129
     11.69112     -7.15857     -5.78621        -0.027658      0.004599      0.017376
     11.69112    -15.74886    -10.74581         0.021434      0.010772      0.013573
     11.69112    -10.02200     -0.82660         0.001967     -0.000000      0.001118
     11.69112    -12.88543     -5.78621        -0.027658     -0.004599      0.017376
     13.99306    -24.33914    -12.39901         0.026237      0.001697     -0.007258
     13.99306    -18.61228     -2.47980        -0.012712     -0.000000      0.001223
     13.99306    -21.47571     -7.43941         0.015584      0.023195     -0.010058
     13.99306    -12.88543    -12.39901         0.026237     -0.001697     -0.007258
     13.99306     -7.15857     -2.47980        -0.001302      0.005496      0.012323
     13.99306    -10.02200     -7.43941         0.167027      0.000000      0.062204
     13.99306    -18.61229    -12.39901        -0.011323     -0.000000     -0.002795
     13.99306    -12.88543     -2.47980        -0.001302     -0.005496      0.012323
     13.99306    -15.74886     -7.43941         0.015584     -0.023195     -0.010058
     16.34180    -10.02200    -14.05221         0.006299     -0.000000      0.008088
     16.34180     -4.29514     -4.13300         0.013272     -0.006145      0.000119
     16.34180     -7.15857     -9.09261        -0.013137     -0.003720      0.003125
     16.34180    -15.74886    -14.05221         0.006954     -0.005615     -0.003909
     16.34180    -10.02200     -4.13300        -0.016856      0.000000     -0.055335
     16.34180    -12.88543     -9.09261        -0.013137      0.003720      0.003125
     16.34180    -21.47572    -14.05221         0.006954      0.005615     -0.003909
     16.34180    -15.74886     -4.13300         0.013272      0.006145      0.000119
     16.34180    -18.61229     -9.09261         0.002716      0.000000      0.012684
     18.04000    -10.02200     -7.24000         0.405445      0.000000      0.410289
     18.04000    -10.02200     -5.98600         0.151524      0.000000     -0.506747
 -----------------------------------------------------------------------------------
    total drift:                                0.117042      0.000208     -0.000584


--------------------------------------------------------------------------------------------------------



  FREE ENERGIE OF THE ION-ELECTRON SYSTEM (eV)
  ---------------------------------------------------
  free  energy   TOTEN  =      -933.93299134 eV

  energy  without entropy=     -933.87359834  energy(sigma->0) =     -933.90329484
 


--------------------------------------------------------------------------------------------------------


    POTLOK:  cpu time    0.7970: real time    0.7973


--------------------------------------------------------------------------------------------------------


     LOOP+:  cpu time  696.9568: real time  780.5097
    4ORBIT:  cpu time    0.0000: real time    0.0000

 total amount of memory used by VASP MPI-rank0   652164. kBytes
=======================================================================

   base      :      30000. kBytes
   nonlr-proj:      89943. kBytes
   fftplans  :      40601. kBytes
   grid      :      95147. kBytes
   one-center:       3950. kBytes
   wavefun   :     392523. kBytes
 
  
  
 General timing and accounting informations for this job:
 ========================================================
  
                  Total CPU time used (sec):      711.283
                            User time (sec):      104.532
                          System time (sec):      606.751
                         Elapsed time (sec):      798.846
  
                   Maximum memory used (kb):     1004680.
                   Average memory used (kb):           0.
  
                          Minor page faults:     27214661
                          Major page faults:           24
                 Voluntary context switches:        18399
