 254 254   0   0
  0.3019211E+02  0.1718057E-08  0.1718057E-08  0.3000000E-08  0.5000000E-15
  1.000000000000000E-004
  CAR 
 NiAl                                    
      5.37629046    -21.29286360  301      1.81578588      1.00000000
    -21.293  0.0000E+00  0.0000E+00
    -21.204  0.0000E+00  0.0000E+00
    -21.115  0.0000E+00  0.0000E+00
    -21.026  0.0000E+00  0.0000E+00
    -20.937  0.0000E+00  0.0000E+00
    -20.848  0.0000E+00  0.0000E+00
    -20.759  0.0000E+00  0.0000E+00
    -20.671  0.0000E+00  0.0000E+00
    -20.582  0.0000E+00  0.0000E+00
    -20.493  0.0000E+00  0.0000E+00
    -20.404  0.0000E+00  0.0000E+00
    -20.315  0.3785E-09  0.3365E-10
    -20.226  0.4350E-03  0.3867E-04
    -20.137  0.1230E+01  0.1094E+00
    -20.048  0.1721E+02  0.1639E+01
    -19.959  0.4054E+01  0.1999E+01
    -19.871  0.6842E-02  0.2000E+01
    -19.782  0.3162E-07  0.2000E+01
    -19.693  0.0000E+00  0.2000E+01
    -19.604  0.0000E+00  0.2000E+01
    -19.515  0.0000E+00  0.2000E+01
    -19.426  0.0000E+00  0.2000E+01
    -19.337  0.0000E+00  0.2000E+01
    -19.248  0.0000E+00  0.2000E+01
    -19.159  0.0000E+00  0.2000E+01
    -19.070  0.0000E+00  0.2000E+01
    -18.982  0.0000E+00  0.2000E+01
    -18.893  0.0000E+00  0.2000E+01
    -18.804  0.0000E+00  0.2000E+01
    -18.715  0.0000E+00  0.2000E+01
    -18.626  0.0000E+00  0.2000E+01
    -18.537  0.0000E+00  0.2000E+01
    -18.448  0.0000E+00  0.2000E+01
    -18.359  0.0000E+00  0.2000E+01
    -18.270  0.0000E+00  0.2000E+01
    -18.181  0.0000E+00  0.2000E+01
    -18.093  0.0000E+00  0.2000E+01
    -18.004  0.0000E+00  0.2000E+01
    -17.915  0.0000E+00  0.2000E+01
    -17.826  0.0000E+00  0.2000E+01
    -17.737  0.0000E+00  0.2000E+01
    -17.648  0.0000E+00  0.2000E+01
    -17.559  0.0000E+00  0.2000E+01
    -17.470  0.0000E+00  0.2000E+01
    -17.381  0.0000E+00  0.2000E+01
    -17.292  0.0000E+00  0.2000E+01
    -17.204  0.0000E+00  0.2000E+01
    -17.115  0.0000E+00  0.2000E+01
    -17.026  0.0000E+00  0.2000E+01
    -16.937  0.0000E+00  0.2000E+01
    -16.848  0.0000E+00  0.2000E+01
    -16.759  0.0000E+00  0.2000E+01
    -16.670  0.0000E+00  0.2000E+01
    -16.581  0.0000E+00  0.2000E+01
    -16.492  0.0000E+00  0.2000E+01
    -16.404  0.0000E+00  0.2000E+01
    -16.315  0.0000E+00  0.2000E+01
    -16.226  0.0000E+00  0.2000E+01
    -16.137  0.0000E+00  0.2000E+01
    -16.048  0.0000E+00  0.2000E+01
    -15.959  0.0000E+00  0.2000E+01
    -15.870  0.0000E+00  0.2000E+01
    -15.781  0.0000E+00  0.2000E+01
    -15.692  0.0000E+00  0.2000E+01
    -15.603  0.0000E+00  0.2000E+01
    -15.515  0.0000E+00  0.2000E+01
    -15.426  0.0000E+00  0.2000E+01
    -15.337  0.0000E+00  0.2000E+01
    -15.248  0.0000E+00  0.2000E+01
    -15.159  0.0000E+00  0.2000E+01
    -15.070  0.0000E+00  0.2000E+01
    -14.981  0.0000E+00  0.2000E+01
    -14.892  0.0000E+00  0.2000E+01
    -14.803  0.0000E+00  0.2000E+01
    -14.714  0.0000E+00  0.2000E+01
    -14.626  0.0000E+00  0.2000E+01
    -14.537  0.0000E+00  0.2000E+01
    -14.448  0.0000E+00  0.2000E+01
    -14.359  0.0000E+00  0.2000E+01
    -14.270  0.0000E+00  0.2000E+01
    -14.181  0.0000E+00  0.2000E+01
    -14.092  0.0000E+00  0.2000E+01
    -14.003  0.0000E+00  0.2000E+01
    -13.914  0.0000E+00  0.2000E+01
    -13.826  0.0000E+00  0.2000E+01
    -13.737  0.0000E+00  0.2000E+01
    -13.648  0.0000E+00  0.2000E+01
    -13.559  0.0000E+00  0.2000E+01
    -13.470  0.0000E+00  0.2000E+01
    -13.381  0.0000E+00  0.2000E+01
    -13.292  0.0000E+00  0.2000E+01
    -13.203  0.0000E+00  0.2000E+01
    -13.114  0.0000E+00  0.2000E+01
    -13.025  0.0000E+00  0.2000E+01
    -12.937  0.0000E+00  0.2000E+01
    -12.848  0.0000E+00  0.2000E+01
    -12.759  0.0000E+00  0.2000E+01
    -12.670  0.0000E+00  0.2000E+01
    -12.581  0.0000E+00  0.2000E+01
    -12.492  0.0000E+00  0.2000E+01
    -12.403  0.0000E+00  0.2000E+01
    -12.314  0.0000E+00  0.2000E+01
    -12.225  0.0000E+00  0.2000E+01
    -12.136  0.0000E+00  0.2000E+01
    -12.048  0.0000E+00  0.2000E+01
    -11.959  0.0000E+00  0.2000E+01
    -11.870  0.0000E+00  0.2000E+01
    -11.781  0.0000E+00  0.2000E+01
    -11.692  0.0000E+00  0.2000E+01
    -11.603  0.0000E+00  0.2000E+01
    -11.514  0.0000E+00  0.2000E+01
    -11.425  0.0000E+00  0.2000E+01
    -11.336  0.0000E+00  0.2000E+01
    -11.247  0.0000E+00  0.2000E+01
    -11.159  0.0000E+00  0.2000E+01
    -11.070  0.0000E+00  0.2000E+01
    -10.981  0.0000E+00  0.2000E+01
    -10.892  0.0000E+00  0.2000E+01
    -10.803  0.0000E+00  0.2000E+01
    -10.714  0.0000E+00  0.2000E+01
    -10.625  0.0000E+00  0.2000E+01
    -10.536  0.0000E+00  0.2000E+01
    -10.447  0.0000E+00  0.2000E+01
    -10.359  0.0000E+00  0.2000E+01
    -10.270  0.0000E+00  0.2000E+01
    -10.181  0.0000E+00  0.2000E+01
    -10.092  0.0000E+00  0.2000E+01
    -10.003  0.0000E+00  0.2000E+01
     -9.914  0.0000E+00  0.2000E+01
     -9.825  0.0000E+00  0.2000E+01
     -9.736  0.0000E+00  0.2000E+01
     -9.647  0.0000E+00  0.2000E+01
     -9.558  0.0000E+00  0.2000E+01
     -9.470  0.0000E+00  0.2000E+01
     -9.381  0.1855E-12  0.2000E+01
     -9.292  0.1776E-05  0.2000E+01
     -9.203  0.3832E-01  0.2003E+01
     -9.114  0.2880E+01  0.2259E+01
     -9.025  0.3200E+01  0.2544E+01
     -8.936  0.2108E+02  0.4418E+01
     -8.847  0.1215E+02  0.5498E+01
     -8.758  0.3086E+01  0.5772E+01
     -8.669  0.6986E+01  0.6393E+01
     -8.581  0.6405E+02  0.1209E+02
     -8.492  0.2524E+02  0.1433E+02
     -8.403  0.2676E+02  0.1671E+02
     -8.314  0.5776E+01  0.1722E+02
     -8.225  0.2644E+02  0.1957E+02
     -8.136  0.1060E+02  0.2052E+02
     -8.047  0.3090E+02  0.2326E+02
     -7.958  0.4228E+02  0.2702E+02
     -7.869  0.6026E+02  0.3238E+02
     -7.780  0.1354E+01  0.3250E+02
     -7.692  0.1540E+01  0.3264E+02
     -7.603  0.7410E+02  0.3922E+02
     -7.514  0.5977E+02  0.4454E+02
     -7.425  0.2404E+02  0.4668E+02
     -7.336  0.1087E+02  0.4764E+02
     -7.247  0.2865E+02  0.5019E+02
     -7.158  0.2139E+02  0.5209E+02
     -7.069  0.5141E+02  0.5666E+02
     -6.980  0.3799E+02  0.6004E+02
     -6.892  0.9615E+02  0.6858E+02
     -6.803  0.2723E+02  0.7100E+02
     -6.714  0.4465E+02  0.7497E+02
     -6.625  0.5998E+02  0.8031E+02
     -6.536  0.7472E+02  0.8695E+02
     -6.447  0.2499E+02  0.8917E+02
     -6.358  0.9341E+01  0.9000E+02
     -6.269  0.4581E+01  0.9041E+02
     -6.180  0.2533E+02  0.9266E+02
     -6.091  0.1090E+03  0.1023E+03
     -6.003  0.6273E+02  0.1079E+03
     -5.914  0.1012E+03  0.1169E+03
     -5.825  0.2588E+02  0.1192E+03
     -5.736  0.4644E+02  0.1234E+03
     -5.647  0.6828E+02  0.1294E+03
     -5.558  0.9622E+02  0.1380E+03
     -5.469  0.2751E+02  0.1404E+03
     -5.380  0.3108E+02  0.1432E+03
     -5.291  0.6615E+02  0.1491E+03
     -5.202  0.3925E+02  0.1526E+03
     -5.114  0.7207E+02  0.1590E+03
     -5.025  0.6809E+02  0.1650E+03
     -4.936  0.8186E+02  0.1723E+03
     -4.847  0.2670E+02  0.1747E+03
     -4.758  0.4411E+02  0.1786E+03
     -4.669  0.9086E+02  0.1867E+03
     -4.580  0.1080E+03  0.1963E+03
     -4.491  0.5913E+02  0.2015E+03
     -4.402  0.3942E+02  0.2050E+03
     -4.314  0.4803E+02  0.2093E+03
     -4.225  0.6518E+02  0.2151E+03
     -4.136  0.1267E+03  0.2264E+03
     -4.047  0.9572E+02  0.2349E+03
     -3.958  0.7914E+02  0.2419E+03
     -3.869  0.4051E+02  0.2455E+03
     -3.780  0.8630E+02  0.2532E+03
     -3.691  0.7563E+02  0.2599E+03
     -3.602  0.8518E+02  0.2675E+03
     -3.513  0.5557E+02  0.2724E+03
     -3.425  0.4781E+02  0.2767E+03
     -3.336  0.9607E+01  0.2775E+03
     -3.247  0.3355E+02  0.2805E+03
     -3.158  0.9623E+02  0.2891E+03
     -3.069  0.9365E+02  0.2974E+03
     -2.980  0.1036E+03  0.3066E+03
     -2.891  0.8295E+02  0.3140E+03
     -2.802  0.1478E+03  0.3271E+03
     -2.713  0.1928E+03  0.3442E+03
     -2.624  0.5510E+02  0.3491E+03
     -2.536  0.4103E+01  0.3495E+03
     -2.447  0.1693E+02  0.3510E+03
     -2.358  0.6330E+02  0.3566E+03
     -2.269  0.1233E+03  0.3676E+03
     -2.180  0.9416E+02  0.3760E+03
     -2.091  0.9293E+02  0.3842E+03
     -2.002  0.5346E+02  0.3890E+03
     -1.913  0.5662E+02  0.3940E+03
     -1.824  0.1049E+03  0.4033E+03
     -1.735  0.1610E+03  0.4176E+03
     -1.647  0.5136E+02  0.4222E+03
     -1.558  0.5472E+02  0.4271E+03
     -1.469  0.7792E+02  0.4340E+03
     -1.380  0.5749E+02  0.4391E+03
     -1.291  0.1936E+03  0.4563E+03
     -1.202  0.9248E+02  0.4645E+03
     -1.113  0.1214E+03  0.4753E+03
     -1.024  0.6499E+02  0.4811E+03
     -0.935  0.7104E+02  0.4874E+03
     -0.847  0.1185E+03  0.4980E+03
     -0.758  0.1084E+03  0.5076E+03
     -0.669  0.7306E+02  0.5141E+03
     -0.580  0.3133E+02  0.5169E+03
     -0.491  0.7546E+02  0.5236E+03
     -0.402  0.2035E+03  0.5417E+03
     -0.313  0.1167E+03  0.5521E+03
     -0.224  0.1284E+03  0.5635E+03
     -0.135  0.8724E+02  0.5712E+03
     -0.046  0.3862E+02  0.5747E+03
      0.042  0.4355E+02  0.5785E+03
      0.131  0.1173E+03  0.5890E+03
      0.220  0.8423E+02  0.5964E+03
      0.309  0.9090E+02  0.6045E+03
      0.398  0.6851E+02  0.6106E+03
      0.487  0.1280E+03  0.6220E+03
      0.576  0.1121E+03  0.6320E+03
      0.665  0.6506E+02  0.6377E+03
      0.754  0.4492E+02  0.6417E+03
      0.843  0.5423E+02  0.6466E+03
      0.931  0.9023E+02  0.6546E+03
      1.020  0.2621E+03  0.6779E+03
      1.109  0.1450E+03  0.6908E+03
      1.198  0.9442E+02  0.6992E+03
      1.287  0.7226E+02  0.7056E+03
      1.376  0.6869E+02  0.7117E+03
      1.465  0.8802E+02  0.7195E+03
      1.554  0.1256E+03  0.7307E+03
      1.643  0.1680E+03  0.7456E+03
      1.732  0.1627E+03  0.7601E+03
      1.820  0.6855E+02  0.7662E+03
      1.909  0.3652E+02  0.7694E+03
      1.998  0.1676E+03  0.7843E+03
      2.087  0.1246E+03  0.7954E+03
      2.176  0.6495E+02  0.8012E+03
      2.265  0.8128E+02  0.8084E+03
      2.354  0.6724E+02  0.8144E+03
      2.443  0.1127E+03  0.8244E+03
      2.532  0.8360E+02  0.8318E+03
      2.620  0.1315E+03  0.8435E+03
      2.709  0.1127E+03  0.8535E+03
      2.798  0.7985E+02  0.8606E+03
      2.887  0.1018E+03  0.8697E+03
      2.976  0.3002E+03  0.8964E+03
      3.065  0.1866E+03  0.9130E+03
      3.154  0.6887E+02  0.9191E+03
      3.243  0.7139E+02  0.9254E+03
      3.332  0.1168E+03  0.9358E+03
      3.421  0.1363E+03  0.9479E+03
      3.509  0.1389E+03  0.9603E+03
      3.598  0.8290E+02  0.9677E+03
      3.687  0.1002E+03  0.9766E+03
      3.776  0.9899E+02  0.9854E+03
      3.865  0.6181E+02  0.9909E+03
      3.954  0.1417E+03  0.1003E+04
      4.043  0.1723E+03  0.1019E+04
      4.132  0.1146E+03  0.1029E+04
      4.221  0.3345E+02  0.1032E+04
      4.310  0.7605E+00  0.1032E+04
      4.398  0.1819E-03  0.1032E+04
      4.487  0.1353E-09  0.1032E+04
      4.576  0.0000E+00  0.1032E+04
      4.665  0.0000E+00  0.1032E+04
      4.754  0.0000E+00  0.1032E+04
      4.843  0.0000E+00  0.1032E+04
      4.932  0.0000E+00  0.1032E+04
      5.021  0.0000E+00  0.1032E+04
      5.110  0.0000E+00  0.1032E+04
      5.198  0.0000E+00  0.1032E+04
      5.287  0.0000E+00  0.1032E+04
      5.376  0.0000E+00  0.1032E+04
