       N       E                     dE             d eps       ncg     rms          rms(c)
DAV:   1     0.212732172875E+04    0.21273E+04   -0.18419E+05  3144   0.734E+02
DAV:   2    -0.745475095318E+03   -0.28728E+04   -0.27096E+04  4224   0.193E+02
DAV:   3    -0.953993494518E+03   -0.20852E+03   -0.20002E+03  4728   0.401E+01
DAV:   4    -0.961737196518E+03   -0.77437E+01   -0.75588E+01  4296   0.785E+00
DAV:   5    -0.962140198713E+03   -0.40300E+00   -0.39983E+00  5124   0.191E+00    0.187E+01
DAV:   6    -0.978366597635E+03   -0.16226E+02   -0.19327E+02  4476   0.167E+01    0.192E+01
DAV:   7    -0.936783320034E+03    0.41583E+02   -0.13710E+02  3936   0.158E+01    0.974E+00
DAV:   8    -0.941691693145E+03   -0.49084E+01   -0.45435E+01  4116   0.759E+00    0.705E+00
DAV:   9    -0.938875579206E+03    0.28161E+01   -0.62606E+00  4104   0.785E+00    0.535E+00
DAV:  10    -0.934399403082E+03    0.44762E+01   -0.51611E+00  4056   0.405E+00    0.117E+00
DAV:  11    -0.934421396311E+03   -0.21993E-01   -0.19849E+00  3972   0.149E+00    0.770E-01
DAV:  12    -0.934396435293E+03    0.24961E-01   -0.23805E-01  4092   0.531E-01    0.530E-01
DAV:  13    -0.934365130653E+03    0.31305E-01   -0.42447E-02  3984   0.258E-01    0.334E-01
DAV:  14    -0.934351897224E+03    0.13233E-01   -0.29493E-02  3756   0.200E-01    0.208E-01
DAV:  15    -0.934353354523E+03   -0.14573E-02   -0.14920E-02  3732   0.136E-01    0.137E-01
DAV:  16    -0.934361320216E+03   -0.79657E-02   -0.65062E-03  3600   0.890E-02    0.103E-01
DAV:  17    -0.934368433727E+03   -0.71135E-02   -0.32481E-03  3408   0.598E-02    0.554E-02
DAV:  18    -0.934372159130E+03   -0.37254E-02   -0.10621E-03  3600   0.346E-02    0.342E-02
DAV:  19    -0.934374630283E+03   -0.24712E-02   -0.41538E-04  3468   0.233E-02    0.233E-02
DAV:  20    -0.934375634709E+03   -0.10044E-02   -0.16655E-04  3540   0.162E-02    0.178E-02
DAV:  21    -0.934376949438E+03   -0.13147E-02   -0.33428E-04  3348   0.130E-02    0.104E-02
DAV:  22    -0.934377833606E+03   -0.88417E-03   -0.93294E-05  3360   0.745E-03    0.764E-03
DAV:  23    -0.934379052586E+03   -0.12190E-02   -0.61947E-05  3036   0.555E-03    0.491E-03
DAV:  24    -0.934379702872E+03   -0.65029E-03   -0.31001E-05  3168   0.419E-03    0.353E-03
DAV:  25    -0.934380236011E+03   -0.53314E-03   -0.32142E-05  2844   0.330E-03    0.217E-03
DAV:  26    -0.934380510526E+03   -0.27451E-03   -0.17740E-05  2796   0.227E-03    0.114E-03
DAV:  27    -0.934380601648E+03   -0.91123E-04   -0.56470E-06  2460   0.152E-03    0.725E-04
DAV:  28    -0.934380619028E+03   -0.17380E-04   -0.70720E-07  2256   0.841E-04    0.645E-04
DAV:  29    -0.934380627036E+03   -0.80073E-05   -0.38337E-07  1944   0.625E-04    0.563E-04
DAV:  30    -0.934380629022E+03   -0.19862E-05   -0.12365E-07  1848   0.434E-04
   1 F= -.93438063E+03 E0= -.93435595E+03  d E =-.493567E-01
