 vasp.5.4.4.18Apr17-6-g9f103f2a35 (build May 02 2017 15:33:50) complex          
  
 executed on Intel-16.0.3.210-OMP date 2018.08.08  18:47:23
 running on    6 total cores
 distrk:  each k-point on    6 cores,    1 groups
 distr:  one band on NCORES_PER_BAND=   1 cores,    6 groups


--------------------------------------------------------------------------------------------------------


 INCAR:
 POTCAR:    PAW Al_GW 19Mar2012                   
 POTCAR:    PAW_PBE N 08Apr2002                   

 ----------------------------------------------------------------------------- 
|                                                                             |
|           W    W    AA    RRRRR   N    N  II  N    N   GGGG   !!!           |
|           W    W   A  A   R    R  NN   N  II  NN   N  G    G  !!!           |
|           W    W  A    A  R    R  N N  N  II  N N  N  G       !!!           |
|           W WW W  AAAAAA  RRRRR   N  N N  II  N  N N  G  GGG   !            |
|           WW  WW  A    A  R   R   N   NN  II  N   NN  G    G                |
|           W    W  A    A  R    R  N    N  II  N    N   GGGG   !!!           |
|                                                                             |
|      For optimal performance we recommend to set                            |
|        NCORE= 4 - approx SQRT( number of cores)                             |
|      NCORE specifies how many cores store one orbital (NPAR=cpu/NCORE).     |
|      This setting can  greatly improve the performance of VASP for DFT.     |
|      The default,   NCORE=1            might be grossly inefficient         |
|      on modern multi-core architectures or massively parallel machines.     |
|      Do your own testing !!!!                                               |
|      Unfortunately you need to use the default for GW and RPA calculations. |
|      (for HF NCORE is supported but not extensively tested yet)             |
|                                                                             |
 ----------------------------------------------------------------------------- 

 POTCAR:    PAW Al_GW 19Mar2012                   
   VRHFIN =Al: s2p1                                                             
   LEXCH  = PE                                                                  
   EATOM  =    53.5387 eV,    3.9350 Ry                                         
                                                                                
   TITEL  = PAW Al_GW 19Mar2012                                                 
   LULTRA =        F    use ultrasoft PP ?                                      
   IUNSCR =        1    unscreen: 0-lin 1-nonlin 2-no                           
   RPACOR =    1.500    partial core radius                                     
   POMASS =   26.982; ZVAL   =    3.000    mass and valenz                      
   RCORE  =    2.000    outmost cutoff radius                                   
   RWIGS  =    2.000; RWIGS  =    1.058    wigner-seitz radius (au A)           
   ENMAX  =  240.300; ENMIN  =  180.225 eV                                      
   ICORE  =        3    local potential                                         
   LCOR   =        T    correct aug charges                                     
   LPAW   =        T    paw PP                                                  
   EAUG   =  482.059                                                            
   DEXC   =    0.000                                                            
   RMAX   =    2.051    core radius for proj-oper                               
   RAUG   =    1.300    factor for augmentation sphere                          
   RDEP   =    2.096    radius for radial grids                                 
   RDEPT  =    1.856    core radius for aug-charge                              
                                                                                
   Atomic configuration                                                         
    7 entries                                                                   
     n  l   j            E        occ.                                          
     1  0  0.50     -1511.1048   2.0000                                         
     2  0  0.50      -108.1629   2.0000                                         
     2  1  1.50       -69.6402   6.0000                                         
     3  0  0.50        -7.7528   2.0000                                         
     3  1  1.50        -2.7121   1.0000                                         
     3  2  2.50        -2.7212   0.0000                                         
     4  3  2.50        -2.7212   0.0000                                         
   Description                                                                  
     l       E           TYP  RCUT    TYP  RCUT                                 
     0     -7.7528455     23  1.900                                             
     0     68.0291300     23  1.900                                             
     1     -2.7120682     23  1.900                                             
     1     68.0291300     23  1.900                                             
     2     -1.3605826     23  1.900                                             
     2     81.6349560     23  1.900                                             
     3     74.8320430     23  2.000                                             
  local pseudopotential read in
  partial core-charges read in
  partial kinetic energy density read in
  kinetic energy density of atom read in
  atomic valenz-charges read in
  non local Contribution for L=           0  read in
    real space projection operators read in
  non local Contribution for L=           0  read in
    real space projection operators read in
  non local Contribution for L=           1  read in
    real space projection operators read in
  non local Contribution for L=           1  read in
    real space projection operators read in
  non local Contribution for L=           2  read in
    real space projection operators read in
  non local Contribution for L=           2  read in
    real space projection operators read in
    PAW grid and wavefunctions read in
 
   number of l-projection  operators is LMAX  =           6
   number of lm-projection operators is LMMAX =          18
 
 POTCAR:    PAW_PBE N 08Apr2002                   
   VRHFIN =N: s2p3                                                              
   LEXCH  = PE                                                                  
   EATOM  =   264.5486 eV,   19.4438 Ry                                         
                                                                                
   TITEL  = PAW_PBE N 08Apr2002                                                 
   LULTRA =        F    use ultrasoft PP ?                                      
   IUNSCR =        1    unscreen: 0-lin 1-nonlin 2-no                           
   RPACOR =    1.200    partial core radius                                     
   POMASS =   14.001; ZVAL   =    5.000    mass and valenz                      
   RCORE  =    1.500    outmost cutoff radius                                   
   RWIGS  =    1.400; RWIGS  =    0.741    wigner-seitz radius (au A)           
   ENMAX  =  400.000; ENMIN  =  300.000 eV                                      
   ICORE  =        2    local potential                                         
   LCOR   =        T    correct aug charges                                     
   LPAW   =        T    paw PP                                                  
   EAUG   =  627.112                                                            
   DEXC   =    0.000                                                            
   RMAX   =    1.529    core radius for proj-oper                               
   RAUG   =    1.300    factor for augmentation sphere                          
   RDEP   =    1.514    radius for radial grids                                 
   RDEPT  =    1.338    core radius for aug-charge                              
                                                                                
   Atomic configuration                                                         
    4 entries                                                                   
     n  l   j            E        occ.                                          
     1  0  0.50      -384.7179   2.0000                                         
     2  0  0.50       -18.5828   2.0000                                         
     2  1  0.50        -7.0898   3.0000                                         
     3  2  1.50        -6.8029   0.0000                                         
   Description                                                                  
     l       E           TYP  RCUT    TYP  RCUT                                 
     0    -18.5828119     23  1.200                                             
     0    -13.5018863     23  1.200                                             
     1     -7.0897853     23  1.500                                             
     1      9.5240782     23  1.500                                             
     2     -6.8029130      7  1.500                                             
  local pseudopotential read in
  partial core-charges read in
  partial kinetic energy density read in
  atomic valenz-charges read in
  non local Contribution for L=           0  read in
    real space projection operators read in
  non local Contribution for L=           0  read in
    real space projection operators read in
  non local Contribution for L=           1  read in
    real space projection operators read in
  non local Contribution for L=           1  read in
    real space projection operators read in
    PAW grid and wavefunctions read in
 
   number of l-projection  operators is LMAX  =           4
   number of lm-projection operators is LMMAX =           8
 
 Optimization of the real space projectors (new method)

 maximal supplied QI-value         = 18.90
 optimisation between [QCUT,QGAM] = [  8.69, 17.57] = [ 21.16, 86.49] Ry 
 Optimized for a Real-space Cutoff    1.59 Angstroem

   l    n(q)    QCUT    max X(q) W(low)/X(q) W(high)/X(q)  e(spline) 
   0      8     8.693    11.519    0.12E-03    0.31E-04    0.21E-06
   0      8     8.693     5.834    0.89E-04    0.32E-04    0.16E-06
   1      8     8.693    10.132    0.25E-03    0.39E-03    0.25E-06
   1      8     8.693     3.004    0.16E-03    0.27E-03    0.22E-06
   2      7     8.693     3.169    0.39E-03    0.93E-03    0.44E-06
   2      7     8.693     1.605    0.70E-04    0.91E-04    0.19E-06
 Optimization of the real space projectors (new method)

 maximal supplied QI-value         = 25.13
 optimisation between [QCUT,QGAM] = [  8.80, 17.59] = [ 21.67, 86.68] Ry 
 Optimized for a Real-space Cutoff    2.14 Angstroem

   l    n(q)    QCUT    max X(q) W(low)/X(q) W(high)/X(q)  e(spline) 
   0     11     8.797    79.467    0.70E-04    0.19E-04    0.19E-05
   0     11     8.797    66.151    0.68E-04    0.18E-04    0.19E-05
   1     11     8.797     6.738    0.26E-03    0.11E-02    0.73E-05
   1     11     8.797     5.013    0.25E-03    0.11E-02    0.72E-05
  PAW Al_GW 19Mar2012                   :
 energy of atom  1       EATOM=  -53.5387
 kinetic energy error for atom=    0.0011 (will be added to EATOM!!)
  PAW_PBE N 08Apr2002                   :
 energy of atom  2       EATOM= -264.5486
 kinetic energy error for atom=    0.6882 (will be added to EATOM!!)
 
 
 POSCAR: New structure                           
  positions in cartesian coordinates
  No initial velocities read in
 exchange correlation table for  LEXCH =        8
   RHO(1)=    0.500       N(1)  =     2000
   RHO(2)=  100.500       N(2)  =     4000
 


--------------------------------------------------------------------------------------------------------


 ion  position               nearest neighbor table
   1  0.444  0.444  0.079-
   2  0.444  0.778  0.079-
   3  0.444  0.111  0.079-
   4  0.778  0.444  0.079-
   5  0.778  0.778  0.079-
   6  0.778  0.111  0.079-
   7  0.111  0.444  0.079-
   8  0.111  0.778  0.079-
   9  0.111  0.111  0.079-
  10  0.556  0.556  0.157-
  11  0.556  0.889  0.157-
  12  0.556  0.222  0.157-
  13  0.889  0.556  0.157-
  14  0.889  0.889  0.157-
  15  0.889  0.222  0.157-
  16  0.222  0.556  0.157-
  17  0.222  0.889  0.157-
  18  0.222  0.222  0.157-
  19  0.667  0.667  0.234-
  20  0.667  0.000  0.234-
  21  0.667  0.333  0.234-
  22  0.000  0.667  0.234-
  23  0.000  0.000  0.234-
  24  0.000  0.333  0.234-
  25  0.333  0.667  0.234-
  26  0.333  0.000  0.234-
  27  0.333  0.333  0.234-
  28  0.778  0.778  0.312-
  29  0.778  0.111  0.312-
  30  0.778  0.444  0.312-
  31  0.111  0.778  0.312-
  32  0.111  0.111  0.312-
  33  0.111  0.444  0.312-
  34  0.444  0.778  0.312-
  35  0.444  0.111  0.312-
  36  0.444  0.444  0.312-
  37  0.889  0.889  0.390-
  38  0.889  0.222  0.390-
  39  0.889  0.556  0.390-
  40  0.222  0.889  0.390-
  41  0.222  0.222  0.390-
  42  0.222  0.556  0.390-
  43  0.556  0.889  0.390-
  44  0.556  0.222  0.390-
  45  0.556  0.556  0.390-
  46  0.000  0.000  0.466-
  47  0.000  0.333  0.466-
  48  0.000  0.667  0.466-
  49  0.333  0.000  0.466-
  50  0.333  0.333  0.466-
  51  0.333  0.667  0.466-
  52  0.667  0.000  0.466-
  53  0.667  0.333  0.466-
  54  0.667  0.667  0.466-
  55  0.111  0.111  0.545-
  56  0.111  0.444  0.545-
  57  0.111  0.778  0.545-
  58  0.444  0.111  0.545-
  59  0.444  0.444  0.545-
  60  0.444  0.778  0.545-
  61  0.778  0.111  0.545-
  62  0.778  0.444  0.545-
  63  0.778  0.778  0.545-
  64  0.278  0.278  0.079-
  65  0.278  0.611  0.079-
  66  0.278  0.944  0.079-
  67  0.611  0.278  0.079-
  68  0.611  0.611  0.079-
  69  0.611  0.944  0.079-
  70  0.944  0.278  0.079-
  71  0.944  0.611  0.079-
  72  0.944  0.944  0.079-
  73  0.389  0.389  0.157-
  74  0.389  0.722  0.157-
  75  0.389  0.056  0.157-
  76  0.722  0.389  0.157-
  77  0.722  0.722  0.157-
  78  0.722  0.056  0.157-
  79  0.056  0.389  0.157-
  80  0.056  0.722  0.157-
  81  0.056  0.056  0.157-
  82  0.500  0.500  0.234-
  83  0.500  0.833  0.234-
  84  0.500  0.167  0.234-
  85  0.833  0.500  0.234-
  86  0.833  0.833  0.234-
  87  0.833  0.167  0.234-
  88  0.167  0.500  0.234-
  89  0.167  0.833  0.234-
  90  0.167  0.167  0.234-
  91  0.611  0.611  0.312-
  92  0.611  0.944  0.312-
  93  0.611  0.278  0.312-
  94  0.944  0.611  0.312-
  95  0.944  0.944  0.312-
  96  0.944  0.278  0.312-
  97  0.278  0.611  0.312-
  98  0.278  0.944  0.312-
  99  0.278  0.278  0.312-
 100  0.722  0.722  0.390-
 101  0.722  0.056  0.390-
 102  0.722  0.389  0.390-
 103  0.056  0.722  0.390-
 104  0.056  0.056  0.390-
 105  0.056  0.389  0.390-
 106  0.389  0.722  0.390-
 107  0.389  0.056  0.390-
 108  0.389  0.389  0.390-
 109  0.833  0.833  0.466-
 110  0.833  0.167  0.466-
 111  0.833  0.500  0.466-
 112  0.167  0.833  0.466-
 113  0.167  0.167  0.466-
 114  0.167  0.500  0.466-
 115  0.500  0.833  0.466-
 116  0.500  0.167  0.466-
 117  0.500  0.500  0.466-
 118  0.944  0.944  0.545-
 119  0.944  0.278  0.545-
 120  0.944  0.611  0.545-
 121  0.278  0.944  0.545-
 122  0.278  0.278  0.545-
 123  0.278  0.611  0.545-
 124  0.611  0.944  0.545-
 125  0.611  0.278  0.545-
 126  0.611  0.611  0.545-
 127  0.278  0.444  0.079-
 128  0.278  0.778  0.079-
 129  0.278  0.111  0.079-
 130  0.611  0.444  0.079-
 131  0.611  0.778  0.079-
 132  0.611  0.111  0.079-
 133  0.944  0.444  0.079-
 134  0.944  0.778  0.079-
 135  0.944  0.111  0.079-
 136  0.389  0.556  0.157-
 137  0.389  0.889  0.157-
 138  0.389  0.222  0.157-
 139  0.722  0.556  0.157-
 140  0.722  0.889  0.157-
 141  0.722  0.222  0.157-
 142  0.056  0.556  0.157-
 143  0.056  0.889  0.157-
 144  0.056  0.222  0.157-
 145  0.500  0.667  0.234-
 146  0.500  0.000  0.234-
 147  0.500  0.333  0.234-
 148  0.833  0.667  0.234-
 149  0.833  0.000  0.234-
 150  0.833  0.333  0.234-
 151  0.167  0.667  0.234-
 152  0.167  0.000  0.234-
 153  0.167  0.333  0.234-
 154  0.611  0.778  0.312-
 155  0.611  0.111  0.312-
 156  0.611  0.444  0.312-
 157  0.944  0.778  0.312-
 158  0.944  0.111  0.312-
 159  0.944  0.444  0.312-
 160  0.278  0.778  0.312-
 161  0.278  0.111  0.312-
 162  0.278  0.444  0.312-
 163  0.722  0.889  0.390-
 164  0.722  0.222  0.390-
 165  0.722  0.556  0.390-
 166  0.056  0.889  0.390-
 167  0.056  0.222  0.390-
 168  0.056  0.556  0.390-
 169  0.389  0.889  0.390-
 170  0.389  0.222  0.390-
 171  0.389  0.556  0.390-
 172  0.833  0.000  0.466-
 173  0.833  0.333  0.466-
 174  0.833  0.667  0.466-
 175  0.167  0.000  0.466-
 176  0.167  0.333  0.466-
 177  0.167  0.667  0.466-
 178  0.500  0.000  0.466-
 179  0.500  0.333  0.466-
 180  0.500  0.667  0.466-
 181  0.944  0.111  0.545-
 182  0.944  0.444  0.545-
 183  0.944  0.778  0.545-
 184  0.278  0.111  0.545-
 185  0.278  0.444  0.545-
 186  0.278  0.778  0.545-
 187  0.611  0.111  0.545-
 188  0.611  0.444  0.545-
 189  0.611  0.778  0.545-
 190  0.444  0.278  0.079-
 191  0.444  0.611  0.079-
 192  0.444  0.944  0.079-
 193  0.778  0.278  0.079-
 194  0.778  0.611  0.079-
 195  0.778  0.944  0.079-
 196  0.111  0.278  0.079-
 197  0.111  0.611  0.079-
 198  0.111  0.944  0.079-
 199  0.556  0.389  0.157-
 200  0.556  0.722  0.157-
 201  0.556  0.056  0.157-
 202  0.889  0.389  0.157-
 203  0.889  0.722  0.157-
 204  0.889  0.056  0.157-
 205  0.222  0.389  0.157-
 206  0.222  0.722  0.157-
 207  0.222  0.056  0.157-
 208  0.667  0.500  0.234-
 209  0.667  0.833  0.234-
 210  0.667  0.167  0.234-
 211  1.000  0.500  0.234-
 212  1.000  0.833  0.234-
 213  1.000  0.167  0.234-
 214  0.333  0.500  0.234-
 215  0.333  0.833  0.234-
 216  0.333  0.167  0.234-
 217  0.778  0.611  0.312-
 218  0.778  0.944  0.312-
 219  0.778  0.278  0.312-
 220  0.111  0.611  0.312-
 221  0.111  0.944  0.312-
 222  0.111  0.278  0.312-
 223  0.444  0.611  0.312-
 224  0.444  0.944  0.312-
 225  0.444  0.278  0.312-
 226  0.889  0.722  0.390-
 227  0.889  0.056  0.390-
 228  0.889  0.389  0.390-
 229  0.222  0.722  0.390-
 230  0.222  0.056  0.390-
 231  0.222  0.389  0.390-
 232  0.556  0.722  0.390-
 233  0.556  0.056  0.390-
 234  0.556  0.389  0.390-
 235  1.000  0.833  0.466-
 236  1.000  0.167  0.466-
 237  1.000  0.500  0.466-
 238  0.333  0.833  0.466-
 239  0.333  0.167  0.466-
 240  0.333  0.500  0.466-
 241  0.667  0.833  0.466-
 242  0.667  0.167  0.466-
 243  0.667  0.500  0.466-
 244  0.111  0.944  0.545-
 245  0.111  0.278  0.545-
 246  0.111  0.611  0.545-
 247  0.444  0.944  0.545-
 248  0.444  0.278  0.545-
 249  0.444  0.611  0.545-
 250  0.778  0.944  0.545-
 251  0.778  0.278  0.545-
 252  0.778  0.611  0.545-
 253  0.340  0.487  0.618- 254 1.25
 254  0.382  0.402  0.618- 253 1.25
 
  LATTYP: Found a hexagonal cell.
 ALAT       =    17.1805734625
 C/A-ratio  =     1.7461582447
  
  Lattice vectors:
  
 A1 = (   0.0000000000,  -8.5902867312,  14.8788130701)
 A2 = (   0.0000000000,  17.1805734625,   0.0000000000)
 A3 = ( -30.0000000000,   0.0000000000,   0.0000000000)


Analysis of symmetry for initial positions (statically):
=====================================================================
 Subroutine PRICEL returns:
 Original cell was already a primitive cell.
 

 Routine SETGRP: Setting up the symmetry group for a 
 hexagonal supercell.


 Subroutine GETGRP returns: Found  2 space group operations
 (whereof  1 operations were pure point group operations)
 out of a pool of 24 trial point group operations.


The static configuration has the point symmetry C_1 .
 The point group associated with its full space group is C_1h.


Analysis of symmetry for dynamics (positions and initial velocities):
=====================================================================
 Subroutine PRICEL returns:
 Original cell was already a primitive cell.
 

 Routine SETGRP: Setting up the symmetry group for a 
 hexagonal supercell.


 Subroutine GETGRP returns: Found  2 space group operations
 (whereof  1 operations were pure point group operations)
 out of a pool of 24 trial point group operations.


The dynamic configuration has the point symmetry C_1 .
 The point group associated with its full space group is C_1h.


 Subroutine INISYM returns: Found  2 space group operations
 (whereof  1 operations are pure point group operations),
 and found     1 'primitive' translations

 
 
 KPOINTS: Automatic generation                    

Automatic generation of k-mesh.
Space group operators:
 irot       det(A)        alpha          n_x          n_y          n_z        tau_x        tau_y        tau_z
    1     1.000000     0.000000     1.000000     0.000000     0.000000     0.000000     0.000000     0.000000
    2    -1.000000   180.000000     0.000000     1.000000     0.000000    -0.833333     0.000000     0.000000
 
 Subroutine IBZKPT returns following result:
 ===========================================
 
 Found      3 irreducible k-points:
 
 Following reciprocal coordinates:
            Coordinates               Weight
  0.000000  0.000000  0.000000      1.000000
  0.500000  0.000000  0.000000      2.000000
  0.000000  0.500000  0.000000      1.000000
 
 Following cartesian coordinates:
            Coordinates               Weight
  0.000000  0.000000  0.000000      1.000000
  0.000000 -0.029103  0.016802      2.000000
  0.000000  0.000000 -0.033605      1.000000
 


--------------------------------------------------------------------------------------------------------




 Dimension of arrays:
   k-points           NKPTS =      3   k-points in BZ     NKDIM =      3   number of bands    NBANDS=    516
   number of dos      NEDOS =    301   number of ions     NIONS =    254
   non local maximal  LDIM  =      6   non local SUM 2l+1 LMDIM =     18
   total plane-waves  NPLWV = 819200
   max r-space proj   IRMAX =   4449   max aug-charges    IRDMAX=   4357
   dimension x,y,z NGX =    80 NGY =   80 NGZ =  128
   dimension x,y,z NGXF=   160 NGYF=  160 NGZF=  256
   support grid    NGXF=   160 NGYF=  160 NGZF=  256
   ions per type =             252   2
   NGX,Y,Z   is equivalent  to a cutoff of   7.74,  7.74,  7.09 a.u.
   NGXF,Y,Z  is equivalent  to a cutoff of  15.48, 15.48, 14.19 a.u.

 SYSTEM =  NiAl                                    
 POSCAR =  New structure                           

 Startparameter for this run:
   NWRITE =      2    write-flag & timer
   PREC   = normal    normal or accurate (medium, high low for compatibility)
   ISTART =      0    job   : 0-new  1-cont  2-samecut
   ICHARG =      2    charge: 1-file 2-atom 10-const
   ISPIN  =      1    spin polarized calculation?
   LNONCOLLINEAR =      F non collinear calculations
   LSORBIT =      F    spin-orbit coupling
   INIWAV =      1    electr: 0-lowe 1-rand  2-diag
   LASPH  =      F    aspherical Exc in radial PAW
   METAGGA=      F    non-selfconsistent MetaGGA calc.

 Electronic Relaxation 1
   ENCUT  =  300.0 eV  22.05 Ry    4.70 a.u.  24.26 24.26 42.37*2*pi/ulx,y,z
   ENINI  =  300.0     initial cutoff
   ENAUG  =  627.1 eV  augmentation charge cutoff
   NELM   =     60;   NELMIN=  6; NELMDL= -5     # of ELM steps 
   EDIFF  = 0.5E-05   stopping-criterion for ELM
   LREAL  =      T    real-space projection
   NLSPLINE    = F    spline interpolate recip. space projectors
   LCOMPAT=      F    compatible to vasp.4.4
   GGA_COMPAT  = T    GGA compatible to vasp.4.4-vasp.4.6
   LMAXPAW     = -100 max onsite density
   LMAXMIX     =    2 max onsite mixed and CHGCAR
   VOSKOWN=      0    Vosko Wilk Nusair interpolation
   ROPT   =   -0.00050  -0.00050
 Ionic relaxation
   EDIFFG = 0.5E-04   stopping-criterion for IOM
   NSW    =      0    number of steps for IOM
   NBLOCK =      1;   KBLOCK =      1    inner block; outer block 
   IBRION =     -1    ionic relax: 0-MD 1-quasi-New 2-CG
   NFREE  =      0    steps in history (QN), initial steepest desc. (CG)
   ISIF   =      0    stress and relaxation
   IWAVPR =     10    prediction:  0-non 1-charg 2-wave 3-comb
   ISYM   =      2    0-nonsym 1-usesym 2-fastsym
   LCORR  =      T    Harris-Foulkes like correction to forces

   POTIM  = 0.5000    time-step for ionic-motion
   TEIN   =    0.0    initial temperature
   TEBEG  =    0.0;   TEEND  =   0.0 temperature during run
   SMASS  =  -3.00    Nose mass-parameter (am)
   estimated Nose-frequenzy (Omega)   =  0.10E-29 period in steps =****** mass=  -0.675E-26a.u.
   SCALEE = 1.0000    scale energy and forces
   NPACO  =    256;   APACO  = 16.0  distance and # of slots for P.C.
   PSTRESS=    0.0 pullay stress

  Mass of Ions in am
   POMASS =  26.98 14.00
  Ionic Valenz
   ZVAL   =   3.00  5.00
  Atomic Wigner-Seitz radii
   RWIGS  =  -1.00 -1.00
  virtual crystal weights 
   VCA    =   1.00  1.00
   NELECT =     766.0000    total number of electrons
   NUPDOWN=      -1.0000    fix difference up-down

 DOS related values:
   EMIN   =  10.00;   EMAX   =-10.00  energy-range for DOS
   EFERMI =   0.00
   ISMEAR =     0;   SIGMA  =   0.05  broadening in eV -4-tet -1-fermi 0-gaus

 Electronic relaxation 2 (details)
   IALGO  =     38    algorithm
   LDIAG  =      T    sub-space diagonalisation (order eigenvalues)
   LSUBROT=      F    optimize rotation matrix (better conditioning)
   TURBO    =      0    0=normal 1=particle mesh
   IRESTART =      0    0=no restart 2=restart with 2 vectors
   NREBOOT  =      0    no. of reboots
   NMIN     =      0    reboot dimension
   EREF     =   0.00    reference energy to select bands
   IMIX   =      4    mixing-type and parameters
     AMIX     =   0.40;   BMIX     =  1.00
     AMIX_MAG =   1.60;   BMIX_MAG =  1.00
     AMIN     =   0.10
     WC   =   100.;   INIMIX=   1;  MIXPRE=   1;  MAXMIX= -45

 Intra band minimization:
   WEIMIN = 0.0000     energy-eigenvalue tresh-hold
   EBREAK =  0.24E-08  absolut break condition
   DEPER  =   0.30     relativ break condition  

   TIME   =   0.40     timestep for ELM

  volume/ion in A,a.u.               =      30.19       203.75
  Fermi-wavevector in a.u.,A,eV,Ry     =   0.759583  1.435404  7.850108  0.576967
  Thomas-Fermi vector in A             =   1.858410
 
 Write flags
   LWAVE        =      F    write WAVECAR
   LDOWNSAMPLE  =      F    k-point downsampling of WAVECAR
   LCHARG       =      F    write CHGCAR
   LVTOT        =      F    write LOCPOT, total local potential
   LVHAR        =      F    write LOCPOT, Hartree potential only
   LELF         =      F    write electronic localiz. function (ELF)
   LORBIT       =      0    0 simple, 1 ext, 2 COOP (PROOUT), +10 PAW based schemes


 Dipole corrections
   LMONO  =      F    monopole corrections only (constant potential shift)
   LDIPOL =      F    correct potential (dipole corrections)
   IDIPOL =      0    1-x, 2-y, 3-z, 4-all directions 
   EPSILON=  1.0000000 bulk dielectric constant

 Exchange correlation treatment:
   GGA     =    --    GGA type
   LEXCH   =     8    internal setting for exchange type
   VOSKOWN=      0    Vosko Wilk Nusair interpolation
   LHFCALC =     F    Hartree Fock is set to
   LHFONE  =     F    Hartree Fock one center treatment
   AEXX    =    0.0000 exact exchange contribution

 Linear response parameters
   LEPSILON=     F    determine dielectric tensor
   LRPA    =     F    only Hartree local field effects (RPA)
   LNABLA  =     F    use nabla operator in PAW spheres
   LVEL    =     F    velocity operator in full k-point grid
   LINTERFAST=   F  fast interpolation
   KINTER  =     0    interpolate to denser k-point grid
   CSHIFT  =0.1000    complex shift for real part using Kramers Kronig
   OMEGAMAX=  -1.0    maximum frequency
   DEG_THRESHOLD= 0.2000000E-02 threshold for treating states as degnerate
   RTIME   =   -0.100 relaxation time in fs
  (WPLASMAI=    0.000 imaginary part of plasma frequency in eV, 0.658/RTIME)
   DFIELD  = 0.0000000 0.0000000 0.0000000 field for delta impulse in time
 
 Orbital magnetization related:
   ORBITALMAG=     F  switch on orbital magnetization
   LCHIMAG   =     F  perturbation theory with respect to B field
   DQ        =  0.001000  dq finite difference perturbation B field
   LLRAUG    =     F  two centre corrections for induced B field



--------------------------------------------------------------------------------------------------------


 Static calculation
 charge density and potential will be updated during run
 non-spin polarized calculation
 Variant of blocked Davidson
 Davidson routine will perform the subspace rotation
 perform sub-space diagonalisation
    after iterative eigenvector-optimisation
 modified Broyden-mixing scheme, WC =      100.0
 initial mixing is a Kerker type mixing with AMIX =  0.4000 and BMIX =      1.0000
 Hartree-type preconditioning will be used
 using additional bands          133
 real space projection scheme for non local part
 use partial core corrections
 calculate Harris-corrections to forces 
   (improved forces if not selfconsistent)
 use gradient corrections 
 use of overlap-Matrix (Vanderbilt PP)
 Gauss-broadening in eV      SIGMA  =   0.05


--------------------------------------------------------------------------------------------------------


  energy-cutoff  :      300.00
  volume of cell :     7668.80
      direct lattice vectors                 reciprocal lattice vectors
     0.000000000-17.180573462  0.000000000     0.000000000 -0.058205275  0.033604831
     0.000000000 -8.590286731-14.878813070     0.000000000  0.000000000 -0.067209662
    30.000000000  0.000000000  0.000000000     0.033333333  0.000000000  0.000000000

  length of vectors
    17.180573462 17.180573462 30.000000000     0.067209662  0.067209662  0.033333333


 
 k-points in units of 2pi/SCALE and weight: Automatic generation                    
   0.00000000  0.00000000  0.00000000       0.250
   0.00000000 -0.02910264  0.01680242       0.500
   0.00000000  0.00000000 -0.03360483       0.250
 
 k-points in reciprocal lattice and weights: Automatic generation                    
   0.00000000  0.00000000  0.00000000       0.250
   0.50000000  0.00000000  0.00000000       0.500
   0.00000000  0.50000000  0.00000000       0.250
 
 position of ions in fractional coordinates (direct lattice) 
   0.44444456  0.44444473  0.07873467
   0.44444419  0.77777777  0.07873467
   0.44444468  0.11111101  0.07873467
   0.77777744  0.44444473  0.07873467
   0.77777765  0.77777777  0.07873467
   0.77777756  0.11111101  0.07873467
   0.11111110  0.44444473  0.07873467
   0.11111131  0.77777777  0.07873467
   0.11111122  0.11111101  0.07873467
   0.55555520  0.55555574  0.15702600
   0.55555541  0.88888878  0.15702600
   0.55555591  0.22222203  0.15702600
   0.88888866  0.55555574  0.15702600
   0.88888887  0.88888878  0.15702600
   0.88888878  0.22222203  0.15702600
   0.22222232  0.55555574  0.15702600
   0.22222253  0.88888878  0.15702600
   0.22222245  0.22222203  0.15702600
   0.66666642  0.66666675  0.23375733
   0.66666692  0.00000000  0.23375733
   0.66666655  0.33333304  0.23375733
   0.00000008  0.66666675  0.23375733
   0.00000000  0.00000000  0.23375733
   0.00000021  0.33333304  0.23375733
   0.33333354  0.66666675  0.23375733
   0.33333346  0.00000000  0.23375733
   0.33333367  0.33333304  0.23375733
   0.77777765  0.77777777  0.31173067
   0.77777756  0.11111101  0.31173067
   0.77777744  0.44444473  0.31173067
   0.11111131  0.77777777  0.31173067
   0.11111122  0.11111101  0.31173067
   0.11111110  0.44444473  0.31173067
   0.44444419  0.77777777  0.31173067
   0.44444468  0.11111101  0.31173067
   0.44444456  0.44444473  0.31173067
   0.88888887  0.88888878  0.38970400
   0.88888878  0.22222203  0.38970400
   0.88888866  0.55555574  0.38970400
   0.22222253  0.88888878  0.38970400
   0.22222245  0.22222203  0.38970400
   0.22222232  0.55555574  0.38970400
   0.55555541  0.88888878  0.38970400
   0.55555591  0.22222203  0.38970400
   0.55555520  0.55555574  0.38970400
   0.00000000  0.00000000  0.46643533
   0.00000021  0.33333304  0.46643533
   0.00000008  0.66666675  0.46643533
   0.33333346  0.00000000  0.46643533
   0.33333367  0.33333304  0.46643533
   0.33333354  0.66666675  0.46643533
   0.66666692  0.00000000  0.46643533
   0.66666655  0.33333304  0.46643533
   0.66666642  0.66666675  0.46643533
   0.11111122  0.11111101  0.54472667
   0.11111110  0.44444473  0.54472667
   0.11111131  0.77777777  0.54472667
   0.44444468  0.11111101  0.54472667
   0.44444456  0.44444473  0.54472667
   0.44444419  0.77777777  0.54472667
   0.77777756  0.11111101  0.54472667
   0.77777744  0.44444473  0.54472667
   0.77777765  0.77777777  0.54472667
   0.27777777  0.27777753  0.07873467
   0.27777764  0.61111125  0.07873467
   0.27777785  0.94444429  0.07873467
   0.61111123  0.27777753  0.07873467
   0.61111110  0.61111125  0.07873467
   0.61111131  0.94444429  0.07873467
   0.94444469  0.27777753  0.07873467
   0.94444456  0.61111125  0.07873467
   0.94444477  0.94444429  0.07873467
   0.38888865  0.38888922  0.15702600
   0.38888886  0.72222226  0.15702600
   0.38888878  0.05555551  0.15702600
   0.72222211  0.38888922  0.15702600
   0.72222232  0.72222226  0.15702600
   0.72222224  0.05555551  0.15702600
   0.05555519  0.38888922  0.15702600
   0.05555540  0.72222226  0.15702600
   0.05555532  0.05555551  0.15702600
   0.49999988  0.50000023  0.23375733
   0.50000009  0.83333327  0.23375733
   0.50000000  0.16666652  0.23375733
   0.83333334  0.50000023  0.23375733
   0.83333355  0.83333327  0.23375733
   0.83333346  0.16666652  0.23375733
   0.16666642  0.50000023  0.23375733
   0.16666663  0.83333327  0.23375733
   0.16666654  0.16666652  0.23375733
   0.61111110  0.61111125  0.31173067
   0.61111131  0.94444429  0.31173067
   0.61111123  0.27777753  0.31173067
   0.94444456  0.61111125  0.31173067
   0.94444477  0.94444429  0.31173067
   0.94444469  0.27777753  0.31173067
   0.27777764  0.61111125  0.31173067
   0.27777785  0.94444429  0.31173067
   0.27777777  0.27777753  0.31173067
   0.72222232  0.72222226  0.38970400
   0.72222224  0.05555551  0.38970400
   0.72222211  0.38888922  0.38970400
   0.05555540  0.72222226  0.38970400
   0.05555532  0.05555551  0.38970400
   0.05555519  0.38888922  0.38970400
   0.38888886  0.72222226  0.38970400
   0.38888878  0.05555551  0.38970400
   0.38888865  0.38888922  0.38970400
   0.83333355  0.83333327  0.46643533
   0.83333346  0.16666652  0.46643533
   0.83333334  0.50000023  0.46643533
   0.16666663  0.83333327  0.46643533
   0.16666654  0.16666652  0.46643533
   0.16666642  0.50000023  0.46643533
   0.50000009  0.83333327  0.46643533
   0.50000000  0.16666652  0.46643533
   0.49999988  0.50000023  0.46643533
   0.94444477  0.94444429  0.54472667
   0.94444469  0.27777753  0.54472667
   0.94444456  0.61111125  0.54472667
   0.27777785  0.94444429  0.54472667
   0.27777777  0.27777753  0.54472667
   0.27777764  0.61111125  0.54472667
   0.61111131  0.94444429  0.54472667
   0.61111123  0.27777753  0.54472667
   0.61111110  0.61111125  0.54472667
   0.27777783  0.44444473  0.07873467
   0.27777804  0.77777777  0.07873467
   0.27777795  0.11111101  0.07873467
   0.61111071  0.44444473  0.07873467
   0.61111092  0.77777777  0.07873467
   0.61111141  0.11111101  0.07873467
   0.94444417  0.44444473  0.07873467
   0.94444438  0.77777777  0.07873467
   0.94444429  0.11111101  0.07873467
   0.38888905  0.55555574  0.15702600
   0.38888868  0.88888878  0.15702600
   0.38888918  0.22222203  0.15702600
   0.72222193  0.55555574  0.15702600
   0.72222214  0.88888878  0.15702600
   0.72222205  0.22222203  0.15702600
   0.05555559  0.55555574  0.15702600
   0.05555580  0.88888878  0.15702600
   0.05555572  0.22222203  0.15702600
   0.49999969  0.66666675  0.23375733
   0.50000019  0.00000000  0.23375733
   0.50000040  0.33333304  0.23375733
   0.83333315  0.66666675  0.23375733
   0.83333307  0.00000000  0.23375733
   0.83333328  0.33333304  0.23375733
   0.16666681  0.66666675  0.23375733
   0.16666673  0.00000000  0.23375733
   0.16666694  0.33333304  0.23375733
   0.61111092  0.77777777  0.31173067
   0.61111141  0.11111101  0.31173067
   0.61111071  0.44444473  0.31173067
   0.94444438  0.77777777  0.31173067
   0.94444429  0.11111101  0.31173067
   0.94444417  0.44444473  0.31173067
   0.27777804  0.77777777  0.31173067
   0.27777795  0.11111101  0.31173067
   0.27777783  0.44444473  0.31173067
   0.72222214  0.88888878  0.38970400
   0.72222205  0.22222203  0.38970400
   0.72222193  0.55555574  0.38970400
   0.05555580  0.88888878  0.38970400
   0.05555572  0.22222203  0.38970400
   0.05555559  0.55555574  0.38970400
   0.38888868  0.88888878  0.38970400
   0.38888918  0.22222203  0.38970400
   0.38888905  0.55555574  0.38970400
   0.83333307  0.00000000  0.46643533
   0.83333328  0.33333304  0.46643533
   0.83333315  0.66666675  0.46643533
   0.16666673  0.00000000  0.46643533
   0.16666694  0.33333304  0.46643533
   0.16666681  0.66666675  0.46643533
   0.50000019  0.00000000  0.46643533
   0.50000040  0.33333304  0.46643533
   0.49999969  0.66666675  0.46643533
   0.94444429  0.11111101  0.54472667
   0.94444417  0.44444473  0.54472667
   0.94444438  0.77777777  0.54472667
   0.27777795  0.11111101  0.54472667
   0.27777783  0.44444473  0.54472667
   0.27777804  0.77777777  0.54472667
   0.61111141  0.11111101  0.54472667
   0.61111071  0.44444473  0.54472667
   0.61111092  0.77777777  0.54472667
   0.44444450  0.27777753  0.07873467
   0.44444437  0.61111125  0.07873467
   0.44444458  0.94444429  0.07873467
   0.77777796  0.27777753  0.07873467
   0.77777783  0.61111125  0.07873467
   0.77777804  0.94444429  0.07873467
   0.11111104  0.27777753  0.07873467
   0.11111091  0.61111125  0.07873467
   0.11111112  0.94444429  0.07873467
   0.55555538  0.38888922  0.15702600
   0.55555559  0.72222226  0.15702600
   0.55555551  0.05555551  0.15702600
   0.88888884  0.38888922  0.15702600
   0.88888905  0.72222226  0.15702600
   0.88888897  0.05555551  0.15702600
   0.22222192  0.38888922  0.15702600
   0.22222213  0.72222226  0.15702600
   0.22222205  0.05555551  0.15702600
   0.66666661  0.50000023  0.23375733
   0.66666682  0.83333327  0.23375733
   0.66666673  0.16666652  0.23375733
   0.99999969  0.50000023  0.23375733
   0.99999990  0.83333327  0.23375733
   0.99999981  0.16666652  0.23375733
   0.33333315  0.50000023  0.23375733
   0.33333336  0.83333327  0.23375733
   0.33333327  0.16666652  0.23375733
   0.77777783  0.61111125  0.31173067
   0.77777804  0.94444429  0.31173067
   0.77777796  0.27777753  0.31173067
   0.11111091  0.61111125  0.31173067
   0.11111112  0.94444429  0.31173067
   0.11111104  0.27777753  0.31173067
   0.44444437  0.61111125  0.31173067
   0.44444458  0.94444429  0.31173067
   0.44444450  0.27777753  0.31173067
   0.88888905  0.72222226  0.38970400
   0.88888897  0.05555551  0.38970400
   0.88888884  0.38888922  0.38970400
   0.22222213  0.72222226  0.38970400
   0.22222205  0.05555551  0.38970400
   0.22222192  0.38888922  0.38970400
   0.55555559  0.72222226  0.38970400
   0.55555551  0.05555551  0.38970400
   0.55555538  0.38888922  0.38970400
   0.99999990  0.83333327  0.46643533
   0.99999981  0.16666652  0.46643533
   0.99999969  0.50000023  0.46643533
   0.33333336  0.83333327  0.46643533
   0.33333327  0.16666652  0.46643533
   0.33333315  0.50000023  0.46643533
   0.66666682  0.83333327  0.46643533
   0.66666673  0.16666652  0.46643533
   0.66666661  0.50000023  0.46643533
   0.11111112  0.94444429  0.54472667
   0.11111104  0.27777753  0.54472667
   0.11111091  0.61111125  0.54472667
   0.44444458  0.94444429  0.54472667
   0.44444450  0.27777753  0.54472667
   0.44444437  0.61111125  0.54472667
   0.77777804  0.94444429  0.54472667
   0.77777796  0.27777753  0.54472667
   0.77777783  0.61111125  0.54472667
   0.34003429  0.48659795  0.61800000
   0.38217494  0.40231704  0.61800000
 
 position of ions in cartesian coordinates  (Angst):
   2.36204000-11.45372000 -6.61281000
   2.36204000-14.31714000-11.57241000
   2.36204000 -8.59029000 -1.65320000
   2.36204000-17.18057000 -6.61281000
   2.36204000-20.04400000-11.57241000
   2.36204000-14.31714000 -1.65320000
   2.36204000 -5.72686000 -6.61281000
   2.36204000 -8.59029000-11.57241000
   2.36204000 -2.86343000 -1.65320000
   4.71078000-14.31714000 -8.26601000
   4.71078000-17.18057000-13.22561000
   4.71078000-11.45372000 -3.30640000
   4.71078000-20.04400000 -8.26601000
   4.71078000-22.90743000-13.22561000
   4.71078000-17.18057000 -3.30640000
   4.71078000 -8.59029000 -8.26601000
   4.71078000-11.45372000-13.22561000
   4.71078000 -5.72686000 -3.30640000
   7.01272000-17.18057000 -9.91921000
   7.01272000-11.45372000  0.00000000
   7.01272000-14.31714000 -4.95960000
   7.01272000 -5.72686000 -9.91921000
   7.01272000  0.00000000  0.00000000
   7.01272000 -2.86343000 -4.95960000
   7.01272000-11.45372000 -9.91921000
   7.01272000 -5.72686000  0.00000000
   7.01272000 -8.59029000 -4.95960000
   9.35192000-20.04400000-11.57241000
   9.35192000-14.31714000 -1.65320000
   9.35192000-17.18057000 -6.61281000
   9.35192000 -8.59029000-11.57241000
   9.35192000 -2.86343000 -1.65320000
   9.35192000 -5.72686000 -6.61281000
   9.35192000-14.31714000-11.57241000
   9.35192000 -8.59029000 -1.65320000
   9.35192000-11.45372000 -6.61281000
  11.69112000-22.90743000-13.22561000
  11.69112000-17.18057000 -3.30640000
  11.69112000-20.04400000 -8.26601000
  11.69112000-11.45372000-13.22561000
  11.69112000 -5.72686000 -3.30640000
  11.69112000 -8.59029000 -8.26601000
  11.69112000-17.18057000-13.22561000
  11.69112000-11.45372000 -3.30640000
  11.69112000-14.31714000 -8.26601000
  13.99306000  0.00000000  0.00000000
  13.99306000 -2.86343000 -4.95960000
  13.99306000 -5.72686000 -9.91921000
  13.99306000 -5.72686000  0.00000000
  13.99306000 -8.59029000 -4.95960000
  13.99306000-11.45372000 -9.91921000
  13.99306000-11.45372000  0.00000000
  13.99306000-14.31714000 -4.95960000
  13.99306000-17.18057000 -9.91921000
  16.34180000 -2.86343000 -1.65320000
  16.34180000 -5.72686000 -6.61281000
  16.34180000 -8.59029000-11.57241000
  16.34180000 -8.59029000 -1.65320000
  16.34180000-11.45372000 -6.61281000
  16.34180000-14.31714000-11.57241000
  16.34180000-14.31714000 -1.65320000
  16.34180000-17.18057000 -6.61281000
  16.34180000-20.04400000-11.57241000
   2.36204000 -7.15857000 -4.13300000
   2.36204000-10.02200000 -9.09261000
   2.36204000-12.88543000-14.05221000
   2.36204000-12.88543000 -4.13300000
   2.36204000-15.74886000 -9.09261000
   2.36204000-18.61229000-14.05221000
   2.36204000-18.61229000 -4.13300000
   2.36204000-21.47572000 -9.09261000
   2.36204000-24.33915000-14.05221000
   4.71078000-10.02200000 -5.78621000
   4.71078000-12.88543000-10.74581000
   4.71078000 -7.15857000 -0.82660000
   4.71078000-15.74886000 -5.78621000
   4.71078000-18.61229000-10.74581000
   4.71078000-12.88543000 -0.82660000
   4.71078000 -4.29514000 -5.78621000
   4.71078000 -7.15857000-10.74581000
   4.71078000 -1.43171000 -0.82660000
   7.01272000-12.88543000 -7.43941000
   7.01272000-15.74886000-12.39901000
   7.01272000-10.02200000 -2.47980000
   7.01272000-18.61229000 -7.43941000
   7.01272000-21.47572000-12.39901000
   7.01272000-15.74886000 -2.47980000
   7.01272000 -7.15857000 -7.43941000
   7.01272000-10.02200000-12.39901000
   7.01272000 -4.29514000 -2.47980000
   9.35192000-15.74886000 -9.09261000
   9.35192000-18.61229000-14.05221000
   9.35192000-12.88543000 -4.13300000
   9.35192000-21.47572000 -9.09261000
   9.35192000-24.33915000-14.05221000
   9.35192000-18.61229000 -4.13300000
   9.35192000-10.02200000 -9.09261000
   9.35192000-12.88543000-14.05221000
   9.35192000 -7.15857000 -4.13300000
  11.69112000-18.61229000-10.74581000
  11.69112000-12.88543000 -0.82660000
  11.69112000-15.74886000 -5.78621000
  11.69112000 -7.15857000-10.74581000
  11.69112000 -1.43171000 -0.82660000
  11.69112000 -4.29514000 -5.78621000
  11.69112000-12.88543000-10.74581000
  11.69112000 -7.15857000 -0.82660000
  11.69112000-10.02200000 -5.78621000
  13.99306000-21.47572000-12.39901000
  13.99306000-15.74886000 -2.47980000
  13.99306000-18.61229000 -7.43941000
  13.99306000-10.02200000-12.39901000
  13.99306000 -4.29514000 -2.47980000
  13.99306000 -7.15857000 -7.43941000
  13.99306000-15.74886000-12.39901000
  13.99306000-10.02200000 -2.47980000
  13.99306000-12.88543000 -7.43941000
  16.34180000-24.33915000-14.05221000
  16.34180000-18.61229000 -4.13300000
  16.34180000-21.47572000 -9.09261000
  16.34180000-12.88543000-14.05221000
  16.34180000 -7.15857000 -4.13300000
  16.34180000-10.02200000 -9.09261000
  16.34180000-18.61229000-14.05221000
  16.34180000-12.88543000 -4.13300000
  16.34180000-15.74886000 -9.09261000
   2.36204000 -8.59029000 -6.61281000
   2.36204000-11.45372000-11.57241000
   2.36204000 -5.72686000 -1.65320000
   2.36204000-14.31714000 -6.61281000
   2.36204000-17.18057000-11.57241000
   2.36204000-11.45372000 -1.65320000
   2.36204000-20.04400000 -6.61281000
   2.36204000-22.90743000-11.57241000
   2.36204000-17.18057000 -1.65320000
   4.71078000-11.45372000 -8.26601000
   4.71078000-14.31714000-13.22561000
   4.71078000 -8.59029000 -3.30640000
   4.71078000-17.18057000 -8.26601000
   4.71078000-20.04400000-13.22561000
   4.71078000-14.31714000 -3.30640000
   4.71078000 -5.72686000 -8.26601000
   4.71078000 -8.59029000-13.22561000
   4.71078000 -2.86343000 -3.30640000
   7.01272000-14.31714000 -9.91921000
   7.01272000 -8.59029000  0.00000000
   7.01272000-11.45372000 -4.95960000
   7.01272000-20.04400000 -9.91921000
   7.01272000-14.31714000  0.00000000
   7.01272000-17.18057000 -4.95960000
   7.01272000 -8.59029000 -9.91921000
   7.01272000 -2.86343000  0.00000000
   7.01272000 -5.72686000 -4.95960000
   9.35192000-17.18057000-11.57241000
   9.35192000-11.45372000 -1.65320000
   9.35192000-14.31714000 -6.61281000
   9.35192000-22.90743000-11.57241000
   9.35192000-17.18057000 -1.65320000
   9.35192000-20.04400000 -6.61281000
   9.35192000-11.45372000-11.57241000
   9.35192000 -5.72686000 -1.65320000
   9.35192000 -8.59029000 -6.61281000
  11.69112000-20.04400000-13.22561000
  11.69112000-14.31714000 -3.30640000
  11.69112000-17.18057000 -8.26601000
  11.69112000 -8.59029000-13.22561000
  11.69112000 -2.86343000 -3.30640000
  11.69112000 -5.72686000 -8.26601000
  11.69112000-14.31714000-13.22561000
  11.69112000 -8.59029000 -3.30640000
  11.69112000-11.45372000 -8.26601000
  13.99306000-14.31714000  0.00000000
  13.99306000-17.18057000 -4.95960000
  13.99306000-20.04400000 -9.91921000
  13.99306000 -2.86343000  0.00000000
  13.99306000 -5.72686000 -4.95960000
  13.99306000 -8.59029000 -9.91921000
  13.99306000 -8.59029000  0.00000000
  13.99306000-11.45372000 -4.95960000
  13.99306000-14.31714000 -9.91921000
  16.34180000-17.18057000 -1.65320000
  16.34180000-20.04400000 -6.61281000
  16.34180000-22.90743000-11.57241000
  16.34180000 -5.72686000 -1.65320000
  16.34180000 -8.59029000 -6.61281000
  16.34180000-11.45372000-11.57241000
  16.34180000-11.45372000 -1.65320000
  16.34180000-14.31714000 -6.61281000
  16.34180000-17.18057000-11.57241000
   2.36204000-10.02200000 -4.13300000
   2.36204000-12.88543000 -9.09261000
   2.36204000-15.74886000-14.05221000
   2.36204000-15.74886000 -4.13300000
   2.36204000-18.61229000 -9.09261000
   2.36204000-21.47572000-14.05221000
   2.36204000 -4.29514000 -4.13300000
   2.36204000 -7.15857000 -9.09261000
   2.36204000-10.02200000-14.05221000
   4.71078000-12.88543000 -5.78621000
   4.71078000-15.74886000-10.74581000
   4.71078000-10.02200000 -0.82660000
   4.71078000-18.61229000 -5.78621000
   4.71078000-21.47572000-10.74581000
   4.71078000-15.74886000 -0.82660000
   4.71078000 -7.15857000 -5.78621000
   4.71078000-10.02200000-10.74581000
   4.71078000 -4.29514000 -0.82660000
   7.01272000-15.74886000 -7.43941000
   7.01272000-18.61229000-12.39901000
   7.01272000-12.88543000 -2.47980000
   7.01272000-21.47571346 -7.43941000
   7.01272000-24.33914346-12.39901000
   7.01272000-18.61228346 -2.47980000
   7.01272000-10.02200000 -7.43941000
   7.01272000-12.88543000-12.39901000
   7.01272000 -7.15857000 -2.47980000
   9.35192000-18.61229000 -9.09261000
   9.35192000-21.47572000-14.05221000
   9.35192000-15.74886000 -4.13300000
   9.35192000 -7.15857000 -9.09261000
   9.35192000-10.02200000-14.05221000
   9.35192000 -4.29514000 -4.13300000
   9.35192000-12.88543000 -9.09261000
   9.35192000-15.74886000-14.05221000
   9.35192000-10.02200000 -4.13300000
  11.69112000-21.47572000-10.74581000
  11.69112000-15.74886000 -0.82660000
  11.69112000-18.61229000 -5.78621000
  11.69112000-10.02200000-10.74581000
  11.69112000 -4.29514000 -0.82660000
  11.69112000 -7.15857000 -5.78621000
  11.69112000-15.74886000-10.74581000
  11.69112000-10.02200000 -0.82660000
  11.69112000-12.88543000 -5.78621000
  13.99306000-24.33914346-12.39901000
  13.99306000-18.61228346 -2.47980000
  13.99306000-21.47571346 -7.43941000
  13.99306000-12.88543000-12.39901000
  13.99306000 -7.15857000 -2.47980000
  13.99306000-10.02200000 -7.43941000
  13.99306000-18.61229000-12.39901000
  13.99306000-12.88543000 -2.47980000
  13.99306000-15.74886000 -7.43941000
  16.34180000-10.02200000-14.05221000
  16.34180000 -4.29514000 -4.13300000
  16.34180000 -7.15857000 -9.09261000
  16.34180000-15.74886000-14.05221000
  16.34180000-10.02200000 -4.13300000
  16.34180000-12.88543000 -9.09261000
  16.34180000-21.47572000-14.05221000
  16.34180000-15.74886000 -4.13300000
  16.34180000-18.61229000 -9.09261000
  18.54000000-10.02200000 -7.24000000
  18.54000000-10.02200333 -5.98600000
 


--------------------------------------------------------------------------------------------------------


 k-point  1 :   0.0000 0.0000 0.0000  plane waves:   90499
 k-point  2 :   0.5000 0.0000 0.0000  plane waves:   90530
 k-point  3 :   0.0000 0.5000 0.0000  plane waves:   90530

 maximum and minimum number of plane-waves per node :     90530    90499

 maximum number of plane-waves:     90530
 maximum index in each direction: 
   IXMAX=   24   IYMAX=   24   IZMAX=   42
   IXMIN=  -24   IYMIN=  -24   IZMIN=  -42


 serial   3D FFT for wavefunctions
 parallel 3D FFT for charge:
    minimum data exchange during FFTs selected (reduces bandwidth)


 total amount of memory used by VASP MPI-rank0   652111. kBytes
=======================================================================

   base      :      30000. kBytes
   nonlr-proj:      89890. kBytes
   fftplans  :      40601. kBytes
   grid      :      95147. kBytes
   one-center:       3950. kBytes
   wavefun   :     392523. kBytes
 
     INWAV:  cpu time    0.0001: real time    0.0003
 Broyden mixing: mesh for mixing (old mesh)
   NGX = 49   NGY = 49   NGZ = 85
  (NGX  =160   NGY  =160   NGZ  =256)
  gives a total of 204085 points

 initial charge density was supplied:
 charge density of overlapping atoms calculated
 number of electron     766.0000000 magnetization 
 keeping initial charge density in first step


--------------------------------------------------------------------------------------------------------


 Maximum index for non-local projection operator         4269
 Maximum index for augmentation-charges          758 (set IRDMAX)


--------------------------------------------------------------------------------------------------------


 First call to EWALD:  gamma=   0.090
 Maximum number of real-space cells 3x 3x 2
 Maximum number of reciprocal cells 2x 2x 4

    FEWALD:  cpu time    0.0364: real time    0.0365


----------------------------------------- Iteration    1(   1)  ---------------------------------------


    POTLOK:  cpu time    0.9044: real time    0.9743
    SETDIJ:  cpu time    0.1070: real time    0.1106
     EDDAV:  cpu time   19.1287: real time   22.0297
       DOS:  cpu time    0.0015: real time    0.0069
    --------------------------------------------
      LOOP:  cpu time   20.1438: real time   23.1548

 eigenvalue-minimisations  :  3144
 total energy-change (2. order) : 0.2127322E+04  (-0.1841852E+05)
 number of electron     766.0000000 magnetization 
 augmentation part      766.0000000 magnetization 

 Free energy of the ion-electron system (eV)
  ---------------------------------------------------
  alpha Z        PSCENC =       505.22967617
  Ewald energy   TEWEN  =     88049.41457352
  -Hartree energ DENC   =   -102117.71985909
  -exchange      EXHF   =         0.00000000
  -V(xc)+E(xc)   XCENC  =     -6605.52900990
  PAW double counting   =     17092.30507181    -9042.14386232
  entropy T*S    EENTRO =        -0.06711741
  eigenvalues    EBANDS =       226.63028022
  atomic energy  EATOM  =     14019.20197576
  Solvation  Ediel_sol  =         0.00000000
  ---------------------------------------------------
  free energy    TOTEN  =      2127.32172875 eV

  energy without entropy =     2127.38884616  energy(sigma->0) =     2127.35528746


--------------------------------------------------------------------------------------------------------




----------------------------------------- Iteration    1(   2)  ---------------------------------------


     EDDAV:  cpu time   23.7513: real time   27.1235
       DOS:  cpu time    0.0014: real time    0.0014
    --------------------------------------------
      LOOP:  cpu time   23.7542: real time   27.1331

 eigenvalue-minimisations  :  4224
 total energy-change (2. order) :-0.2872797E+04  (-0.2709615E+04)
 number of electron     766.0000000 magnetization 
 augmentation part      766.0000000 magnetization 

 Free energy of the ion-electron system (eV)
  ---------------------------------------------------
  alpha Z        PSCENC =       505.22967617
  Ewald energy   TEWEN  =     88049.41457352
  -Hartree energ DENC   =   -102117.71985909
  -exchange      EXHF   =         0.00000000
  -V(xc)+E(xc)   XCENC  =     -6605.52900990
  PAW double counting   =     17092.30507181    -9042.14386232
  entropy T*S    EENTRO =        -0.11155211
  eigenvalues    EBANDS =     -2646.12210915
  atomic energy  EATOM  =     14019.20197576
  Solvation  Ediel_sol  =         0.00000000
  ---------------------------------------------------
  free energy    TOTEN  =      -745.47509532 eV

  energy without entropy =     -745.36354321  energy(sigma->0) =     -745.41931926


--------------------------------------------------------------------------------------------------------




----------------------------------------- Iteration    1(   3)  ---------------------------------------


     EDDAV:  cpu time   26.0183: real time   29.5783
       DOS:  cpu time    0.0014: real time    0.0014
    --------------------------------------------
      LOOP:  cpu time   26.0211: real time   29.5824

 eigenvalue-minimisations  :  4728
 total energy-change (2. order) :-0.2085184E+03  (-0.2000156E+03)
 number of electron     766.0000000 magnetization 
 augmentation part      766.0000000 magnetization 

 Free energy of the ion-electron system (eV)
  ---------------------------------------------------
  alpha Z        PSCENC =       505.22967617
  Ewald energy   TEWEN  =     88049.41457352
  -Hartree energ DENC   =   -102117.71985909
  -exchange      EXHF   =         0.00000000
  -V(xc)+E(xc)   XCENC  =     -6605.52900990
  PAW double counting   =     17092.30507181    -9042.14386232
  entropy T*S    EENTRO =        -0.22684027
  eigenvalues    EBANDS =     -2854.52522019
  atomic energy  EATOM  =     14019.20197576
  Solvation  Ediel_sol  =         0.00000000
  ---------------------------------------------------
  free energy    TOTEN  =      -953.99349452 eV

  energy without entropy =     -953.76665425  energy(sigma->0) =     -953.88007438


--------------------------------------------------------------------------------------------------------




----------------------------------------- Iteration    1(   4)  ---------------------------------------


     EDDAV:  cpu time   24.2456: real time   27.5836
       DOS:  cpu time    0.0021: real time    0.0021
    --------------------------------------------
      LOOP:  cpu time   24.2491: real time   27.5889

 eigenvalue-minimisations  :  4296
 total energy-change (2. order) :-0.7743702E+01  (-0.7558849E+01)
 number of electron     766.0000000 magnetization 
 augmentation part      766.0000000 magnetization 

 Free energy of the ion-electron system (eV)
  ---------------------------------------------------
  alpha Z        PSCENC =       505.22967617
  Ewald energy   TEWEN  =     88049.41457352
  -Hartree energ DENC   =   -102117.71985909
  -exchange      EXHF   =         0.00000000
  -V(xc)+E(xc)   XCENC  =     -6605.52900990
  PAW double counting   =     17092.30507181    -9042.14386232
  entropy T*S    EENTRO =        -0.25365148
  eigenvalues    EBANDS =     -2862.24211098
  atomic energy  EATOM  =     14019.20197576
  Solvation  Ediel_sol  =         0.00000000
  ---------------------------------------------------
  free energy    TOTEN  =      -961.73719652 eV

  energy without entropy =     -961.48354504  energy(sigma->0) =     -961.61037078


--------------------------------------------------------------------------------------------------------




----------------------------------------- Iteration    1(   5)  ---------------------------------------


     EDDAV:  cpu time   27.8641: real time   31.6145
       DOS:  cpu time    0.0014: real time    0.0014
    CHARGE:  cpu time    1.7837: real time    1.8511
    MIXING:  cpu time    0.0277: real time    0.0278
    --------------------------------------------
      LOOP:  cpu time   29.6784: real time   33.4979

 eigenvalue-minimisations  :  5124
 total energy-change (2. order) :-0.4030022E+00  (-0.3998278E+00)
 number of electron     766.0000001 magnetization 
 augmentation part      -10.0208184 magnetization 

 Broyden mixing:
  rms(total) = 0.18656E+01    rms(broyden)= 0.18647E+01
  rms(prec ) = 0.26281E+01
  weight for this iteration     100.00

 Free energy of the ion-electron system (eV)
  ---------------------------------------------------
  alpha Z        PSCENC =       505.22967617
  Ewald energy   TEWEN  =     88049.41457352
  -Hartree energ DENC   =   -102117.71985909
  -exchange      EXHF   =         0.00000000
  -V(xc)+E(xc)   XCENC  =     -6605.52900990
  PAW double counting   =     17092.30507181    -9042.14386232
  entropy T*S    EENTRO =        -0.25464099
  eigenvalues    EBANDS =     -2862.64412367
  atomic energy  EATOM  =     14019.20197576
  Solvation  Ediel_sol  =         0.00000000
  ---------------------------------------------------
  free energy    TOTEN  =      -962.14019871 eV

  energy without entropy =     -961.88555772  energy(sigma->0) =     -962.01287822


--------------------------------------------------------------------------------------------------------




----------------------------------------- Iteration    1(   6)  ---------------------------------------


    POTLOK:  cpu time    0.8650: real time    0.8692
    SETDIJ:  cpu time    0.1077: real time    0.1085
     EDDAV:  cpu time   25.2207: real time   28.7735
       DOS:  cpu time    0.0023: real time    0.0023
    CHARGE:  cpu time    1.7940: real time    1.8338
    MIXING:  cpu time    0.0296: real time    0.0329
    --------------------------------------------
      LOOP:  cpu time   28.0212: real time   31.6254

 eigenvalue-minimisations  :  4476
 total energy-change (2. order) :-0.1622640E+02  (-0.1932731E+02)
 number of electron     766.0000008 magnetization 
 augmentation part       -9.8324060 magnetization 

 Broyden mixing:
  rms(total) = 0.19206E+01    rms(broyden)= 0.19204E+01
  rms(prec ) = 0.43064E+01
  weight for this iteration     100.00

 eigenvalues of (default mixing * dielectric matrix)
  average eigenvalue GAMMA=   0.7047
  0.7047

 Free energy of the ion-electron system (eV)
  ---------------------------------------------------
  alpha Z        PSCENC =       505.22967617
  Ewald energy   TEWEN  =     88049.41457352
  -Hartree energ DENC   =   -103042.78566858
  -exchange      EXHF   =         0.00000000
  -V(xc)+E(xc)   XCENC  =     -6595.72251459
  PAW double counting   =     19031.23388285   -10982.37741918
  entropy T*S    EENTRO =        -0.16826389
  eigenvalues    EBANDS =     -1962.39283970
  atomic energy  EATOM  =     14019.20197576
  Solvation  Ediel_sol  =         0.00000000
  ---------------------------------------------------
  free energy    TOTEN  =      -978.36659763 eV

  energy without entropy =     -978.19833375  energy(sigma->0) =     -978.28246569


--------------------------------------------------------------------------------------------------------




----------------------------------------- Iteration    1(   7)  ---------------------------------------


    POTLOK:  cpu time    0.8767: real time    0.8793
    SETDIJ:  cpu time    0.1080: real time    0.1081
     EDDAV:  cpu time   22.7541: real time   25.9447
       DOS:  cpu time    0.0014: real time    0.0014
    CHARGE:  cpu time    1.8201: real time    1.8620
    MIXING:  cpu time    0.0304: real time    0.0304
    --------------------------------------------
      LOOP:  cpu time   25.5926: real time   28.8289

 eigenvalue-minimisations  :  3936
 total energy-change (2. order) : 0.4158328E+02  (-0.1371023E+02)
 number of electron     766.0000003 magnetization 
 augmentation part      -10.0077053 magnetization 

 Broyden mixing:
  rms(total) = 0.97372E+00    rms(broyden)= 0.97326E+00
  rms(prec ) = 0.12603E+01
  weight for this iteration     100.00

 eigenvalues of (default mixing * dielectric matrix)
  average eigenvalue GAMMA=   1.1492
  1.9992  0.2992

 Free energy of the ion-electron system (eV)
  ---------------------------------------------------
  alpha Z        PSCENC =       505.22967617
  Ewald energy   TEWEN  =     88049.41457352
  -Hartree energ DENC   =   -102517.02491149
  -exchange      EXHF   =         0.00000000
  -V(xc)+E(xc)   XCENC  =     -6593.37613688
  PAW double counting   =     19408.81965747   -11360.11036667
  entropy T*S    EENTRO =        -0.05409973
  eigenvalues    EBANDS =     -2448.88368819
  atomic energy  EATOM  =     14019.20197576
  Solvation  Ediel_sol  =         0.00000000
  ---------------------------------------------------
  free energy    TOTEN  =      -936.78332003 eV

  energy without entropy =     -936.72922031  energy(sigma->0) =     -936.75627017


--------------------------------------------------------------------------------------------------------




----------------------------------------- Iteration    1(   8)  ---------------------------------------


    POTLOK:  cpu time    0.8780: real time    0.8805
    SETDIJ:  cpu time    0.1090: real time    0.1091
     EDDAV:  cpu time   23.5015: real time   26.7838
       DOS:  cpu time    0.0123: real time    0.0123
    CHARGE:  cpu time    1.8131: real time    1.8535
    MIXING:  cpu time    0.0319: real time    0.0319
    --------------------------------------------
      LOOP:  cpu time   26.3478: real time   29.6742

 eigenvalue-minimisations  :  4116
 total energy-change (2. order) :-0.4908373E+01  (-0.4543507E+01)
 number of electron     765.9999999 magnetization 
 augmentation part      -10.1163457 magnetization 

 Broyden mixing:
  rms(total) = 0.70478E+00    rms(broyden)= 0.70476E+00
  rms(prec ) = 0.20159E+01
  weight for this iteration     100.00

 eigenvalues of (default mixing * dielectric matrix)
  average eigenvalue GAMMA=   1.0640
  2.3659  0.5378  0.2884

 Free energy of the ion-electron system (eV)
  ---------------------------------------------------
  alpha Z        PSCENC =       505.22967617
  Ewald energy   TEWEN  =     88049.41457352
  -Hartree energ DENC   =   -102660.84283788
  -exchange      EXHF   =         0.00000000
  -V(xc)+E(xc)   XCENC  =     -6584.74497790
  PAW double counting   =     20822.47866251   -12774.54945291
  entropy T*S    EENTRO =        -0.06724475
  eigenvalues    EBANDS =     -2317.81206766
  atomic energy  EATOM  =     14019.20197576
  Solvation  Ediel_sol  =         0.00000000
  ---------------------------------------------------
  free energy    TOTEN  =      -941.69169315 eV

  energy without entropy =     -941.62444839  energy(sigma->0) =     -941.65807077


--------------------------------------------------------------------------------------------------------




----------------------------------------- Iteration    1(   9)  ---------------------------------------


    POTLOK:  cpu time    0.8791: real time    0.8818
    SETDIJ:  cpu time    0.1086: real time    0.1088
     EDDAV:  cpu time   23.4719: real time   26.7376
       DOS:  cpu time    0.0131: real time    0.0131
    CHARGE:  cpu time    1.8172: real time    1.8583
    MIXING:  cpu time    0.0330: real time    0.0330
    --------------------------------------------
      LOOP:  cpu time   26.3250: real time   29.6357

 eigenvalue-minimisations  :  4104
 total energy-change (2. order) : 0.2816114E+01  (-0.6260597E+00)
 number of electron     766.0000004 magnetization 
 augmentation part      -10.1593509 magnetization 

 Broyden mixing:
  rms(total) = 0.53501E+00    rms(broyden)= 0.53500E+00
  rms(prec ) = 0.15545E+01
  weight for this iteration     100.00

 eigenvalues of (default mixing * dielectric matrix)
  average eigenvalue GAMMA=   0.9092
  2.5028  0.6996  0.2930  0.1413

 Free energy of the ion-electron system (eV)
  ---------------------------------------------------
  alpha Z        PSCENC =       505.22967617
  Ewald energy   TEWEN  =     88049.41457352
  -Hartree energ DENC   =   -102730.79831853
  -exchange      EXHF   =         0.00000000
  -V(xc)+E(xc)   XCENC  =     -6581.68658185
  PAW double counting   =     21305.39127473   -13257.78946481
  entropy T*S    EENTRO =        -0.04887431
  eigenvalues    EBANDS =     -2247.78983988
  atomic energy  EATOM  =     14019.20197576
  Solvation  Ediel_sol  =         0.00000000
  ---------------------------------------------------
  free energy    TOTEN  =      -938.87557921 eV

  energy without entropy =     -938.82670489  energy(sigma->0) =     -938.85114205


--------------------------------------------------------------------------------------------------------




----------------------------------------- Iteration    1(  10)  ---------------------------------------


    POTLOK:  cpu time    0.8805: real time    0.8830
    SETDIJ:  cpu time    0.1077: real time    0.1082
     EDDAV:  cpu time   23.2762: real time   26.4935
       DOS:  cpu time    0.0013: real time    0.0013
    CHARGE:  cpu time    1.8299: real time    1.8702
    MIXING:  cpu time    0.0348: real time    0.0349
    --------------------------------------------
      LOOP:  cpu time   26.1323: real time   29.3944

 eigenvalue-minimisations  :  4056
 total energy-change (2. order) : 0.4476176E+01  (-0.5161076E+00)
 number of electron     766.0000003 magnetization 
 augmentation part      -10.1791080 magnetization 

 Broyden mixing:
  rms(total) = 0.11652E+00    rms(broyden)= 0.11612E+00
  rms(prec ) = 0.17361E+00
  weight for this iteration     100.00

 eigenvalues of (default mixing * dielectric matrix)
  average eigenvalue GAMMA=   0.8937
  2.4993  0.9063  0.6287  0.2928  0.1414

 Free energy of the ion-electron system (eV)
  ---------------------------------------------------
  alpha Z        PSCENC =       505.22967617
  Ewald energy   TEWEN  =     88049.41457352
  -Hartree energ DENC   =   -102851.90486733
  -exchange      EXHF   =         0.00000000
  -V(xc)+E(xc)   XCENC  =     -6575.90123270
  PAW double counting   =     22191.53925054   -14144.63966933
  entropy T*S    EENTRO =        -0.04705952
  eigenvalues    EBANDS =     -2127.29205019
  atomic energy  EATOM  =     14019.20197576
  Solvation  Ediel_sol  =         0.00000000
  ---------------------------------------------------
  free energy    TOTEN  =      -934.39940308 eV

  energy without entropy =     -934.35234357  energy(sigma->0) =     -934.37587332


--------------------------------------------------------------------------------------------------------




----------------------------------------- Iteration    1(  11)  ---------------------------------------


    POTLOK:  cpu time    0.8829: real time    0.8857
    SETDIJ:  cpu time    0.1089: real time    0.1096
     EDDAV:  cpu time   22.8568: real time   26.0819
       DOS:  cpu time    0.0084: real time    0.0084
    CHARGE:  cpu time    1.8303: real time    1.8707
    MIXING:  cpu time    0.0356: real time    0.0383
    --------------------------------------------
      LOOP:  cpu time   25.7248: real time   28.9978

 eigenvalue-minimisations  :  3972
 total energy-change (2. order) :-0.2199323E-01  (-0.1984921E+00)
 number of electron     766.0000003 magnetization 
 augmentation part      -10.2310101 magnetization 

 Broyden mixing:
  rms(total) = 0.77040E-01    rms(broyden)= 0.77033E-01
  rms(prec ) = 0.10340E+00
  weight for this iteration     100.00

 eigenvalues of (default mixing * dielectric matrix)
  average eigenvalue GAMMA=   0.9681
  2.2965  1.7333  0.6735  0.6735  0.2903  0.1417

 Free energy of the ion-electron system (eV)
  ---------------------------------------------------
  alpha Z        PSCENC =       505.22967617
  Ewald energy   TEWEN  =     88049.41457352
  -Hartree energ DENC   =   -102898.81788926
  -exchange      EXHF   =         0.00000000
  -V(xc)+E(xc)   XCENC  =     -6575.13970618
  PAW double counting   =     22220.29571712   -14173.61827361
  entropy T*S    EENTRO =        -0.04740124
  eigenvalues    EBANDS =     -2080.94006860
  atomic energy  EATOM  =     14019.20197576
  Solvation  Ediel_sol  =         0.00000000
  ---------------------------------------------------
  free energy    TOTEN  =      -934.42139631 eV

  energy without entropy =     -934.37399507  energy(sigma->0) =     -934.39769569


--------------------------------------------------------------------------------------------------------




----------------------------------------- Iteration    1(  12)  ---------------------------------------


    POTLOK:  cpu time    0.8836: real time    0.8860
    SETDIJ:  cpu time    0.1079: real time    0.1082
     EDDAV:  cpu time   23.4259: real time   26.6206
       DOS:  cpu time    0.0090: real time    0.0090
    CHARGE:  cpu time    1.8350: real time    1.8751
    MIXING:  cpu time    0.0370: real time    0.0373
    --------------------------------------------
      LOOP:  cpu time   26.3003: real time   29.5390

 eigenvalue-minimisations  :  4092
 total energy-change (2. order) : 0.2496102E-01  (-0.2380534E-01)
 number of electron     766.0000003 magnetization 
 augmentation part      -10.2296130 magnetization 

 Broyden mixing:
  rms(total) = 0.53037E-01    rms(broyden)= 0.53033E-01
  rms(prec ) = 0.75394E-01
  weight for this iteration     100.00

 eigenvalues of (default mixing * dielectric matrix)
  average eigenvalue GAMMA=   1.0864
  2.4551  2.4551  0.8075  0.8075  0.6472  0.2907  0.1417

 Free energy of the ion-electron system (eV)
  ---------------------------------------------------
  alpha Z        PSCENC =       505.22967617
  Ewald energy   TEWEN  =     88049.41457352
  -Hartree energ DENC   =   -102943.68318006
  -exchange      EXHF   =         0.00000000
  -V(xc)+E(xc)   XCENC  =     -6574.76864276
  PAW double counting   =     22201.04988259   -14154.70116418
  entropy T*S    EENTRO =        -0.04828555
  eigenvalues    EBANDS =     -2036.09127078
  atomic energy  EATOM  =     14019.20197576
  Solvation  Ediel_sol  =         0.00000000
  ---------------------------------------------------
  free energy    TOTEN  =      -934.39643529 eV

  energy without entropy =     -934.34814975  energy(sigma->0) =     -934.37229252


--------------------------------------------------------------------------------------------------------




----------------------------------------- Iteration    1(  13)  ---------------------------------------


    POTLOK:  cpu time    0.8862: real time    0.8888
    SETDIJ:  cpu time    0.1080: real time    0.1083
     EDDAV:  cpu time   22.9911: real time   26.1531
       DOS:  cpu time    0.0024: real time    0.0024
    CHARGE:  cpu time    1.8145: real time    1.8532
    MIXING:  cpu time    0.0387: real time    0.0389
    --------------------------------------------
      LOOP:  cpu time   25.8427: real time   29.0476

 eigenvalue-minimisations  :  3984
 total energy-change (2. order) : 0.3130464E-01  (-0.4244729E-02)
 number of electron     766.0000003 magnetization 
 augmentation part      -10.2247007 magnetization 

 Broyden mixing:
  rms(total) = 0.33409E-01    rms(broyden)= 0.33390E-01
  rms(prec ) = 0.52489E-01
  weight for this iteration     100.00

 eigenvalues of (default mixing * dielectric matrix)
  average eigenvalue GAMMA=   1.1150
  2.6285  2.6285  0.1417  0.2907  0.9407  0.9407  0.6747  0.6747

 Free energy of the ion-electron system (eV)
  ---------------------------------------------------
  alpha Z        PSCENC =       505.22967617
  Ewald energy   TEWEN  =     88049.41457352
  -Hartree energ DENC   =   -102982.90317815
  -exchange      EXHF   =         0.00000000
  -V(xc)+E(xc)   XCENC  =     -6574.14764263
  PAW double counting   =     22233.57864256   -14187.44498829
  entropy T*S    EENTRO =        -0.04876814
  eigenvalues    EBANDS =     -1997.24542144
  atomic energy  EATOM  =     14019.20197576
  Solvation  Ediel_sol  =         0.00000000
  ---------------------------------------------------
  free energy    TOTEN  =      -934.36513065 eV

  energy without entropy =     -934.31636251  energy(sigma->0) =     -934.34074658


--------------------------------------------------------------------------------------------------------




----------------------------------------- Iteration    1(  14)  ---------------------------------------


    POTLOK:  cpu time    0.8903: real time    0.8922
    SETDIJ:  cpu time    0.1079: real time    0.1085
     EDDAV:  cpu time   21.9218: real time   25.0177
       DOS:  cpu time    0.0024: real time    0.0024
    CHARGE:  cpu time    1.8050: real time    1.8444
    MIXING:  cpu time    0.0416: real time    0.0416
    --------------------------------------------
      LOOP:  cpu time   24.7708: real time   27.9096

 eigenvalue-minimisations  :  3756
 total energy-change (2. order) : 0.1323343E-01  (-0.2949295E-02)
 number of electron     766.0000003 magnetization 
 augmentation part      -10.2226145 magnetization 

 Broyden mixing:
  rms(total) = 0.20775E-01    rms(broyden)= 0.20770E-01
  rms(prec ) = 0.33107E-01
  weight for this iteration     100.00

 eigenvalues of (default mixing * dielectric matrix)
  average eigenvalue GAMMA=   1.0985
  2.7458  2.6622  1.1436  0.1417  0.2907  0.9013  0.7049  0.7049  0.5917

 Free energy of the ion-electron system (eV)
  ---------------------------------------------------
  alpha Z        PSCENC =       505.22967617
  Ewald energy   TEWEN  =     88049.41457352
  -Hartree energ DENC   =   -103010.82397618
  -exchange      EXHF   =         0.00000000
  -V(xc)+E(xc)   XCENC  =     -6573.74309362
  PAW double counting   =     22248.07206388   -14202.02028519
  entropy T*S    EENTRO =        -0.04852416
  eigenvalues    EBANDS =     -1969.63430741
  atomic energy  EATOM  =     14019.20197576
  Solvation  Ediel_sol  =         0.00000000
  ---------------------------------------------------
  free energy    TOTEN  =      -934.35189722 eV

  energy without entropy =     -934.30337307  energy(sigma->0) =     -934.32763514


--------------------------------------------------------------------------------------------------------




----------------------------------------- Iteration    1(  15)  ---------------------------------------


    POTLOK:  cpu time    0.8903: real time    0.8939
    SETDIJ:  cpu time    0.1082: real time    0.1083
     EDDAV:  cpu time   21.7273: real time   24.9120
       DOS:  cpu time    0.0231: real time    0.0231
    CHARGE:  cpu time    1.8152: real time    1.8541
    MIXING:  cpu time    0.0440: real time    0.0440
    --------------------------------------------
      LOOP:  cpu time   24.6101: real time   27.8385

 eigenvalue-minimisations  :  3732
 total energy-change (2. order) :-0.1457299E-02  (-0.1492050E-02)
 number of electron     766.0000003 magnetization 
 augmentation part      -10.2221801 magnetization 

 Broyden mixing:
  rms(total) = 0.13708E-01    rms(broyden)= 0.13706E-01
  rms(prec ) = 0.21712E-01
  weight for this iteration     100.00

 eigenvalues of (default mixing * dielectric matrix)
  average eigenvalue GAMMA=   1.1835
  3.1935  2.6410  1.6231  1.1774  0.1417  0.2907  0.7752  0.7752  0.7078  0.5095

 Free energy of the ion-electron system (eV)
  ---------------------------------------------------
  alpha Z        PSCENC =       505.22967617
  Ewald energy   TEWEN  =     88049.41457352
  -Hartree energ DENC   =   -103029.76095085
  -exchange      EXHF   =         0.00000000
  -V(xc)+E(xc)   XCENC  =     -6573.56592949
  PAW double counting   =     22243.43123232   -14197.38282008
  entropy T*S    EENTRO =        -0.04889789
  eigenvalues    EBANDS =     -1950.87221398
  atomic energy  EATOM  =     14019.20197576
  Solvation  Ediel_sol  =         0.00000000
  ---------------------------------------------------
  free energy    TOTEN  =      -934.35335452 eV

  energy without entropy =     -934.30445663  energy(sigma->0) =     -934.32890558


--------------------------------------------------------------------------------------------------------




----------------------------------------- Iteration    1(  16)  ---------------------------------------


    POTLOK:  cpu time    0.8890: real time    0.8919
    SETDIJ:  cpu time    0.1080: real time    0.1081
     EDDAV:  cpu time   21.2796: real time   24.2604
       DOS:  cpu time    0.0059: real time    0.0059
    CHARGE:  cpu time    1.8357: real time    1.8753
    MIXING:  cpu time    0.0449: real time    0.0450
    --------------------------------------------
      LOOP:  cpu time   24.1661: real time   27.5923

 eigenvalue-minimisations  :  3600
 total energy-change (2. order) :-0.7965693E-02  (-0.6506158E-03)
 number of electron     766.0000003 magnetization 
 augmentation part      -10.2227257 magnetization 

 Broyden mixing:
  rms(total) = 0.10334E-01    rms(broyden)= 0.10326E-01
  rms(prec ) = 0.15743E-01
  weight for this iteration     100.00

 eigenvalues of (default mixing * dielectric matrix)
  average eigenvalue GAMMA=   1.2854
  3.9950  2.6944  2.2644  1.2296  0.1417  0.2907  0.8103  0.8103  0.7069  0.7069
  0.4896

 Free energy of the ion-electron system (eV)
  ---------------------------------------------------
  alpha Z        PSCENC =       505.22967617
  Ewald energy   TEWEN  =     88049.41457352
  -Hartree energ DENC   =   -103045.89679146
  -exchange      EXHF   =         0.00000000
  -V(xc)+E(xc)   XCENC  =     -6573.49338591
  PAW double counting   =     22231.99991516   -14185.89850560
  entropy T*S    EENTRO =        -0.04902647
  eigenvalues    EBANDS =     -1934.86975139
  atomic energy  EATOM  =     14019.20197576
  Solvation  Ediel_sol  =         0.00000000
  ---------------------------------------------------
  free energy    TOTEN  =      -934.36132022 eV

  energy without entropy =     -934.31229375  energy(sigma->0) =     -934.33680698


--------------------------------------------------------------------------------------------------------




----------------------------------------- Iteration    1(  17)  ---------------------------------------


    POTLOK:  cpu time    0.9055: real time    0.9086
    SETDIJ:  cpu time    0.1088: real time    0.1088
     EDDAV:  cpu time   20.3421: real time   23.2957
       DOS:  cpu time    0.0015: real time    0.0015
    CHARGE:  cpu time    1.8094: real time    1.8488
    MIXING:  cpu time    0.0501: real time    0.0502
    --------------------------------------------
[...]
     11.69112     -8.59029     -8.26601        -0.026326     -0.015133     -0.000440
     11.69112    -17.18057    -13.22561         0.010326      0.005540     -0.011859
     11.69112    -11.45372     -3.30640         0.007747      0.006880     -0.026123
     11.69112    -14.31714     -8.26601         0.000560      0.007438      0.003273
     13.99306      0.00000      0.00000         0.004037     -0.000193      0.005440
     13.99306     -2.86343     -4.95960        -0.002466     -0.009806      0.002842
     13.99306     -5.72686     -9.91921         0.005803      0.007393     -0.001619
     13.99306     -5.72686      0.00000         0.001529     -0.002921     -0.005072
     13.99306     -8.59029     -4.95960        -0.079344      0.015972     -0.002574
     13.99306    -11.45372     -9.91921        -0.000343      0.011228      0.027318
     13.99306    -11.45372      0.00000        -0.002046     -0.002461      0.001931
     13.99306    -14.31714     -4.95960         0.005183     -0.004372     -0.003158
     13.99306    -17.18057     -9.91921        -0.006237      0.010149      0.008111
     16.34180     -2.86343     -1.65320        -0.009670     -0.009163      0.004246
     16.34180     -5.72686     -6.61281         0.023005      0.003176     -0.005368
     16.34180     -8.59029    -11.57241         0.022842      0.000073      0.002296
     16.34180     -8.59029     -1.65320         0.016817      0.003918     -0.006021
     16.34180    -11.45372     -6.61281        -0.409402     -0.263112     -0.004967
     16.34180    -14.31714    -11.57241         0.006142      0.004609      0.001451
     16.34180    -14.31714     -1.65320         0.004296      0.003608     -0.002642
     16.34180    -17.18057     -6.61281         0.000171      0.012953     -0.001771
     16.34180    -20.04400    -11.57241        -0.002680     -0.008997     -0.005130
      2.36204     -7.15857     -4.13300        -0.002570     -0.007887     -0.009481
      2.36204    -10.02200     -9.09261        -0.021454     -0.000000      0.007768
      2.36204    -12.88543    -14.05221        -0.004426     -0.000831     -0.006718
      2.36204    -12.88543     -4.13300        -0.002570      0.007887     -0.009481
      2.36204    -15.74886     -9.09261         0.011498     -0.012800     -0.012580
      2.36204    -18.61229    -14.05221         0.001190     -0.000000     -0.005132
      2.36204    -18.61229     -4.13300        -0.003827     -0.000000     -0.000170
      2.36204    -21.47572     -9.09261         0.011498      0.012800     -0.012580
      2.36204    -24.33915    -14.05221        -0.004426      0.000831     -0.006718
      4.71078    -10.02200     -5.78621        -0.014554     -0.000000      0.000397
      4.71078    -12.88543    -10.74581         0.003587      0.010175      0.001603
      4.71078     -7.15857     -0.82660        -0.002112      0.002050      0.003071
      4.71078    -15.74886     -5.78621        -0.000089     -0.001646      0.003562
      4.71078    -18.61229    -10.74581        -0.003367     -0.000000      0.005252
      4.71078    -12.88543     -0.82660        -0.002112     -0.002050      0.003071
      4.71078     -4.29514     -5.78621        -0.000089      0.001646      0.003562
      4.71078     -7.15857    -10.74581         0.003587     -0.010175      0.001603
      4.71078     -1.43171     -0.82660        -0.005308     -0.000000     -0.001927
      7.01272    -12.88543     -7.43941         0.003515      0.012208      0.000129
      7.01272    -15.74886    -12.39901         0.003960     -0.008861      0.005062
      7.01272    -10.02200     -2.47980        -0.007161     -0.000000     -0.015101
      7.01272    -18.61229     -7.43941         0.001587     -0.000000      0.006516
      7.01272    -21.47572    -12.39901         0.003960      0.008861      0.005062
      7.01272    -15.74886     -2.47980         0.001248     -0.002420      0.005893
      7.01272     -7.15857     -7.43941         0.003515     -0.012208      0.000129
      7.01272    -10.02200    -12.39901        -0.000018     -0.000000      0.006958
      7.01272     -4.29514     -2.47980         0.001248      0.002420      0.005893
      9.35192    -15.74886     -9.09261        -0.000438     -0.007122      0.003674
      9.35192    -18.61229    -14.05221        -0.009762     -0.000000     -0.001437
      9.35192    -12.88543     -4.13300         0.007494      0.022602     -0.015431
      9.35192    -21.47572     -9.09261        -0.000438      0.007122      0.003674
      9.35192    -24.33915    -14.05221         0.006822     -0.002886     -0.002941
      9.35192    -18.61229     -4.13300         0.002500     -0.000000     -0.001677
      9.35192    -10.02200     -9.09261         0.019212     -0.000000      0.007620
      9.35192    -12.88543    -14.05221         0.006822      0.002886     -0.002941
      9.35192     -7.15857     -4.13300         0.007494     -0.022602     -0.015431
     11.69112    -18.61229    -10.74581         0.008553     -0.000000      0.001754
     11.69112    -12.88543     -0.82660         0.009812      0.004436     -0.005350
     11.69112    -15.74886     -5.78621        -0.001309     -0.006732      0.000958
     11.69112     -7.15857    -10.74581        -0.001112     -0.003539      0.003514
     11.69112     -1.43171     -0.82660         0.004731     -0.000000      0.004065
     11.69112     -4.29514     -5.78621        -0.001309      0.006732      0.000958
     11.69112    -12.88543    -10.74581        -0.001112      0.003539      0.003514
     11.69112     -7.15857     -0.82660         0.009812     -0.004436     -0.005350
     11.69112    -10.02200     -5.78621        -0.073673     -0.000000     -0.001275
     13.99306    -21.47572    -12.39901        -0.002590     -0.005049      0.000304
     13.99306    -15.74886     -2.47980         0.001688      0.000256     -0.004168
     13.99306    -18.61229     -7.43941        -0.004702     -0.000000     -0.001701
     13.99306    -10.02200    -12.39901         0.014216     -0.000000     -0.000788
     13.99306     -4.29514     -2.47980         0.001688     -0.000256     -0.004168
     13.99306     -7.15857     -7.43941        -0.034527     -0.020750      0.023183
     13.99306    -15.74886    -12.39901        -0.002590      0.005049      0.000304
     13.99306    -10.02200     -2.47980        -0.003562     -0.000000      0.008281
     13.99306    -12.88543     -7.43941        -0.034527      0.020750      0.023183
     16.34180    -24.33915    -14.05221        -0.001614     -0.003826      0.002430
     16.34180    -18.61229     -4.13300        -0.004929     -0.000000     -0.005387
     16.34180    -21.47572     -9.09261         0.008991     -0.004913      0.004975
     16.34180    -12.88543    -14.05221        -0.001614      0.003826      0.002430
     16.34180     -7.15857     -4.13300         0.023180     -0.007693      0.001440
     16.34180    -10.02200     -9.09261        -0.002712     -0.000000      0.044720
     16.34180    -18.61229    -14.05221         0.006235     -0.000000     -0.008399
     16.34180    -12.88543     -4.13300         0.023180      0.007693      0.001440
     16.34180    -15.74886     -9.09261         0.008991      0.004913      0.004975
      2.36204     -8.59029     -6.61281        -0.035030     -0.004635      0.003785
      2.36204    -11.45372    -11.57241        -0.000535      0.000132     -0.001994
      2.36204     -5.72686     -1.65320        -0.002617      0.003674      0.004771
      2.36204    -14.31714     -6.61281         0.003369      0.007434      0.012092
      2.36204    -17.18057    -11.57241        -0.007686      0.006278      0.005482
      2.36204    -11.45372     -1.65320         0.007382     -0.006571      0.003943
      2.36204    -20.04400     -6.61281        -0.000328      0.007880      0.004040
      2.36204    -22.90743    -11.57241         0.004163      0.001490     -0.006003
      2.36204    -17.18057     -1.65320        -0.006032      0.002642      0.000468
      4.71078    -11.45372     -8.26601        -0.011719     -0.002690      0.007106
      4.71078    -14.31714    -13.22561        -0.006568     -0.003298     -0.004248
      4.71078     -8.59029     -3.30640        -0.003237     -0.007252     -0.011171
      4.71078    -17.18057     -8.26601         0.000298     -0.012661      0.000390
      4.71078    -20.04400    -13.22561        -0.010930     -0.003032      0.000931
      4.71078    -14.31714     -3.30640         0.002236     -0.003490      0.000048
      4.71078     -5.72686     -8.26601         0.008523     -0.013346      0.009303
      4.71078     -8.59029    -13.22561        -0.004113     -0.001452      0.001323
      4.71078     -2.86343     -3.30640        -0.009221      0.000759      0.004562
      7.01272    -14.31714     -9.91921         0.006213      0.002165      0.000635
      7.01272     -8.59029      0.00000         0.002554     -0.002356      0.001574
      7.01272    -11.45372     -4.95960         0.012357      0.005674     -0.004893
      7.01272    -20.04400     -9.91921        -0.001717     -0.003810     -0.009871
      7.01272    -14.31714      0.00000        -0.000790      0.002057      0.002024
      7.01272    -17.18057     -4.95960         0.003276     -0.005589     -0.004548
      7.01272     -8.59029     -9.91921         0.004054     -0.004985      0.017632
      7.01272     -2.86343      0.00000        -0.002570      0.001213     -0.011215
      7.01272     -5.72686     -4.95960         0.001190     -0.017075     -0.007997
      9.35192    -17.18057    -11.57241        -0.006015      0.005965     -0.001757
      9.35192    -11.45372     -1.65320        -0.006992     -0.001270     -0.003067
      9.35192    -14.31714     -6.61281         0.004874      0.021782     -0.003752
      9.35192    -22.90743    -11.57241         0.004275     -0.000742     -0.001610
      9.35192    -17.18057     -1.65320         0.000659      0.006044     -0.002020
      9.35192    -20.04400     -6.61281         0.008752      0.003269     -0.000236
      9.35192    -11.45372    -11.57241        -0.006954     -0.002607      0.006661
      9.35192     -5.72686     -1.65320         0.003658      0.002035      0.002181
      9.35192     -8.59029     -6.61281         0.021332      0.012498      0.002332
     11.69112    -20.04400    -13.22561         0.010326     -0.005540     -0.011859
     11.69112    -14.31714     -3.30640        -0.005152     -0.001736      0.000171
     11.69112    -17.18057     -8.26601         0.001479      0.011207      0.002269
     11.69112     -8.59029    -13.22561         0.003914      0.003464      0.010187
     11.69112     -2.86343     -3.30640         0.003183     -0.010940     -0.006886
     11.69112     -5.72686     -8.26601         0.000560     -0.007438      0.003273
     11.69112    -14.31714    -13.22561        -0.001362      0.007652      0.005644
     11.69112     -8.59029     -3.30640         0.007747     -0.006880     -0.026123
     11.69112    -11.45372     -8.26601        -0.026326      0.015133     -0.000440
     13.99306    -14.31714      0.00000         0.001529      0.002921     -0.005072
     13.99306    -17.18057     -4.95960        -0.002466      0.009806      0.002842
     13.99306    -20.04400     -9.91921        -0.006237     -0.010149      0.008111
     13.99306     -2.86343      0.00000         0.004037      0.000193      0.005440
     13.99306     -5.72686     -4.95960         0.005183      0.004372     -0.003158
     13.99306     -8.59029     -9.91921        -0.000343     -0.011228      0.027318
     13.99306     -8.59029      0.00000        -0.002046      0.002461      0.001931
     13.99306    -11.45372     -4.95960        -0.079344     -0.015972     -0.002574
     13.99306    -14.31714     -9.91921         0.005803     -0.007393     -0.001619
     16.34180    -17.18057     -1.65320        -0.009670      0.009163      0.004246
     16.34180    -20.04400     -6.61281         0.000171     -0.012953     -0.001771
     16.34180    -22.90743    -11.57241         0.006142     -0.004609      0.001451
     16.34180     -5.72686     -1.65320         0.004296     -0.003608     -0.002642
     16.34180     -8.59029     -6.61281        -0.409402      0.263112     -0.004967
     16.34180    -11.45372    -11.57241         0.022842     -0.000073      0.002296
     16.34180    -11.45372     -1.65320         0.016817     -0.003918     -0.006021
     16.34180    -14.31714     -6.61281         0.023005     -0.003176     -0.005368
     16.34180    -17.18057    -11.57241        -0.002680      0.008997     -0.005130
      2.36204    -10.02200     -4.13300        -0.016628     -0.000000     -0.020012
      2.36204    -12.88543     -9.09261         0.001268      0.022174      0.002548
      2.36204    -15.74886    -14.05221        -0.005212      0.003308      0.001543
      2.36204    -15.74886     -4.13300         0.002699     -0.005787      0.006546
      2.36204    -18.61229     -9.09261        -0.006511     -0.000000     -0.003879
      2.36204    -21.47572    -14.05221        -0.005212     -0.003308      0.001543
      2.36204     -4.29514     -4.13300         0.002699      0.005787      0.006546
      2.36204     -7.15857     -9.09261         0.001268     -0.022174      0.002548
      2.36204    -10.02200    -14.05221        -0.003935     -0.000000      0.000168
      4.71078    -12.88543     -5.78621        -0.006821      0.015745     -0.005398
      4.71078    -15.74886    -10.74581        -0.003547     -0.011600     -0.006430
      4.71078    -10.02200     -0.82660         0.010378     -0.000000     -0.000494
      4.71078    -18.61229     -5.78621        -0.002856     -0.000000     -0.004782
      4.71078    -21.47572    -10.74581        -0.003547      0.011600     -0.006430
      4.71078    -15.74886     -0.82660        -0.005339     -0.004342     -0.000966
      4.71078     -7.15857     -5.78621        -0.006821     -0.015745     -0.005398
      4.71078    -10.02200    -10.74581         0.002584     -0.000000      0.006953
      4.71078     -4.29514     -0.82660        -0.005339      0.004342     -0.000966
      7.01272    -15.74886     -7.43941        -0.001833      0.000533     -0.004177
      7.01272    -18.61229    -12.39901         0.012628     -0.000000     -0.001119
      7.01272    -12.88543     -2.47980         0.000962      0.004983     -0.007870
      7.01272    -21.47571     -7.43941        -0.001833     -0.000533     -0.004177
      7.01272    -24.33914    -12.39901        -0.000316      0.000069      0.003343
      7.01272    -18.61228     -2.47980         0.002084     -0.000000      0.001452
      7.01272    -10.02200     -7.43941         0.025509     -0.000000     -0.005068
      7.01272    -12.88543    -12.39901        -0.000316     -0.000069      0.003343
      7.01272     -7.15857     -2.47980         0.000962     -0.004983     -0.007870
      9.35192    -18.61229     -9.09261         0.004470     -0.000000      0.008562
      9.35192    -21.47572    -14.05221        -0.000898     -0.000116     -0.002493
      9.35192    -15.74886     -4.13300         0.000136     -0.009113      0.001841
      9.35192     -7.15857     -9.09261         0.000511     -0.015784      0.016463
      9.35192    -10.02200    -14.05221         0.003543     -0.000000     -0.002206
      9.35192     -4.29514     -4.13300         0.000136      0.009113      0.001841
      9.35192    -12.88543     -9.09261         0.000511      0.015784      0.016463
      9.35192    -15.74886    -14.05221        -0.000898      0.000116     -0.002493
      9.35192    -10.02200     -4.13300         0.021170     -0.000000     -0.011448
     11.69112    -21.47572    -10.74581         0.008504     -0.004425      0.006488
     11.69112    -15.74886     -0.82660         0.002781      0.001896     -0.002800
     11.69112    -18.61229     -5.78621        -0.004066     -0.000000      0.000880
     11.69112    -10.02200    -10.74581        -0.003583     -0.000000      0.013766
     11.69112     -4.29514     -0.82660         0.002781     -0.001896     -0.002800
     11.69112     -7.15857     -5.78621        -0.002558     -0.007961      0.003304
     11.69112    -15.74886    -10.74581         0.008504      0.004425      0.006488
     11.69112    -10.02200     -0.82660         0.007569     -0.000000     -0.002125
     11.69112    -12.88543     -5.78621        -0.002558      0.007961      0.003304
     13.99306    -24.33914    -12.39901         0.009586     -0.000366     -0.001687
     13.99306    -18.61228     -2.47980        -0.009478     -0.000000     -0.000819
     13.99306    -21.47571     -7.43941         0.010285      0.006868     -0.000808
     13.99306    -12.88543    -12.39901         0.009586      0.000366     -0.001687
     13.99306     -7.15857     -2.47980         0.005294      0.002658      0.008011
     13.99306    -10.02200     -7.43941        -0.068594     -0.000000      0.015908
     13.99306    -18.61229    -12.39901        -0.007452     -0.000000     -0.001399
     13.99306    -12.88543     -2.47980         0.005294     -0.002658      0.008011
     13.99306    -15.74886     -7.43941         0.010285     -0.006868     -0.000808
     16.34180    -10.02200    -14.05221         0.003529     -0.000000      0.004861
     16.34180     -4.29514     -4.13300         0.007724     -0.006004     -0.001564
     16.34180     -7.15857     -9.09261         0.003135     -0.002088      0.004574
     16.34180    -15.74886    -14.05221         0.001829     -0.003214     -0.000171
     16.34180    -10.02200     -4.13300        -0.030646      0.000000     -0.038955
     16.34180    -12.88543     -9.09261         0.003135      0.002088      0.004574
     16.34180    -21.47572    -14.05221         0.001829      0.003214     -0.000171
     16.34180    -15.74886     -4.13300         0.007724      0.006004     -0.001564
     16.34180    -18.61229     -9.09261        -0.001896     -0.000000      0.006760
     18.54000    -10.02200     -7.24000         0.541847     -0.000000      6.454631
     18.54000    -10.02200     -5.98600         0.402501      0.000000     -6.535720
 -----------------------------------------------------------------------------------
    total drift:                                0.037592      0.000201      0.000057


--------------------------------------------------------------------------------------------------------



  FREE ENERGIE OF THE ION-ELECTRON SYSTEM (eV)
  ---------------------------------------------------
  free  energy   TOTEN  =      -934.38062902 eV

  energy  without entropy=     -934.33127228  energy(sigma->0) =     -934.35595065
 


--------------------------------------------------------------------------------------------------------


    POTLOK:  cpu time    1.0131: real time    1.0262


--------------------------------------------------------------------------------------------------------


     LOOP+:  cpu time  714.3181: real time  806.7389
    4ORBIT:  cpu time    0.0000: real time    0.0000

 total amount of memory used by VASP MPI-rank0   652111. kBytes
=======================================================================

   base      :      30000. kBytes
   nonlr-proj:      89890. kBytes
   fftplans  :      40601. kBytes
   grid      :      95147. kBytes
   one-center:       3950. kBytes
   wavefun   :     392523. kBytes
 
  
  
 General timing and accounting informations for this job:
 ========================================================
  
                  Total CPU time used (sec):      731.932
                            User time (sec):      620.455
                          System time (sec):      111.477
                         Elapsed time (sec):      828.132
  
                   Maximum memory used (kb):     1003316.
                   Average memory used (kb):           0.
  
                          Minor page faults:     26424471
                          Major page faults:           34
                 Voluntary context switches:        18652
