 254 254   0   0
  0.2268316E+02  0.1514622E-08  0.1514622E-08  0.2900000E-08  0.5000000E-15
  1.000000000000000E-004
  CAR 
 NiAl                                    
      6.10285636    -25.43986368  301     -0.58282950      1.00000000
    -25.440  0.0000E+00  0.0000E+00
    -25.335  0.0000E+00  0.0000E+00
    -25.230  0.0000E+00  0.0000E+00
    -25.124  0.0000E+00  0.0000E+00
    -25.019  0.0000E+00  0.0000E+00
    -24.914  0.0000E+00  0.0000E+00
    -24.809  0.0000E+00  0.0000E+00
    -24.704  0.0000E+00  0.0000E+00
    -24.599  0.0000E+00  0.0000E+00
    -24.494  0.0000E+00  0.0000E+00
    -24.388  0.0000E+00  0.0000E+00
    -24.283  0.4065E-13  0.4274E-14
    -24.178  0.1050E-04  0.1104E-05
    -24.073  0.5484E+00  0.5766E-01
    -23.968  0.1579E+02  0.1718E+01
    -23.863  0.2683E+01  0.2000E+01
    -23.758  0.4884E-03  0.2000E+01
    -23.652  0.2062E-10  0.2000E+01
    -23.547  0.0000E+00  0.2000E+01
    -23.442  0.0000E+00  0.2000E+01
    -23.337  0.0000E+00  0.2000E+01
    -23.232  0.0000E+00  0.2000E+01
    -23.127  0.0000E+00  0.2000E+01
    -23.022  0.0000E+00  0.2000E+01
    -22.916  0.0000E+00  0.2000E+01
    -22.811  0.0000E+00  0.2000E+01
    -22.706  0.0000E+00  0.2000E+01
    -22.601  0.0000E+00  0.2000E+01
    -22.496  0.0000E+00  0.2000E+01
    -22.391  0.0000E+00  0.2000E+01
    -22.286  0.0000E+00  0.2000E+01
    -22.180  0.0000E+00  0.2000E+01
    -22.075  0.0000E+00  0.2000E+01
    -21.970  0.0000E+00  0.2000E+01
    -21.865  0.0000E+00  0.2000E+01
    -21.760  0.0000E+00  0.2000E+01
    -21.655  0.0000E+00  0.2000E+01
    -21.550  0.0000E+00  0.2000E+01
    -21.444  0.0000E+00  0.2000E+01
    -21.339  0.0000E+00  0.2000E+01
    -21.234  0.0000E+00  0.2000E+01
    -21.129  0.0000E+00  0.2000E+01
    -21.024  0.0000E+00  0.2000E+01
    -20.919  0.0000E+00  0.2000E+01
    -20.814  0.0000E+00  0.2000E+01
    -20.708  0.0000E+00  0.2000E+01
    -20.603  0.0000E+00  0.2000E+01
    -20.498  0.0000E+00  0.2000E+01
    -20.393  0.0000E+00  0.2000E+01
    -20.288  0.0000E+00  0.2000E+01
    -20.183  0.0000E+00  0.2000E+01
    -20.078  0.0000E+00  0.2000E+01
    -19.972  0.0000E+00  0.2000E+01
    -19.867  0.0000E+00  0.2000E+01
    -19.762  0.0000E+00  0.2000E+01
    -19.657  0.0000E+00  0.2000E+01
    -19.552  0.0000E+00  0.2000E+01
    -19.447  0.0000E+00  0.2000E+01
    -19.342  0.0000E+00  0.2000E+01
    -19.236  0.0000E+00  0.2000E+01
    -19.131  0.0000E+00  0.2000E+01
    -19.026  0.0000E+00  0.2000E+01
    -18.921  0.0000E+00  0.2000E+01
    -18.816  0.0000E+00  0.2000E+01
    -18.711  0.0000E+00  0.2000E+01
    -18.606  0.0000E+00  0.2000E+01
    -18.500  0.0000E+00  0.2000E+01
    -18.395  0.0000E+00  0.2000E+01
    -18.290  0.0000E+00  0.2000E+01
    -18.185  0.0000E+00  0.2000E+01
    -18.080  0.0000E+00  0.2000E+01
    -17.975  0.0000E+00  0.2000E+01
    -17.870  0.0000E+00  0.2000E+01
    -17.764  0.0000E+00  0.2000E+01
    -17.659  0.0000E+00  0.2000E+01
    -17.554  0.0000E+00  0.2000E+01
    -17.449  0.0000E+00  0.2000E+01
    -17.344  0.0000E+00  0.2000E+01
    -17.239  0.0000E+00  0.2000E+01
    -17.134  0.0000E+00  0.2000E+01
    -17.028  0.0000E+00  0.2000E+01
    -16.923  0.0000E+00  0.2000E+01
    -16.818  0.0000E+00  0.2000E+01
    -16.713  0.0000E+00  0.2000E+01
    -16.608  0.0000E+00  0.2000E+01
    -16.503  0.0000E+00  0.2000E+01
    -16.398  0.0000E+00  0.2000E+01
    -16.292  0.0000E+00  0.2000E+01
    -16.187  0.0000E+00  0.2000E+01
    -16.082  0.0000E+00  0.2000E+01
    -15.977  0.0000E+00  0.2000E+01
    -15.872  0.0000E+00  0.2000E+01
    -15.767  0.0000E+00  0.2000E+01
    -15.662  0.0000E+00  0.2000E+01
    -15.556  0.0000E+00  0.2000E+01
    -15.451  0.0000E+00  0.2000E+01
    -15.346  0.0000E+00  0.2000E+01
    -15.241  0.0000E+00  0.2000E+01
    -15.136  0.0000E+00  0.2000E+01
    -15.031  0.0000E+00  0.2000E+01
    -14.926  0.0000E+00  0.2000E+01
    -14.820  0.0000E+00  0.2000E+01
    -14.715  0.0000E+00  0.2000E+01
    -14.610  0.0000E+00  0.2000E+01
    -14.505  0.0000E+00  0.2000E+01
    -14.400  0.0000E+00  0.2000E+01
    -14.295  0.0000E+00  0.2000E+01
    -14.190  0.0000E+00  0.2000E+01
    -14.084  0.0000E+00  0.2000E+01
    -13.979  0.0000E+00  0.2000E+01
    -13.874  0.0000E+00  0.2000E+01
    -13.769  0.0000E+00  0.2000E+01
    -13.664  0.0000E+00  0.2000E+01
    -13.559  0.0000E+00  0.2000E+01
    -13.454  0.0000E+00  0.2000E+01
    -13.348  0.0000E+00  0.2000E+01
    -13.243  0.0000E+00  0.2000E+01
    -13.138  0.0000E+00  0.2000E+01
    -13.033  0.0000E+00  0.2000E+01
    -12.928  0.0000E+00  0.2000E+01
    -12.823  0.0000E+00  0.2000E+01
    -12.718  0.0000E+00  0.2000E+01
    -12.612  0.0000E+00  0.2000E+01
    -12.507  0.0000E+00  0.2000E+01
    -12.402  0.0000E+00  0.2000E+01
    -12.297  0.0000E+00  0.2000E+01
    -12.192  0.0000E+00  0.2000E+01
    -12.087  0.0000E+00  0.2000E+01
    -11.982  0.0000E+00  0.2000E+01
    -11.876  0.0000E+00  0.2000E+01
    -11.771  0.0000E+00  0.2000E+01
    -11.666  0.0000E+00  0.2000E+01
    -11.561  0.0000E+00  0.2000E+01
    -11.456  0.0000E+00  0.2000E+01
    -11.351  0.0000E+00  0.2000E+01
    -11.246  0.0000E+00  0.2000E+01
    -11.140  0.0000E+00  0.2000E+01
    -11.035  0.0000E+00  0.2000E+01
    -10.930  0.0000E+00  0.2000E+01
    -10.825  0.0000E+00  0.2000E+01
    -10.720  0.0000E+00  0.2000E+01
    -10.615  0.0000E+00  0.2000E+01
    -10.510  0.0000E+00  0.2000E+01
    -10.405  0.0000E+00  0.2000E+01
    -10.299  0.0000E+00  0.2000E+01
    -10.194  0.0000E+00  0.2000E+01
    -10.089  0.0000E+00  0.2000E+01
     -9.984  0.0000E+00  0.2000E+01
     -9.879  0.0000E+00  0.2000E+01
     -9.774  0.0000E+00  0.2000E+01
     -9.669  0.0000E+00  0.2000E+01
     -9.563  0.0000E+00  0.2000E+01
     -9.458  0.0000E+00  0.2000E+01
     -9.353  0.2112E-14  0.2000E+01
     -9.248  0.9843E-06  0.2000E+01
     -9.143  0.9854E-01  0.2010E+01
     -9.038  0.1128E+02  0.3196E+01
     -8.933  0.1244E+02  0.4504E+01
     -8.827  0.1737E+02  0.6330E+01
     -8.722  0.1111E+02  0.7498E+01
     -8.617  0.8255E-01  0.7507E+01
     -8.512  0.3651E+01  0.7891E+01
     -8.407  0.8373E+01  0.8771E+01
     -8.302  0.3864E+02  0.1283E+02
     -8.197  0.1579E+02  0.1449E+02
     -8.091  0.2318E+02  0.1693E+02
     -7.986  0.6617E+00  0.1700E+02
     -7.881  0.1086E+02  0.1814E+02
     -7.776  0.1774E+02  0.2001E+02
     -7.671  0.1385E+02  0.2146E+02
     -7.566  0.2503E+02  0.2410E+02
     -7.461  0.7225E+02  0.3169E+02
     -7.355  0.7666E+01  0.3250E+02
     -7.250  0.4558E-02  0.3250E+02
     -7.145  0.1094E+02  0.3365E+02
     -7.040  0.1037E+03  0.4455E+02
     -6.935  0.3846E+02  0.4859E+02
     -6.830  0.2415E+02  0.5113E+02
     -6.725  0.5341E+01  0.5169E+02
     -6.619  0.2828E+02  0.5467E+02
     -6.514  0.2624E+02  0.5743E+02
     -6.409  0.3929E+02  0.6156E+02
     -6.304  0.7461E+02  0.6940E+02
     -6.199  0.3423E+02  0.7300E+02
     -6.094  0.3039E+02  0.7620E+02
     -5.989  0.5171E+02  0.8163E+02
     -5.883  0.1016E+03  0.9232E+02
     -5.778  0.1598E+02  0.9400E+02
     -5.673  0.2743E+01  0.9429E+02
     -5.568  0.2564E+02  0.9698E+02
     -5.463  0.6814E+02  0.1041E+03
     -5.358  0.1519E+03  0.1201E+03
     -5.253  0.5468E+02  0.1259E+03
     -5.147  0.7147E+02  0.1334E+03
     -5.042  0.1162E+03  0.1456E+03
     -4.937  0.1013E+03  0.1563E+03
     -4.832  0.4041E+02  0.1605E+03
     -4.727  0.2078E+03  0.1823E+03
     -4.622  0.1963E+03  0.2030E+03
     -4.517  0.2269E+03  0.2269E+03
     -4.411  0.2320E+03  0.2512E+03
     -4.306  0.3195E+03  0.2848E+03
     -4.201  0.2310E+03  0.3091E+03
     -4.096  0.2571E+03  0.3362E+03
     -3.991  0.3732E+03  0.3754E+03
     -3.886  0.4838E+03  0.4263E+03
     -3.781  0.4799E+03  0.4767E+03
     -3.675  0.4713E+03  0.5263E+03
     -3.570  0.4551E+03  0.5741E+03
     -3.465  0.3774E+03  0.6138E+03
     -3.360  0.3587E+03  0.6515E+03
     -3.255  0.3707E+03  0.6905E+03
     -3.150  0.5511E+03  0.7484E+03
     -3.045  0.4161E+03  0.7922E+03
     -2.939  0.4370E+03  0.8381E+03
     -2.834  0.6021E+03  0.9014E+03
     -2.729  0.4769E+03  0.9516E+03
     -2.624  0.5520E+03  0.1010E+04
     -2.519  0.6243E+03  0.1075E+04
     -2.414  0.7057E+03  0.1149E+04
     -2.309  0.8229E+03  0.1236E+04
     -2.203  0.9193E+03  0.1333E+04
     -2.098  0.8008E+03  0.1417E+04
     -1.993  0.9007E+03  0.1512E+04
     -1.888  0.6386E+03  0.1579E+04
     -1.783  0.5907E+03  0.1641E+04
     -1.678  0.5656E+03  0.1700E+04
     -1.573  0.5389E+03  0.1757E+04
     -1.467  0.6795E+03  0.1828E+04
     -1.362  0.8068E+03  0.1913E+04
     -1.257  0.5371E+03  0.1970E+04
     -1.152  0.6013E+03  0.2033E+04
     -1.047  0.7650E+03  0.2113E+04
     -0.942  0.8832E+03  0.2206E+04
     -0.837  0.6400E+03  0.2274E+04
     -0.731  0.7793E+03  0.2355E+04
     -0.626  0.1143E+04  0.2476E+04
     -0.521  0.1041E+04  0.2585E+04
     -0.416  0.5349E+03  0.2641E+04
     -0.311  0.2256E+03  0.2665E+04
     -0.206  0.1157E+03  0.2677E+04
     -0.101  0.1575E+03  0.2694E+04
      0.005  0.1647E+03  0.2711E+04
      0.110  0.4793E+02  0.2716E+04
      0.215  0.6409E+02  0.2723E+04
      0.320  0.1830E+02  0.2725E+04
      0.425  0.1099E+03  0.2736E+04
      0.530  0.8481E+02  0.2745E+04
      0.635  0.1082E+03  0.2757E+04
      0.741  0.6419E+02  0.2763E+04
      0.846  0.9938E+02  0.2774E+04
      0.951  0.1346E+03  0.2788E+04
      1.056  0.9482E+02  0.2798E+04
      1.161  0.2045E+02  0.2800E+04
      1.266  0.5531E+02  0.2806E+04
      1.371  0.1218E+03  0.2819E+04
      1.477  0.2962E+02  0.2822E+04
      1.582  0.6890E+02  0.2829E+04
      1.687  0.1007E+03  0.2840E+04
      1.792  0.8762E+02  0.2849E+04
      1.897  0.7682E+02  0.2857E+04
      2.002  0.1014E+03  0.2868E+04
      2.107  0.3131E+02  0.2871E+04
      2.213  0.9678E+02  0.2881E+04
      2.318  0.1025E+03  0.2892E+04
      2.423  0.8817E+02  0.2901E+04
      2.528  0.2099E+02  0.2903E+04
      2.633  0.9219E+02  0.2913E+04
      2.738  0.4111E+02  0.2917E+04
      2.843  0.1304E+02  0.2919E+04
      2.949  0.6567E+02  0.2926E+04
      3.054  0.1565E+03  0.2942E+04
      3.159  0.1867E+03  0.2962E+04
      3.264  0.4009E+02  0.2966E+04
      3.369  0.2390E+02  0.2968E+04
      3.474  0.7075E+02  0.2976E+04
      3.579  0.7195E+02  0.2983E+04
      3.685  0.3059E+02  0.2987E+04
      3.790  0.8010E+02  0.2995E+04
      3.895  0.1013E+02  0.2996E+04
      4.000  0.2631E+02  0.2999E+04
      4.105  0.1800E+02  0.3001E+04
      4.210  0.8941E+02  0.3010E+04
      4.315  0.2287E+02  0.3013E+04
      4.421  0.8205E+02  0.3021E+04
      4.526  0.8140E+02  0.3030E+04
      4.631  0.3152E+02  0.3033E+04
      4.736  0.2701E+02  0.3036E+04
      4.841  0.3243E+00  0.3036E+04
      4.946  0.5444E-05  0.3036E+04
      5.051  0.2112E-13  0.3036E+04
      5.157  0.0000E+00  0.3036E+04
      5.262  0.0000E+00  0.3036E+04
      5.367  0.0000E+00  0.3036E+04
      5.472  0.0000E+00  0.3036E+04
      5.577  0.0000E+00  0.3036E+04
      5.682  0.0000E+00  0.3036E+04
      5.787  0.0000E+00  0.3036E+04
      5.893  0.0000E+00  0.3036E+04
      5.998  0.0000E+00  0.3036E+04
      6.103  0.0000E+00  0.3036E+04
