  254  254    1    1
  0.2268316E+02  0.1514622E-08  0.1514622E-08  0.2900000E-08  0.5000000E-15
  1.000000000000000E-004
  CAR 
 NiAl                                    
   2530      4   1518
 
  0.0000000E+00  0.0000000E+00  0.0000000E+00  0.2500000E+00
    1      -24.005755   1.000000
    2       -9.068917   1.000000
    3       -9.028186   1.000000
    4       -8.539331   1.000000
    5       -8.162320   1.000000
    6       -8.162212   1.000000
    7       -8.162149   1.000000
    8       -8.162103   1.000000
    9       -8.162054   1.000000
   10       -8.161970   1.000000
   11       -7.712982   1.000000
   12       -7.656525   1.000000
   13       -7.656400   1.000000
   14       -7.656349   1.000000
   15       -7.656264   1.000000
   16       -7.656192   1.000000
   17       -7.656147   1.000000
   18       -7.101698   1.000000
   19       -7.096098   1.000000
   20       -6.871094   1.000000
   21       -6.871060   1.000000
   22       -6.870990   1.000000
   23       -6.870893   1.000000
   24       -6.870847   1.000000
   25       -6.869952   1.000000
   26       -6.687866   1.000000
   27       -6.526617   1.000000
   28       -6.526610   1.000000
   29       -6.526531   1.000000
   30       -6.526526   1.000000
   31       -6.526454   1.000000
   32       -6.526433   1.000000
   33       -6.106256   1.000000
   34       -6.106246   1.000000
   35       -6.106187   1.000000
   36       -6.106161   1.000000
   37       -6.106085   1.000000
   38       -6.106065   1.000000
   39       -5.905582   1.000000
   40       -5.905405   1.000000
   41       -5.905392   1.000000
   42       -5.905375   1.000000
   43       -5.905357   1.000000
   44       -5.905334   1.000000
   45       -5.905325   1.000000
   46       -5.905197   1.000000
   47       -5.905129   1.000000
   48       -5.905078   1.000000
   49       -5.904999   1.000000
   50       -5.904960   1.000000
   51       -5.678466   1.000000
   52       -5.573929   1.000000
   53       -5.573734   1.000000
   54       -5.573706   1.000000
   55       -5.573704   1.000000
   56       -5.573680   1.000000
   57       -5.573654   1.000000
   58       -5.552216   1.000000
   59       -5.479286   1.000000
   60       -5.479269   1.000000
   61       -5.479196   1.000000
   62       -5.479170   1.000000
   63       -5.479136   1.000000
   64       -5.478589   1.000000
   65       -5.126148   1.000000
   66       -5.126136   1.000000
   67       -5.126113   1.000000
   68       -5.126102   1.000000
   69       -5.126086   1.000000
   70       -5.126043   1.000000
   71       -5.042765   1.000000
   72       -4.969165   1.000000
   73       -4.969057   1.000000
   74       -4.969041   1.000000
   75       -4.968947   1.000000
   76       -4.968887   1.000000
   77       -4.968190   1.000000
   78       -4.870747   1.000000
   79       -4.796066   1.000000
   80       -4.796060   1.000000
   81       -4.795997   1.000000
   82       -4.756981   1.000000
   83       -4.756966   1.000000
   84       -4.756900   1.000000
   85       -4.756878   1.000000
   86       -4.756840   1.000000
   87       -4.756749   1.000000
   88       -4.673175   1.000000
   89       -4.673147   1.000000
   90       -4.673127   1.000000
   91       -4.673126   1.000000
   92       -4.673069   1.000000
   93       -4.673055   1.000000
   94       -4.655004   1.000000
   95       -4.654999   1.000000
   96       -4.654914   1.000000
   97       -4.562392   1.000000
   98       -4.562342   1.000000
   99       -4.562333   1.000000
  100       -4.562282   1.000000
  101       -4.562256   1.000000
  102       -4.562247   1.000000
  103       -4.562218   1.000000
  104       -4.562184   1.000000
  105       -4.562130   1.000000
  106       -4.562094   1.000000
  107       -4.562086   1.000000
  108       -4.562000   1.000000
  109       -4.519838   1.000000
  110       -4.519835   1.000000
  111       -4.519757   1.000000
  112       -4.449304   1.000000
  113       -4.449300   1.000000
  114       -4.449211   1.000000
  115       -4.414921   1.000000
  116       -4.414900   1.000000
  117       -4.414723   1.000000
  118       -4.414611   1.000000
  119       -4.414539   1.000000
  120       -4.414276   1.000000
  121       -4.358671   1.000000
  122       -4.358635   1.000000
  123       -4.358597   1.000000
  124       -4.358564   1.000000
  125       -4.358540   1.000000
  126       -4.358517   1.000000
  127       -4.358501   1.000000
  128       -4.358486   1.000000
  129       -4.358446   1.000000
  130       -4.358417   1.000000
  131       -4.358404   1.000000
  132       -4.358373   1.000000
  133       -4.347889   1.000000
  134       -4.347866   1.000000
  135       -4.347753   1.000000
  136       -4.347702   1.000000
  137       -4.347669   1.000000
  138       -4.347666   1.000000
  139       -4.347658   1.000000
  140       -4.347638   1.000000
  141       -4.347600   1.000000
  142       -4.347538   1.000000
  143       -4.347516   1.000000
  144       -4.347436   1.000000
  145       -4.301542   1.000000
  146       -4.301459   1.000000
  147       -4.301437   1.000000
  148       -4.301273   1.000000
  149       -4.301172   1.000000
  150       -4.301146   1.000000
  151       -4.265353   1.000000
  152       -4.265317   1.000000
  153       -4.265302   1.000000
  154       -4.265273   1.000000
  155       -4.265210   1.000000
  156       -4.265185   1.000000
  157       -4.244632   1.000000
  158       -4.244622   1.000000
  159       -4.244505   1.000000
  160       -4.206587   1.000000
  161       -4.206526   1.000000
  162       -4.206465   1.000000
  163       -4.206433   1.000000
  164       -4.206418   1.000000
  165       -4.206380   1.000000
  166       -4.206330   1.000000
  167       -4.206312   1.000000
  168       -4.206299   1.000000
  169       -4.206270   1.000000
  170       -4.206259   1.000000
  171       -4.206237   1.000000
  172       -4.143819   1.000000
  173       -4.143810   1.000000
  174       -4.143634   1.000000
  175       -4.115236   1.000000
  176       -4.115231   1.000000
  177       -4.115144   1.000000
  178       -4.115131   1.000000
  179       -4.115085   1.000000
  180       -4.115048   1.000000
  181       -4.036454   1.000000
  182       -4.036448   1.000000
  183       -4.036347   1.000000
  184       -4.008781   1.000000
  185       -4.008750   1.000000
  186       -4.008629   1.000000
  187       -4.008611   1.000000
  188       -4.008598   1.000000
  189       -4.008570   1.000000
  190       -4.008542   1.000000
  191       -4.008504   1.000000
  192       -4.008472   1.000000
  193       -4.008444   1.000000
  194       -4.008411   1.000000
  195       -4.008386   1.000000
  196       -3.974447   1.000000
  197       -3.974446   1.000000
  198       -3.974299   1.000000
  199       -3.911037   1.000000
  200       -3.911017   1.000000
  201       -3.910876   1.000000
  202       -3.909427   1.000000
  203       -3.909392   1.000000
  204       -3.909367   1.000000
  205       -3.909345   1.000000
  206       -3.909242   1.000000
  207       -3.909203   1.000000
  208       -3.864118   1.000000
  209       -3.864079   1.000000
  210       -3.863958   1.000000
  211       -3.863935   1.000000
  212       -3.863900   1.000000
  213       -3.863839   1.000000
  214       -3.863830   1.000000
  215       -3.863749   1.000000
  216       -3.863725   1.000000
  217       -3.863641   1.000000
  218       -3.863603   1.000000
  219       -3.863553   1.000000
  220       -3.852422   1.000000
  221       -3.852402   1.000000
  222       -3.852343   1.000000
  223       -3.852326   1.000000
  224       -3.852249   1.000000
  225       -3.852170   1.000000
  226       -3.769383   1.000000
  227       -3.769316   1.000000
  228       -3.769271   1.000000
  229       -3.769253   1.000000
  230       -3.769220   1.000000
  231       -3.769171   1.000000
  232       -3.769142   1.000000
  233       -3.769112   1.000000
  234       -3.769070   1.000000
  235       -3.769060   1.000000
  236       -3.769025   1.000000
  237       -3.769000   1.000000
  238       -3.737873   1.000000
  239       -3.737851   1.000000
  240       -3.737766   1.000000
  241       -3.737736   1.000000
  242       -3.737685   1.000000
  243       -3.737651   1.000000
  244       -3.721936   1.000000
  245       -3.721926   1.000000
  246       -3.721736   1.000000
  247       -3.721706   1.000000
  248       -3.717869   1.000000
  249       -3.717857   1.000000
  250       -3.717801   1.000000
  251       -3.717792   1.000000
  252       -3.717740   1.000000
  253       -3.717715   1.000000
  254       -3.712288   1.000000
  255       -3.712214   1.000000
  256       -3.671675   1.000000
  257       -3.671662   1.000000
  258       -3.671629   1.000000
  259       -3.671587   1.000000
  260       -3.671445   1.000000
  261       -3.671410   1.000000
  262       -3.671399   1.000000
  263       -3.671372   1.000000
  264       -3.671351   1.000000
  265       -3.671333   1.000000
  266       -3.671308   1.000000
  267       -3.671265   1.000000
  268       -3.661549   1.000000
  269       -3.661539   1.000000
  270       -3.661446   1.000000
  271       -3.612716   1.000000
  272       -3.612673   1.000000
  273       -3.612614   1.000000
  274       -3.612572   1.000000
  275       -3.612460   1.000000
  276       -3.612408   1.000000
  277       -3.605667   1.000000
  278       -3.605654   1.000000
  279       -3.605384   1.000000
  280       -3.605369   1.000000
  281       -3.585536   1.000000
  282       -3.585524   1.000000
  283       -3.569921   1.000000
  284       -3.569894   1.000000
  285       -3.569734   1.000000
  286       -3.569712   1.000000
  287       -3.569661   1.000000
  288       -3.569612   1.000000
  289       -3.559146   1.000000
  290       -3.559140   1.000000
  291       -3.558683   1.000000
  292       -3.558664   1.000000
  293       -3.553725   1.000000
  294       -3.553698   1.000000
  295       -3.488141   1.000000
  296       -3.488136   1.000000
  297       -3.487842   1.000000
  298       -3.487827   1.000000
  299       -3.482539   1.000000
  300       -3.482533   1.000000
  301       -3.482487   1.000000
  302       -3.482448   1.000000
  303       -3.482384   1.000000
  304       -3.482350   1.000000
  305       -3.482327   1.000000
  306       -3.482293   1.000000
  307       -3.482258   1.000000
  308       -3.482244   1.000000
  309       -3.482186   1.000000
  310       -3.482139   1.000000
  311       -3.435666   1.000000
  312       -3.435620   1.000000
  313       -3.435499   1.000000
  314       -3.435440   1.000000
  315       -3.435431   1.000000
  316       -3.435375   1.000000
  317       -3.400066   1.000000
  318       -3.400001   1.000000
  319       -3.399895   1.000000
  320       -3.399843   1.000000
  321       -3.399808   1.000000
  322       -3.399737   1.000000
  323       -3.396659   1.000000
  324       -3.396634   1.000000
  325       -3.396560   1.000000
  326       -3.396525   1.000000
  327       -3.396455   1.000000
  328       -3.396443   1.000000
  329       -3.396387   1.000000
  330       -3.396376   1.000000
  331       -3.396342   1.000000
  332       -3.396317   1.000000
  333       -3.396302   1.000000
  334       -3.396216   1.000000
  335       -3.380215   1.000000
  336       -3.380162   1.000000
  337       -3.380126   1.000000
  338       -3.380111   1.000000
  339       -3.380051   1.000000
  340       -3.379994   1.000000
  341       -3.285867   1.000000
  342       -3.285841   1.000000
  343       -3.285833   1.000000
  344       -3.260066   1.000000
  345       -3.260050   1.000000
  346       -3.259908   1.000000
  347       -3.259881   1.000000
  348       -3.259797   1.000000
  349       -3.259771   1.000000
  350       -3.220273   1.000000
  351       -3.220230   1.000000
  352       -3.206807   1.000000
  353       -3.206772   1.000000
  354       -3.206712   1.000000
  355       -3.206683   1.000000
  356       -3.206676   1.000000
  357       -3.206625   1.000000
  358       -3.206594   1.000000
  359       -3.206560   1.000000
  360       -3.206548   1.000000
  361       -3.206511   1.000000
  362       -3.206490   1.000000
  363       -3.206463   1.000000
  364       -3.179756   1.000000
  365       -3.179708   1.000000
  366       -3.142340   1.000000
  367       -3.142334   1.000000
  368       -3.142292   1.000000
  369       -3.142269   1.000000
  370       -3.142235   1.000000
  371       -3.142222   1.000000
  372       -3.136458   1.000000
  373       -3.136428   1.000000
  374       -3.136418   1.000000
  375       -3.136385   1.000000
  376       -3.136318   1.000000
  377       -3.136240   1.000000
  378       -3.132458   1.000000
  379       -3.132411   1.000000
  380       -3.132281   1.000000
  381       -3.132244   1.000000
  382       -3.132185   1.000000
  383       -3.132145   1.000000
  384       -3.066265   1.000000
  385       -3.066238   1.000000
  386       -3.066214   1.000000
  387       -3.066200   1.000000
  388       -3.066179   1.000000
  389       -3.066149   1.000000
  390       -3.066107   1.000000
  391       -3.066093   1.000000
  392       -3.066069   1.000000
  393       -3.066022   1.000000
  394       -3.066011   1.000000
  395       -3.065972   1.000000
  396       -3.028944   1.000000
  397       -3.028907   1.000000
  398       -3.028814   1.000000
  399       -3.028757   1.000000
  400       -3.028715   1.000000
  401       -3.028678   1.000000
  402       -2.957165   1.000000
  403       -2.957061   1.000000
  404       -2.957038   1.000000
  405       -2.956993   1.000000
  406       -2.956951   1.000000
  407       -2.956854   1.000000
  408       -2.945530   1.000000
  409       -2.945471   1.000000
  410       -2.945385   1.000000
  411       -2.945362   1.000000
  412       -2.945351   1.000000
  413       -2.945293   1.000000
  414       -2.929201   1.000000
  415       -2.929182   1.000000
  416       -2.929163   1.000000
  417       -2.929119   1.000000
  418       -2.929095   1.000000
  419       -2.929087   1.000000
  420       -2.906648   1.000000
  421       -2.906573   1.000000
  422       -2.906476   1.000000
  423       -2.906457   1.000000
  424       -2.906439   1.000000
  425       -2.906386   1.000000
  426       -2.885039   1.000000
  427       -2.885032   1.000000
  428       -2.885012   1.000000
  429       -2.884974   1.000000
  430       -2.884926   1.000000
  431       -2.884921   1.000000
  432       -2.884887   1.000000
  433       -2.884861   1.000000
  434       -2.884825   1.000000
  435       -2.884790   1.000000
  436       -2.884748   1.000000
  437       -2.884709   1.000000
  438       -2.882363   1.000000
  439       -2.882358   1.000000
  440       -2.882339   1.000000
  441       -2.882317   1.000000
  442       -2.882307   1.000000
  443       -2.882284   1.000000
  444       -2.821935   1.000000
  445       -2.821917   1.000000
  446       -2.821895   1.000000
  447       -2.818228   1.000000
  448       -2.818200   1.000000
  449       -2.818140   1.000000
  450       -2.818130   1.000000
  451       -2.818069   1.000000
  452       -2.818030   1.000000
  453       -2.812000   1.000000
  454       -2.811952   1.000000
  455       -2.811944   1.000000
  456       -2.811934   1.000000
  457       -2.811874   1.000000
  458       -2.811864   1.000000
  459       -2.811837   1.000000
  460       -2.811794   1.000000
  461       -2.811783   1.000000
  462       -2.811722   1.000000
  463       -2.811714   1.000000
  464       -2.811670   1.000000
  465       -2.760480   1.000000
  466       -2.760474   1.000000
  467       -2.760018   1.000000
  468       -2.760002   1.000000
  469       -2.727431   1.000000
  470       -2.727399   1.000000
  471       -2.727340   1.000000
  472       -2.727291   1.000000
  473       -2.727256   1.000000
  474       -2.727204   1.000000
  475       -2.724491   1.000000
  476       -2.724473   1.000000
  477       -2.724435   1.000000
  478       -2.724406   1.000000
  479       -2.724369   1.000000
  480       -2.724352   1.000000
  481       -2.719520   1.000000
  482       -2.719390   1.000000
  483       -2.719354   1.000000
  484       -2.719346   1.000000
  485       -2.719229   1.000000
  486       -2.719210   1.000000
  487       -2.704312   1.000000
  488       -2.704306   1.000000
  489       -2.704254   1.000000
  490       -2.704241   1.000000
  491       -2.704230   1.000000
  492       -2.704202   1.000000
  493       -2.704199   1.000000
  494       -2.704163   1.000000
  495       -2.704138   1.000000
  496       -2.704118   1.000000
  497       -2.704100   1.000000
  498       -2.704073   1.000000
  499       -2.697532   1.000000
  500       -2.697529   1.000000
  501       -2.667744   1.000000
  502       -2.667669   1.000000
  503       -2.667656   1.000000
  504       -2.667588   1.000000
  505       -2.667489   1.000000
  506       -2.667467   1.000000
  507       -2.634285   1.000000
  508       -2.634257   1.000000
  509       -2.634230   1.000000
  510       -2.634228   1.000000
  511       -2.634197   1.000000
  512       -2.634186   1.000000
  513       -2.630144   1.000000
  514       -2.600261   1.000000
  515       -2.600247   1.000000
  516       -2.600096   1.000000
  517       -2.600095   1.000000
  518       -2.594702   1.000000
  519       -2.594585   1.000000
  520       -2.594539   1.000000
  521       -2.594507   1.000000
  522       -2.594440   1.000000
  523       -2.594416   1.000000
  524       -2.588770   1.000000
  525       -2.542336   1.000000
  526       -2.542297   1.000000
  527       -2.542271   1.000000
  528       -2.542263   1.000000
  529       -2.542229   1.000000
  530       -2.542218   1.000000
  531       -2.542197   1.000000
  532       -2.542158   1.000000
  533       -2.542145   1.000000
  534       -2.542102   1.000000
  535       -2.542041   1.000000
  536       -2.542017   1.000000
  537       -2.531640   1.000000
  538       -2.531511   1.000000
  539       -2.531487   1.000000
  540       -2.531457   1.000000
  541       -2.531410   1.000000
  542       -2.531346   1.000000
  543       -2.529239   1.000000
  544       -2.529223   1.000000
  545       -2.529095   1.000000
  546       -2.504564   1.000000
  547       -2.504501   1.000000
  548       -2.504451   1.000000
  549       -2.493941   1.000000
  550       -2.493897   1.000000
  551       -2.493831   1.000000
  552       -2.493806   1.000000
  553       -2.493756   1.000000
  554       -2.493684   1.000000
  555       -2.476177   1.000000
  556       -2.476115   1.000000
  557       -2.476075   1.000000
  558       -2.476050   1.000000
  559       -2.476036   1.000000
  560       -2.476024   1.000000
  561       -2.464927   1.000000
  562       -2.464910   1.000000
  563       -2.464871   1.000000
  564       -2.464857   1.000000
  565       -2.464827   1.000000
  566       -2.464820   1.000000
  567       -2.464793   1.000000
  568       -2.464762   1.000000
  569       -2.464748   1.000000
  570       -2.464724   1.000000
  571       -2.464715   1.000000
  572       -2.464698   1.000000
  573       -2.460862   1.000000
  574       -2.460643   1.000000
  575       -2.440213   1.000000
  576       -2.440058   1.000000
  577       -2.419060   1.000000
  578       -2.419052   1.000000
  579       -2.419003   1.000000
  580       -2.418969   1.000000
  581       -2.418950   1.000000
  582       -2.418894   1.000000
  583       -2.418700   1.000000
  584       -2.418596   1.000000
  585       -2.418547   1.000000
  586       -2.418495   1.000000
  587       -2.418428   1.000000
  588       -2.418361   1.000000
  589       -2.393671   1.000000
  590       -2.393655   1.000000
  591       -2.393624   1.000000
  592       -2.393600   1.000000
  593       -2.393576   1.000000
  594       -2.393545   1.000000
  595       -2.388966   1.000000
  596       -2.375885   1.000000
  597       -2.375875   1.000000
  598       -2.375706   1.000000
  599       -2.374336   1.000000
  600       -2.374309   1.000000
  601       -2.374289   1.000000
  602       -2.374249   1.000000
  603       -2.374206   1.000000
  604       -2.374142   1.000000
  605       -2.369797   1.000000
  606       -2.369749   1.000000
  607       -2.369684   1.000000
  608       -2.369662   1.000000
  609       -2.369612   1.000000
  610       -2.369565   1.000000
  611       -2.363452   1.000000
  612       -2.363231   1.000000
  613       -2.305982   1.000000
  614       -2.305924   1.000000
  615       -2.305729   1.000000
  616       -2.305622   1.000000
  617       -2.305557   1.000000
  618       -2.305460   1.000000
  619       -2.304845   1.000000
  620       -2.297720   1.000000
  621       -2.297549   1.000000
  622       -2.297433   1.000000
  623       -2.297403   1.000000
  624       -2.297328   1.000000
  625       -2.272243   1.000000
  626       -2.272228   1.000000
  627       -2.272203   1.000000
  628       -2.272176   1.000000
  629       -2.272081   1.000000
  630       -2.272042   1.000000
  631       -2.270609   1.000000
  632       -2.270521   1.000000
  633       -2.270487   1.000000
  634       -2.270366   1.000000
  635       -2.270306   1.000000
  636       -2.270171   1.000000
  637       -2.250150   1.000000
  638       -2.250109   1.000000
  639       -2.250077   1.000000
  640       -2.246905   1.000000
  641       -2.246846   1.000000
  642       -2.246807   1.000000
  643       -2.237331   1.000000
  644       -2.237115   1.000000
  645       -2.216304   1.000000
  646       -2.216279   1.000000
  647       -2.216260   1.000000
  648       -2.216219   1.000000
  649       -2.216192   1.000000
  650       -2.216128   1.000000
  651       -2.216126   1.000000
  652       -2.216098   1.000000
  653       -2.216064   1.000000
  654       -2.216048   1.000000
  655       -2.215992   1.000000
  656       -2.215969   1.000000
  657       -2.205123   1.000000
  658       -2.205095   1.000000
  659       -2.205029   1.000000
  660       -2.204991   1.000000
  661       -2.204941   1.000000
  662       -2.204902   1.000000
  663       -2.203247   1.000000
  664       -2.203198   1.000000
  665       -2.203024   1.000000
  666       -2.202981   1.000000
  667       -2.202955   1.000000
  668       -2.202855   1.000000
  669       -2.198856   1.000000
  670       -2.198796   1.000000
  671       -2.197448   1.000000
  672       -2.197441   1.000000
  673       -2.162651   1.000000
  674       -2.162624   1.000000
  675       -2.162516   1.000000
  676       -2.162464   1.000000
  677       -2.162426   1.000000
  678       -2.162378   1.000000
  679       -2.151909   1.000000
  680       -2.151881   1.000000
  681       -2.151868   1.000000
  682       -2.151838   1.000000
  683       -2.151764   1.000000
  684       -2.151720   1.000000
  685       -2.140099   1.000000
  686       -2.109543   1.000000
  687       -2.109446   1.000000
  688       -2.109428   1.000000
  689       -2.109423   1.000000
  690       -2.109394   1.000000
  691       -2.109360   1.000000
  692       -2.109262   1.000000
  693       -2.109241   1.000000
  694       -2.109160   1.000000
  695       -2.109125   1.000000
  696       -2.109087   1.000000
  697       -2.109033   1.000000
  698       -2.107041   1.000000
  699       -2.106847   1.000000
  700       -2.099620   1.000000
  701       -2.099536   1.000000
  702       -2.099515   1.000000
  703       -2.099448   1.000000
  704       -2.099417   1.000000
  705       -2.099287   1.000000
  706       -2.098666   1.000000
  707       -2.098425   1.000000
  708       -2.098330   1.000000
  709       -2.098284   1.000000
  710       -2.097270   1.000000
  711       -2.097200   1.000000
  712       -2.097135   1.000000
  713       -2.097027   1.000000
  714       -2.096985   1.000000
  715       -2.096957   1.000000
  716       -2.095939   1.000000
  717       -2.095933   1.000000
  718       -2.078781   1.000000
  719       -2.078728   1.000000
  720       -2.078672   1.000000
  721       -2.078622   1.000000
  722       -2.078499   1.000000
  723       -2.078403   1.000000
  724       -2.023000   1.000000
  725       -2.022956   1.000000
  726       -2.022881   1.000000
  727       -2.022853   1.000000
  728       -2.022840   1.000000
  729       -2.022811   1.000000
  730       -2.018344   1.000000
  731       -2.018305   1.000000
  732       -2.018271   1.000000
  733       -2.018247   1.000000
  734       -2.018202   1.000000
  735       -2.018191   1.000000
  736       -2.018161   1.000000
  737       -2.018126   1.000000
  738       -2.018096   1.000000
  739       -2.018046   1.000000
  740       -2.017977   1.000000
  741       -2.017927   1.000000
  742       -1.982440   1.000000
  743       -1.982276   1.000000
  744       -1.982177   1.000000
  745       -1.982159   1.000000
  746       -1.982094   1.000000
  747       -1.982035   1.000000
  748       -1.976508   1.000000
  749       -1.976496   1.000000
  750       -1.976414   1.000000
  751       -1.976376   1.000000
  752       -1.976340   1.000000
  753       -1.976322   1.000000
  754       -1.925822   1.000000
  755       -1.925732   1.000000
  756       -1.925665   1.000000
  757       -1.925657   1.000000
  758       -1.925613   1.000000
  759       -1.925592   1.000000
  760       -1.919758   1.000000
  761       -1.919709   1.000000
  762       -1.919682   1.000000
  763       -1.919646   1.000000
  764       -1.919632   1.000000
  765       -1.919601   1.000000
  766       -1.919539   1.000000
  767       -1.919513   1.000000
  768       -1.919483   1.000000
  769       -1.919434   1.000000
  770       -1.919410   1.000000
  771       -1.919374   1.000000
  772       -1.918281   1.000000
  773       -1.918204   1.000000
  774       -1.918106   1.000000
  775       -1.918078   1.000000
  776       -1.918053   1.000000
  777       -1.918036   1.000000
  778       -1.888545   1.000000
  779       -1.888482   1.000000
  780       -1.888473   1.000000
  781       -1.880959   1.000000
  782       -1.880871   1.000000
  783       -1.880787   1.000000
  784       -1.880727   1.000000
  785       -1.880647   1.000000
  786       -1.880629   1.000000
  787       -1.860325   1.000000
  788       -1.860194   1.000000
  789       -1.860150   1.000000
  790       -1.860066   1.000000
  791       -1.860011   1.000000
  792       -1.859977   1.000000
  793       -1.836715   1.000000
  794       -1.836687   1.000000
  795       -1.836616   1.000000
  796       -1.836552   1.000000
  797       -1.836539   1.000000
  798       -1.836471   1.000000
  799       -1.827302   1.000000
  800       -1.827223   1.000000
  801       -1.827187   1.000000
  802       -1.827135   1.000000
  803       -1.827074   1.000000
  804       -1.827042   1.000000
  805       -1.799364   1.000000
  806       -1.799311   1.000000
  807       -1.799290   1.000000
  808       -1.799195   1.000000
  809       -1.799135   1.000000
  810       -1.799109   1.000000
  811       -1.799057   1.000000
  812       -1.799043   1.000000
  813       -1.798972   1.000000
  814       -1.798943   1.000000
  815       -1.798913   1.000000
  816       -1.798880   1.000000
  817       -1.758699   1.000000
  818       -1.758679   1.000000
  819       -1.758607   1.000000
  820       -1.758538   1.000000
  821       -1.758503   1.000000
  822       -1.758454   1.000000
  823       -1.758434   1.000000
  824       -1.758353   1.000000
  825       -1.758330   1.000000
  826       -1.758308   1.000000
  827       -1.758294   1.000000
  828       -1.758276   1.000000
  829       -1.752075   1.000000
  830       -1.752006   1.000000
  831       -1.751922   1.000000
  832       -1.751879   1.000000
  833       -1.751761   1.000000
  834       -1.751700   1.000000
  835       -1.749512   1.000000
  836       -1.749499   1.000000
  837       -1.749447   1.000000
  838       -1.749407   1.000000
  839       -1.749354   1.000000
  840       -1.749305   1.000000
  841       -1.744093   1.000000
  842       -1.744068   1.000000
  843       -1.743974   1.000000
  844       -1.743931   1.000000
  845       -1.743889   1.000000
  846       -1.743835   1.000000
  847       -1.729566   1.000000
  848       -1.729492   1.000000
  849       -1.729455   1.000000
  850       -1.729356   1.000000
  851       -1.729281   1.000000
  852       -1.728990   1.000000
  853       -1.715875   1.000000
  854       -1.715831   1.000000
  855       -1.715819   1.000000
  856       -1.687970   1.000000
  857       -1.687900   1.000000
  858       -1.687867   1.000000
  859       -1.687809   1.000000
  860       -1.687767   1.000000
  861       -1.687749   1.000000
  862       -1.673242   1.000000
  863       -1.673219   1.000000
  864       -1.673159   1.000000
  865       -1.671241   1.000000
  866       -1.671181   1.000000
  867       -1.671162   1.000000
  868       -1.671078   1.000000
  869       -1.671057   1.000000
  870       -1.670986   1.000000
  871       -1.622290   1.000000
  872       -1.622266   1.000000
  873       -1.622192   1.000000
  874       -1.622179   1.000000
  875       -1.622159   1.000000
  876       -1.622124   1.000000
  877       -1.622112   1.000000
  878       -1.622081   1.000000
  879       -1.622075   1.000000
  880       -1.622055   1.000000
  881       -1.621978   1.000000
  882       -1.621962   1.000000
  883       -1.607647   1.000000
  884       -1.607476   1.000000
  885       -1.607383   1.000000
  886       -1.607215   1.000000
  887       -1.607082   1.000000
  888       -1.606471   1.000000
  889       -1.576924   1.000000
  890       -1.573310   1.000000
  891       -1.573256   1.000000
  892       -1.573192   1.000000
  893       -1.573129   1.000000
  894       -1.573030   1.000000
  895       -1.573020   1.000000
  896       -1.504237   1.000000
  897       -1.504195   1.000000
  898       -1.504172   1.000000
  899       -1.504110   1.000000
  900       -1.504081   1.000000
  901       -1.504066   1.000000