       N       E                     dE             d eps       ncg     rms          rms(c)
DAV:   1     0.182024485567E+05    0.18202E+05   -0.91697E+05 12240   0.112E+03
DAV:   2    -0.163766755776E+03   -0.18366E+05   -0.17387E+05 12816   0.399E+02
DAV:   3    -0.140655648388E+04   -0.12428E+04   -0.10256E+04 14040   0.103E+02
DAV:   4    -0.157443194901E+04   -0.16788E+03   -0.14891E+03 21840   0.380E+01
DAV:   5    -0.158065215472E+04   -0.62202E+01   -0.58948E+01 20208   0.709E+00    0.146E+02
DAV:   6    -0.184692193733E+04   -0.26627E+03   -0.32076E+03 13620   0.139E+02    0.246E+02
DAV:   7    -0.192438053167E+04   -0.77459E+02   -0.13560E+03 13224   0.147E+02    0.199E+02
DAV:   8    -0.153548949133E+04    0.38889E+03   -0.52203E+02 15600   0.655E+01    0.170E+02
DAV:   9    -0.146321413899E+04    0.72275E+02   -0.34499E+02 13764   0.757E+01    0.153E+02
DAV:  10    -0.233641239713E+04   -0.87320E+03   -0.46999E+02 14004   0.119E+02    0.291E+02
DAV:  11    -0.164615176666E+04    0.69026E+03   -0.28891E+02 14340   0.741E+01    0.238E+02
DAV:  12    -0.141540744950E+04    0.23074E+03   -0.17608E+02 14016   0.446E+01    0.144E+02
DAV:  13    -0.138710798199E+04    0.28299E+02   -0.88539E+01 14016   0.454E+01    0.147E+02
DAV:  14    -0.135755993273E+04    0.29548E+02   -0.78012E+01 15768   0.238E+01    0.112E+02
DAV:  15    -0.132567114856E+04    0.31889E+02   -0.39613E+01 14400   0.242E+01    0.736E+01
DAV:  16    -0.133491007906E+04   -0.92389E+01   -0.25946E+01 13152   0.233E+01    0.878E+01
DAV:  17    -0.132813674474E+04    0.67733E+01   -0.10834E+01 13152   0.117E+01    0.819E+01
DAV:  18    -0.132656723382E+04    0.15695E+01   -0.63185E+00 13056   0.793E+00    0.815E+01
DAV:  19    -0.131767757516E+04    0.88897E+01   -0.58272E+00 13272   0.102E+01    0.549E+01
DAV:  20    -0.131515450149E+04    0.25231E+01   -0.41914E+00 13272   0.924E+00    0.483E+01
DAV:  21    -0.131594590457E+04   -0.79140E+00   -0.30552E+00 13320   0.751E+00    0.537E+01
DAV:  22    -0.131529398479E+04    0.65192E+00   -0.31358E+00 13272   0.764E+00    0.551E+01
DAV:  23    -0.131239297611E+04    0.29010E+01   -0.22845E+00 13248   0.608E+00    0.475E+01
DAV:  24    -0.131104114579E+04    0.13518E+01   -0.12808E+00 13296   0.423E+00    0.437E+01
DAV:  25    -0.130995472850E+04    0.10864E+01   -0.92577E-01 13296   0.365E+00    0.390E+01
DAV:  26    -0.130867974659E+04    0.12750E+01   -0.62253E-01 13284   0.313E+00    0.323E+01
DAV:  27    -0.130775149666E+04    0.92825E+00   -0.54256E-01 13308   0.298E+00    0.266E+01
DAV:  28    -0.130736766576E+04    0.38383E+00   -0.39518E-01 13272   0.253E+00    0.244E+01
DAV:  29    -0.130720288824E+04    0.16478E+00   -0.37573E-01 13320   0.247E+00    0.233E+01
DAV:  30    -0.130692219540E+04    0.28069E+00   -0.36281E-01 13272   0.254E+00    0.225E+01
DAV:  31    -0.130674527822E+04    0.17692E+00   -0.26862E-01 13248   0.216E+00    0.220E+01
DAV:  32    -0.130669019502E+04    0.55083E-01   -0.26275E-01 13368   0.200E+00    0.220E+01
DAV:  33    -0.130658649209E+04    0.10370E+00   -0.36289E-01 13272   0.259E+00    0.209E+01
DAV:  34    -0.130616429998E+04    0.42219E+00   -0.63081E-01 13272   0.318E+00    0.184E+01
DAV:  35    -0.130591815072E+04    0.24615E+00   -0.47202E-01 13224   0.247E+00    0.171E+01
DAV:  36    -0.130582429024E+04    0.93860E-01   -0.27587E-01 13464   0.175E+00    0.169E+01
DAV:  37    -0.130578126012E+04    0.43030E-01   -0.19034E-01 13320   0.147E+00    0.170E+01
DAV:  38    -0.130558080033E+04    0.20046E+00   -0.16210E-01 13320   0.150E+00    0.157E+01
DAV:  39    -0.130545609111E+04    0.12471E+00   -0.91730E-02 13248   0.110E+00    0.146E+01
DAV:  40    -0.130540502188E+04    0.51069E-01   -0.43875E-02 14580   0.646E-01    0.141E+01
DAV:  41    -0.130533162029E+04    0.73402E-01   -0.35436E-02 13416   0.706E-01    0.132E+01
DAV:  42    -0.130520602493E+04    0.12560E+00   -0.38976E-02 13512   0.758E-01    0.115E+01
DAV:  43    -0.130513307243E+04    0.72953E-01   -0.25903E-02 13458   0.604E-01    0.104E+01
DAV:  44    -0.130508563760E+04    0.47435E-01   -0.24444E-02 13488   0.602E-01    0.970E+00
DAV:  45    -0.130501045246E+04    0.75185E-01   -0.49388E-02 13818   0.891E-01    0.858E+00
DAV:  46    -0.130488324980E+04    0.12720E+00   -0.53547E-02 13920   0.974E-01    0.599E+00
DAV:  47    -0.130486117028E+04    0.22080E-01   -0.45888E-02 13476   0.773E-01    0.571E+00
DAV:  48    -0.130486184187E+04   -0.67160E-03   -0.54239E-02 13416   0.841E-01    0.582E+00
DAV:  49    -0.130482921973E+04    0.32622E-01   -0.40561E-02 13356   0.774E-01    0.465E+00
DAV:  50    -0.130481222333E+04    0.16996E-01   -0.20416E-02 13236   0.560E-01    0.406E+00
DAV:  51    -0.130484240729E+04   -0.30184E-01   -0.75334E-02 21108   0.112E+00    0.522E+00
DAV:  52    -0.130484308184E+04   -0.67456E-03   -0.64359E-02 14244   0.905E-01    0.506E+00
DAV:  53    -0.130480507238E+04    0.38009E-01   -0.49015E-02 14064   0.857E-01    0.336E+00
DAV:  54    -0.130479542663E+04    0.96458E-02   -0.18510E-02 13500   0.529E-01    0.273E+00
DAV:  55    -0.130479532307E+04    0.10356E-03   -0.14399E-02 13416   0.475E-01    0.232E+00
DAV:  56    -0.130478595317E+04    0.93699E-02   -0.12612E-02 13368   0.485E-01    0.128E+00
DAV:  57    -0.130478403902E+04    0.19141E-02   -0.55583E-03 13188   0.298E-01    0.939E-01
DAV:  58    -0.130478502143E+04   -0.98240E-03   -0.42219E-03 13128   0.249E-01    0.978E-01
DAV:  59    -0.130478309112E+04    0.19303E-02   -0.29197E-03 13128   0.218E-01    0.521E-01
DAV:  60    -0.130478291276E+04    0.17837E-03   -0.10437E-03 13032   0.117E-01
   1 F= -.13047829E+04 E0= -.13040882E+04  d E =-.138935E+01
