 257 257   0   0
  0.1133056E+02  0.1428000E-08  0.1428000E-08  0.1428000E-08  0.2000000E-15
  1.000000000000000E-004
  CAR 
 NiAl                                    
     11.53706297    -14.49331694  301      3.96461787      1.00000000
    -14.493  0.0000E+00  0.0000E+00
    -14.407  0.0000E+00  0.0000E+00
    -14.320  0.0000E+00  0.0000E+00
    -14.233  0.0000E+00  0.0000E+00
    -14.146  0.0000E+00  0.0000E+00
    -14.059  0.0000E+00  0.0000E+00
    -13.973  0.0000E+00  0.0000E+00
    -13.886  0.0000E+00  0.0000E+00
    -13.799  0.0000E+00  0.0000E+00
    -13.712  0.0000E+00  0.0000E+00
    -13.626  0.0000E+00  0.0000E+00
    -13.539  0.2782E-10  0.2414E-11
    -13.452  0.1690E-04  0.1467E-05
    -13.365  0.3393E-01  0.2946E-02
    -13.279  0.4347E+00  0.4067E-01
    -13.192  0.1073E+00  0.4998E-01
    -13.105  0.2376E-03  0.5000E-01
    -13.018  0.1927E-08  0.5000E-01
    -12.931  0.0000E+00  0.5000E-01
    -12.845  0.0000E+00  0.5000E-01
    -12.758  0.0000E+00  0.5000E-01
    -12.671  0.0000E+00  0.5000E-01
    -12.584  0.0000E+00  0.5000E-01
    -12.498  0.0000E+00  0.5000E-01
    -12.411  0.0000E+00  0.5000E-01
    -12.324  0.0000E+00  0.5000E-01
    -12.237  0.0000E+00  0.5000E-01
    -12.151  0.0000E+00  0.5000E-01
    -12.064  0.0000E+00  0.5000E-01
    -11.977  0.0000E+00  0.5000E-01
    -11.890  0.0000E+00  0.5000E-01
    -11.804  0.0000E+00  0.5000E-01
    -11.717  0.0000E+00  0.5000E-01
    -11.630  0.0000E+00  0.5000E-01
    -11.543  0.0000E+00  0.5000E-01
    -11.456  0.0000E+00  0.5000E-01
    -11.370  0.0000E+00  0.5000E-01
    -11.283  0.0000E+00  0.5000E-01
    -11.196  0.0000E+00  0.5000E-01
    -11.109  0.0000E+00  0.5000E-01
    -11.023  0.0000E+00  0.5000E-01
    -10.936  0.0000E+00  0.5000E-01
    -10.849  0.0000E+00  0.5000E-01
    -10.762  0.0000E+00  0.5000E-01
    -10.676  0.0000E+00  0.5000E-01
    -10.589  0.0000E+00  0.5000E-01
    -10.502  0.0000E+00  0.5000E-01
    -10.415  0.0000E+00  0.5000E-01
    -10.328  0.0000E+00  0.5000E-01
    -10.242  0.0000E+00  0.5000E-01
    -10.155  0.0000E+00  0.5000E-01
    -10.068  0.0000E+00  0.5000E-01
     -9.981  0.0000E+00  0.5000E-01
     -9.895  0.0000E+00  0.5000E-01
     -9.808  0.0000E+00  0.5000E-01
     -9.721  0.0000E+00  0.5000E-01
     -9.634  0.0000E+00  0.5000E-01
     -9.548  0.0000E+00  0.5000E-01
     -9.461  0.0000E+00  0.5000E-01
     -9.374  0.0000E+00  0.5000E-01
     -9.287  0.0000E+00  0.5000E-01
     -9.200  0.0000E+00  0.5000E-01
     -9.114  0.0000E+00  0.5000E-01
     -9.027  0.0000E+00  0.5000E-01
     -8.940  0.0000E+00  0.5000E-01
     -8.853  0.0000E+00  0.5000E-01
     -8.767  0.0000E+00  0.5000E-01
     -8.680  0.0000E+00  0.5000E-01
     -8.593  0.0000E+00  0.5000E-01
     -8.506  0.0000E+00  0.5000E-01
     -8.420  0.0000E+00  0.5000E-01
     -8.333  0.0000E+00  0.5000E-01
     -8.246  0.0000E+00  0.5000E-01
     -8.159  0.0000E+00  0.5000E-01
     -8.072  0.0000E+00  0.5000E-01
     -7.986  0.0000E+00  0.5000E-01
     -7.899  0.0000E+00  0.5000E-01
     -7.812  0.0000E+00  0.5000E-01
     -7.725  0.0000E+00  0.5000E-01
     -7.639  0.0000E+00  0.5000E-01
     -7.552  0.0000E+00  0.5000E-01
     -7.465  0.0000E+00  0.5000E-01
     -7.378  0.0000E+00  0.5000E-01
     -7.292  0.0000E+00  0.5000E-01
     -7.205  0.0000E+00  0.5000E-01
     -7.118  0.0000E+00  0.5000E-01
     -7.031  0.0000E+00  0.5000E-01
     -6.945  0.0000E+00  0.5000E-01
     -6.858  0.0000E+00  0.5000E-01
     -6.771  0.0000E+00  0.5000E-01
     -6.684  0.0000E+00  0.5000E-01
     -6.597  0.0000E+00  0.5000E-01
     -6.511  0.0000E+00  0.5000E-01
     -6.424  0.0000E+00  0.5000E-01
     -6.337  0.0000E+00  0.5000E-01
     -6.250  0.0000E+00  0.5000E-01
     -6.164  0.0000E+00  0.5000E-01
     -6.077  0.0000E+00  0.5000E-01
     -5.990  0.0000E+00  0.5000E-01
     -5.903  0.0000E+00  0.5000E-01
     -5.817  0.0000E+00  0.5000E-01
     -5.730  0.0000E+00  0.5000E-01
     -5.643  0.0000E+00  0.5000E-01
     -5.556  0.0000E+00  0.5000E-01
     -5.469  0.0000E+00  0.5000E-01
     -5.383  0.0000E+00  0.5000E-01
     -5.296  0.0000E+00  0.5000E-01
     -5.209  0.0000E+00  0.5000E-01
     -5.122  0.0000E+00  0.5000E-01
     -5.036  0.0000E+00  0.5000E-01
     -4.949  0.0000E+00  0.5000E-01
     -4.862  0.0000E+00  0.5000E-01
     -4.775  0.1065E-13  0.5000E-01
     -4.689  0.4625E-07  0.5000E-01
     -4.602  0.6100E-03  0.5005E-01
     -4.515  0.3731E-01  0.5329E-01
     -4.428  0.3749E-01  0.5654E-01
     -4.341  0.1591E+00  0.7035E-01
     -4.255  0.2513E+00  0.9215E-01
     -4.168  0.3226E+00  0.1201E+00
     -4.081  0.4160E+00  0.1562E+00
     -3.994  0.3425E+00  0.1860E+00
     -3.908  0.3046E+00  0.2124E+00
     -3.821  0.3191E+00  0.2401E+00
     -3.734  0.7984E+00  0.3094E+00
     -3.647  0.5092E+00  0.3535E+00
     -3.561  0.9060E+00  0.4322E+00
     -3.474  0.6306E+00  0.4869E+00
     -3.387  0.1037E+01  0.5768E+00
     -3.300  0.8512E+00  0.6507E+00
     -3.213  0.3934E+00  0.6848E+00
     -3.127  0.1643E+00  0.6991E+00
     -3.040  0.2744E+00  0.7229E+00
     -2.953  0.3801E+00  0.7559E+00
     -2.866  0.6205E+00  0.8097E+00
     -2.780  0.1044E+01  0.9003E+00
     -2.693  0.8855E+00  0.9771E+00
     -2.606  0.1059E+01  0.1069E+01
     -2.519  0.9783E+00  0.1154E+01
     -2.433  0.1007E+01  0.1241E+01
     -2.346  0.2477E+00  0.1263E+01
     -2.259  0.4087E+00  0.1298E+01
     -2.172  0.5544E+00  0.1346E+01
     -2.086  0.1068E+01  0.1439E+01
     -1.999  0.2105E+01  0.1622E+01
     -1.912  0.1002E+01  0.1708E+01
     -1.825  0.5443E+00  0.1756E+01
     -1.738  0.1996E+00  0.1773E+01
     -1.652  0.3991E+00  0.1808E+01
     -1.565  0.1642E+01  0.1950E+01
     -1.478  0.1332E+01  0.2066E+01
     -1.391  0.1497E+01  0.2196E+01
     -1.305  0.1539E+01  0.2329E+01
     -1.218  0.1372E+01  0.2448E+01
     -1.131  0.5535E+00  0.2496E+01
     -1.044  0.1738E+01  0.2647E+01
     -0.958  0.3452E+01  0.2947E+01
     -0.871  0.1292E+01  0.3059E+01
     -0.784  0.3422E+00  0.3088E+01
     -0.697  0.1218E+01  0.3194E+01
     -0.610  0.1050E+01  0.3285E+01
     -0.524  0.1314E+01  0.3399E+01
     -0.437  0.3617E+01  0.3713E+01
     -0.350  0.5725E+01  0.4210E+01
     -0.263  0.2547E+01  0.4431E+01
     -0.177  0.1901E+01  0.4596E+01
     -0.090  0.4277E+01  0.4967E+01
     -0.003  0.5484E+01  0.5443E+01
      0.084  0.7068E+01  0.6056E+01
      0.170  0.6943E+01  0.6658E+01
      0.257  0.4926E+01  0.7086E+01
      0.344  0.9457E+01  0.7906E+01
      0.431  0.9916E+01  0.8767E+01
      0.518  0.5784E+01  0.9269E+01
      0.604  0.7834E+01  0.9948E+01
      0.691  0.1163E+02  0.1096E+02
      0.778  0.1514E+02  0.1227E+02
      0.865  0.1299E+02  0.1340E+02
      0.951  0.1108E+02  0.1436E+02
      1.038  0.1278E+02  0.1547E+02
      1.125  0.1292E+02  0.1659E+02
      1.212  0.1174E+02  0.1761E+02
      1.298  0.9257E+01  0.1841E+02
      1.385  0.1156E+02  0.1941E+02
      1.472  0.1239E+02  0.2049E+02
      1.559  0.1144E+02  0.2148E+02
      1.646  0.1549E+02  0.2283E+02
      1.732  0.1407E+02  0.2405E+02
      1.819  0.1517E+02  0.2536E+02
      1.906  0.1519E+02  0.2668E+02
      1.993  0.1363E+02  0.2786E+02
      2.079  0.2360E+02  0.2991E+02
      2.166  0.2156E+02  0.3178E+02
      2.253  0.1718E+02  0.3327E+02
      2.340  0.2093E+02  0.3509E+02
      2.426  0.2631E+02  0.3737E+02
      2.513  0.1603E+02  0.3876E+02
      2.600  0.1491E+02  0.4006E+02
      2.687  0.1365E+02  0.4124E+02
      2.774  0.1459E+02  0.4251E+02
      2.860  0.1619E+02  0.4391E+02
      2.947  0.1138E+02  0.4490E+02
      3.034  0.1737E+02  0.4641E+02
      3.121  0.2165E+02  0.4828E+02
      3.207  0.1357E+02  0.4946E+02
      3.294  0.1380E+02  0.5066E+02
      3.381  0.2111E+02  0.5249E+02
      3.468  0.1978E+02  0.5421E+02
      3.554  0.1248E+02  0.5529E+02
      3.641  0.1464E+02  0.5656E+02
      3.728  0.1997E+02  0.5829E+02
      3.815  0.1957E+02  0.5999E+02
      3.901  0.2650E+02  0.6229E+02
      3.988  0.2923E+02  0.6483E+02
      4.075  0.2318E+02  0.6684E+02
      4.162  0.6764E+01  0.6743E+02
      4.249  0.1874E+01  0.6759E+02
      4.335  0.1333E+01  0.6770E+02
      4.422  0.2525E+01  0.6792E+02
      4.509  0.2182E+01  0.6811E+02
      4.596  0.3406E+01  0.6841E+02
      4.682  0.4499E+01  0.6880E+02
      4.769  0.3125E+01  0.6907E+02
      4.856  0.1619E+01  0.6921E+02
      4.943  0.1041E+01  0.6930E+02
      5.029  0.1045E+01  0.6939E+02
      5.116  0.1403E+01  0.6951E+02
      5.203  0.1923E+01  0.6968E+02
      5.290  0.1069E+01  0.6977E+02
      5.377  0.1223E+01  0.6988E+02
      5.463  0.2658E+01  0.7011E+02
      5.550  0.6970E+01  0.7071E+02
      5.637  0.2599E+01  0.7094E+02
      5.724  0.5620E+00  0.7099E+02
      5.810  0.1124E+01  0.7109E+02
      5.897  0.1059E+01  0.7118E+02
      5.984  0.1570E+01  0.7131E+02
      6.071  0.1561E+01  0.7145E+02
      6.157  0.5448E+00  0.7150E+02
      6.244  0.1624E+01  0.7164E+02
      6.331  0.2835E+01  0.7188E+02
      6.418  0.1499E+01  0.7201E+02
      6.505  0.3616E+01  0.7233E+02
      6.591  0.1752E+01  0.7248E+02
      6.678  0.4828E+00  0.7252E+02
      6.765  0.1728E+01  0.7267E+02
      6.852  0.6765E+00  0.7273E+02
      6.938  0.1607E+01  0.7287E+02
      7.025  0.4057E+01  0.7322E+02
      7.112  0.1137E+01  0.7332E+02
      7.199  0.2375E+01  0.7353E+02
      7.285  0.1352E+01  0.7364E+02
      7.372  0.2693E+00  0.7367E+02
      7.459  0.1228E+01  0.7377E+02
      7.546  0.1006E+01  0.7386E+02
      7.633  0.1407E+01  0.7398E+02
      7.719  0.2899E+01  0.7423E+02
      7.806  0.2986E+01  0.7449E+02
      7.893  0.4980E+00  0.7454E+02
      7.980  0.2474E+00  0.7456E+02
      8.066  0.2012E+01  0.7473E+02
      8.153  0.2791E+01  0.7497E+02
      8.240  0.2594E+00  0.7500E+02
      8.327  0.4295E+00  0.7503E+02
      8.413  0.6127E+00  0.7509E+02
      8.500  0.1691E+01  0.7523E+02
      8.587  0.1867E+00  0.7525E+02
      8.674  0.3208E+00  0.7528E+02
      8.760  0.1253E+01  0.7539E+02
      8.847  0.1542E+01  0.7552E+02
      8.934  0.2907E+01  0.7577E+02
      9.021  0.3007E+01  0.7603E+02
      9.108  0.1015E+01  0.7612E+02
      9.194  0.2725E+00  0.7615E+02
      9.281  0.1925E+00  0.7616E+02
      9.368  0.1938E+00  0.7618E+02
      9.455  0.4607E-01  0.7618E+02
      9.541  0.6370E+00  0.7624E+02
      9.628  0.8420E+00  0.7631E+02
      9.715  0.2361E+00  0.7633E+02
      9.802  0.5299E+00  0.7638E+02
      9.888  0.2645E+01  0.7661E+02
      9.975  0.1473E+01  0.7673E+02
     10.062  0.1293E+01  0.7685E+02
     10.149  0.1450E+01  0.7697E+02
     10.236  0.9684E+00  0.7706E+02
     10.322  0.4012E+00  0.7709E+02
     10.409  0.8983E-01  0.7710E+02
     10.496  0.4443E-02  0.7710E+02
     10.583  0.2138E-05  0.7710E+02
     10.669  0.3528E-11  0.7710E+02
     10.756  0.0000E+00  0.7710E+02
     10.843  0.0000E+00  0.7710E+02
     10.930  0.0000E+00  0.7710E+02
     11.016  0.0000E+00  0.7710E+02
     11.103  0.0000E+00  0.7710E+02
     11.190  0.0000E+00  0.7710E+02
     11.277  0.0000E+00  0.7710E+02
     11.364  0.0000E+00  0.7710E+02
     11.450  0.0000E+00  0.7710E+02
     11.537  0.0000E+00  0.7710E+02
