         265
 Energy:  -1363.5232175000001     
 X   0.00000000       0.00000000       0.00000000    
 X   14.2799997       0.00000000       0.00000000    
 X   0.00000000       14.2799997       0.00000000    
 X   0.00000000       0.00000000       14.2799997    
 X   14.2799997       14.2799997       0.00000000    
 X   14.2799997       0.00000000       14.2799997    
 X   0.00000000       14.2799997       14.2799997    
 X   14.2799997       14.2799997       14.2799997    
 Ni   0.00000000       0.00000000       0.00000000    
 Ni   0.00000000       1.78499997       1.78499997    
 Ni   1.78499997       0.00000000       1.78499997    
 Ni   1.78499997       1.78499997       0.00000000    
 Ni   0.00000000       0.00000000       3.56999993    
 Ni   0.00000000       1.78499997       5.35500002    
 Ni   1.78499997       0.00000000       5.35500002    
 Ni   1.78499997       1.78499997       3.56999993    
 Ni   0.00000000       0.00000000       7.13999987    
 Ni   0.00000000       1.78499997       8.92500019    
 Ni   1.78499997       0.00000000       8.92500019    
 Ni   1.78499997       1.78499997       7.13999987    
 Ni   0.00000000       0.00000000       10.7100000    
 Ni   0.00000000       1.78499997       12.4949999    
 Ni   1.78499997       0.00000000       12.4949999    
 Ni   1.78499997       1.78499997       10.7100000    
 Ni   0.00000000       3.56999993       0.00000000    
 Ni   0.00000000       5.35500002       1.78499997    
 Ni   1.78499997       3.56999993       1.78499997    
 Ni   1.78499997       5.35500002       0.00000000    
 Ni   0.00000000       3.56999993       3.56999993    
 Ni   0.00000000       5.35500002       5.35500002    
 Ni   1.78499997       3.56999993       5.35500002    
 Ni   1.78499997       5.35500002       3.56999993    
 Ni   0.00000000       3.56999993       7.13999987    
 Ni   0.00000000       5.35500002       8.92500019    
 Ni   1.78499997       3.56999993       8.92500019    
 Ni   1.78499997       5.35500002       7.13999987    
 Ni   0.00000000       3.56999993       10.7100000    
 Ni   0.00000000       5.35500002       12.4949999    
 Ni   1.78499997       3.56999993       12.4949999    
 Ni   1.78499997       5.35500002       10.7100000    
 Ni   0.00000000       7.13999987       0.00000000    
 Ni   0.00000000       8.92500019       1.78499997    
 Ni   1.78499997       7.13999987       1.78499997    
 Ni   1.78499997       8.92500019       0.00000000    
 Ni   0.00000000       7.13999987       3.56999993    
 Ni   0.00000000       8.92500019       5.35500002    
 Ni   1.78499997       7.13999987       5.35500002    
 Ni   1.78499997       8.92500019       3.56999993    
 Ni   0.00000000       7.13999987       7.13999987    
 Ni   0.00000000       8.92500019       8.92500019    
 Ni   1.78499997       7.13999987       8.92500019    
 Ni   1.78499997       8.92500019       7.13999987    
 Ni   0.00000000       7.13999987       10.7100000    
 Ni   0.00000000       8.92500019       12.4949999    
 Ni   1.78499997       7.13999987       12.4949999    
 Ni   1.78499997       8.92500019       10.7100000    
 Ni   0.00000000       10.7100000       0.00000000    
 Ni   0.00000000       12.4949999       1.78499997    
 Ni   1.78499997       10.7100000       1.78499997    
 Ni   1.78499997       12.4949999       0.00000000    
 Ni   0.00000000       10.7100000       3.56999993    
 Ni   0.00000000       12.4949999       5.35500002    
 Ni   1.78499997       10.7100000       5.35500002    
 Ni   1.78499997       12.4949999       3.56999993    
 Ni   0.00000000       10.7100000       7.13999987    
 Ni   0.00000000       12.4949999       8.92500019    
 Ni   1.78499997       10.7100000       8.92500019    
 Ni   1.78499997       12.4949999       7.13999987    
 Ni   0.00000000       10.7100000       10.7100000    
 Ni   0.00000000       12.4949999       12.4949999    
 Ni   1.78499997       10.7100000       12.4949999    
 Ni   1.78499997       12.4949999       10.7100000    
 Ni   3.56999993       0.00000000       0.00000000    
 Ni   3.56999993       1.78499997       1.78499997    
 Ni   5.35500002       0.00000000       1.78499997    
 Ni   5.35500002       1.78499997       0.00000000    
 Ni   3.56999993       0.00000000       3.56999993    
 Ni   3.56999993       1.78499997       5.35500002    
 Ni   5.35500002       0.00000000       5.35500002    
 Ni   5.35500002       1.78499997       3.56999993    
 Ni   3.56999993       0.00000000       7.13999987    
 Ni   3.56999993       1.78499997       8.92500019    
 Ni   5.35500002       0.00000000       8.92500019    
 Ni   5.35500002       1.78499997       7.13999987    
 Ni   3.56999993       0.00000000       10.7100000    
 Ni   3.56999993       1.78499997       12.4949999    
 Ni   5.35500002       0.00000000       12.4949999    
 Ni   5.35500002       1.78499997       10.7100000    
 Ni   3.56999993       3.56999993       0.00000000    
 Ni   3.56999993       5.35500002       1.78499997    
 Ni   5.35500002       3.56999993       1.78499997    
 Ni   5.35500002       5.35500002       0.00000000    
 Ni   3.56999993       3.56999993       3.56999993    
 Ni   3.56999993       5.35500002       5.35500002    
 Ni   5.35500002       3.56999993       5.35500002    
 Ni   5.35500002       5.35500002       3.56999993    
 Ni   3.56999993       3.56999993       7.13999987    
 Ni   3.56999993       5.35500002       8.92500019    
 Ni   5.35500002       3.56999993       8.92500019    
 Ni   5.35500002       5.35500002       7.13999987    
 Ni   3.56999993       3.56999993       10.7100000    
 Ni   3.56999993       5.35500002       12.4949999    
 Ni   5.35500002       3.56999993       12.4949999    
 Ni   5.35500002       5.35500002       10.7100000    
 Ni   3.56999993       7.13999987       0.00000000    
 Ni   3.56999993       8.92500019       1.78499997    
 Ni   5.35500002       7.13999987       1.78499997    
 Ni   5.35500002       8.92500019       0.00000000    
 Ni   3.56999993       7.13999987       3.56999993    
 Ni   3.56999993       8.92500019       5.35500002    
 Ni   5.35500002       7.13999987       5.35500002    
 Ni   5.35500002       8.92500019       3.56999993    
 Ni   3.56999993       7.13999987       7.13999987    
 Ni   3.56999993       8.92500019       8.92500019    
 Ni   5.35500002       7.13999987       8.92500019    
 Ni   5.35500002       8.92500019       7.13999987    
 Ni   3.56999993       7.13999987       10.7100000    
 Ni   3.56999993       8.92500019       12.4949999    
 Ni   5.35500002       7.13999987       12.4949999    
 Ni   5.35500002       8.92500019       10.7100000    
 Ni   3.56999993       10.7100000       0.00000000    
 Ni   3.56999993       12.4949999       1.78499997    
 Ni   5.35500002       10.7100000       1.78499997    
 Ni   5.35500002       12.4949999       0.00000000    
 Ni   3.56999993       10.7100000       3.56999993    
 Ni   3.56999993       12.4949999       5.35500002    
 Ni   5.35500002       10.7100000       5.35500002    
 Ni   5.35500002       12.4949999       3.56999993    
 Ni   3.56999993       10.7100000       7.13999987    
 Ni   3.56999993       12.4949999       8.92500019    
 Ni   5.35500002       10.7100000       8.92500019    
 Ni   5.35500002       12.4949999       7.13999987    
 Ni   3.56999993       10.7100000       10.7100000    
 Ni   3.56999993       12.4949999       12.4949999    
 Ni   5.35500002       10.7100000       12.4949999    
 Ni   5.35500002       12.4949999       10.7100000    
 Ni   7.13999987       0.00000000       0.00000000    
 Ni   7.13999987       1.78499997       1.78499997    
 Ni   8.92500019       0.00000000       1.78499997    
 Ni   8.92500019       1.78499997       0.00000000    
 Ni   7.13999987       0.00000000       3.56999993    
 Ni   7.13999987       1.78499997       5.35500002    
 Ni   8.92500019       0.00000000       5.35500002    
 Ni   8.92500019       1.78499997       3.56999993    
 Ni   7.13999987       0.00000000       7.13999987    
 Ni   7.13999987       1.78499997       8.92500019    
 Ni   8.92500019       0.00000000       8.92500019    
 Ni   8.92500019       1.78499997       7.13999987    
 Ni   7.13999987       0.00000000       10.7100000    
 Ni   7.13999987       1.78499997       12.4949999    
 Ni   8.92500019       0.00000000       12.4949999    
 Ni   8.92500019       1.78499997       10.7100000    
 Ni   7.13999987       3.56999993       0.00000000    
 Ni   7.13999987       5.35500002       1.78499997    
 Ni   8.92500019       3.56999993       1.78499997    
 Ni   8.92500019       5.35500002       0.00000000    
 Ni   7.13999987       3.56999993       3.56999993    
 Ni   7.13999987       5.35500002       5.35500002    
 Ni   8.92500019       3.56999993       5.35500002    
 Ni   8.92500019       5.35500002       3.56999993    
 Ni   7.13999987       3.56999993       7.13999987    
 Ni   7.13999987       5.35500002       8.92500019    
 Ni   8.92500019       3.56999993       8.92500019    
 Ni   8.92500019       5.35500002       7.13999987    
 Ni   7.13999987       3.56999993       10.7100000    
 Ni   7.13999987       5.35500002       12.4949999    
 Ni   8.92500019       3.56999993       12.4949999    
 Ni   8.92500019       5.35500002       10.7100000    
 Ni   7.13999987       7.13999987       0.00000000    
 Ni   7.13999987       8.92500019       1.78499997    
 Ni   8.92500019       7.13999987       1.78499997    
 Ni   8.92500019       8.92500019       0.00000000    
 Ni   7.13999987       7.13999987       3.56999993    
 Ni   7.13999987       8.92500019       5.35500002    
 Ni   8.92500019       7.13999987       5.35500002    
 Ni   8.92500019       8.92500019       3.56999993    
 Ni   7.13999987       7.13999987       7.13999987    
 Ni   7.13999987       8.92500019       8.92500019    
 Ni   8.92500019       7.13999987       8.92500019    
 Ni   8.92500019       8.92500019       7.13999987    
 Ni   7.13999987       7.13999987       10.7100000    
 Ni   7.13999987       8.92500019       12.4949999    
 Ni   8.92500019       7.13999987       12.4949999    
 Ni   8.92500019       8.92500019       10.7100000    
 Ni   7.13999987       10.7100000       0.00000000    
 Ni   7.13999987       12.4949999       1.78499997    
 Ni   8.92500019       10.7100000       1.78499997    
 Ni   8.92500019       12.4949999       0.00000000    
 Ni   7.13999987       10.7100000       3.56999993    
 Ni   7.13999987       12.4949999       5.35500002    
 Ni   8.92500019       10.7100000       5.35500002    
 Ni   8.92500019       12.4949999       3.56999993    
 Ni   7.13999987       10.7100000       7.13999987    
 Ni   7.13999987       12.4949999       8.92500019    
 Ni   8.92500019       10.7100000       8.92500019    
 Ni   8.92500019       12.4949999       7.13999987    
 Ni   7.13999987       10.7100000       10.7100000    
 Ni   7.13999987       12.4949999       12.4949999    
 Ni   8.92500019       10.7100000       12.4949999    
 Ni   8.92500019       12.4949999       10.7100000    
 Ni   10.7100000       0.00000000       0.00000000    
 Ni   10.7100000       1.78499997       1.78499997    
 Ni   12.4949999       0.00000000       1.78499997    
 Ni   12.4949999       1.78499997       0.00000000    
 Ni   10.7100000       0.00000000       3.56999993    
 Ni   10.7100000       1.78499997       5.35500002    
 Ni   12.4949999       0.00000000       5.35500002    
 Ni   12.4949999       1.78499997       3.56999993    
 Ni   10.7100000       0.00000000       7.13999987    
 Ni   10.7100000       1.78499997       8.92500019    
 Ni   12.4949999       0.00000000       8.92500019    
 Ni   12.4949999       1.78499997       7.13999987    
 Ni   10.7100000       0.00000000       10.7100000    
 Ni   10.7100000       1.78499997       12.4949999    
 Ni   12.4949999       0.00000000       12.4949999    
 Ni   12.4949999       1.78499997       10.7100000    
 Ni   10.7100000       3.56999993       0.00000000    
 Ni   10.7100000       5.35500002       1.78499997    
 Ni   12.4949999       3.56999993       1.78499997    
 Ni   12.4949999       5.35500002       0.00000000    
 Ni   10.7100000       3.56999993       3.56999993    
 Ni   10.7100000       5.35500002       5.35500002    
 Ni   12.4949999       3.56999993       5.35500002    
 Ni   12.4949999       5.35500002       3.56999993    
 Ni   10.7100000       3.56999993       7.13999987    
 Ni   10.7100000       5.35500002       8.92500019    
 Ni   12.4949999       3.56999993       8.92500019    
 Ni   12.4949999       5.35500002       7.13999987    
 Ni   10.7100000       3.56999993       10.7100000    
 Ni   10.7100000       5.35500002       12.4949999    
 Ni   12.4949999       3.56999993       12.4949999    
 Ni   12.4949999       5.35500002       10.7100000    
 Ni   10.7100000       7.13999987       0.00000000    
 Ni   10.7100000       8.92500019       1.78499997    
 Ni   12.4949999       7.13999987       1.78499997    
 Ni   12.4949999       8.92500019       0.00000000    
 Ni   10.7100000       7.13999987       3.56999993    
 Ni   10.7100000       8.92500019       5.35500002    
 Ni   12.4949999       7.13999987       5.35500002    
 Ni   12.4949999       8.92500019       3.56999993    
 Ni   10.7100000       7.13999987       7.13999987    
 Ni   10.7100000       8.92500019       8.92500019    
 Ni   12.4949999       7.13999987       8.92500019    
 Ni   12.4949999       8.92500019       7.13999987    
 Ni   10.7100000       7.13999987       10.7100000    
 Ni   10.7100000       8.92500019       12.4949999    
 Ni   12.4949999       7.13999987       12.4949999    
 Ni   12.4949999       8.92500019       10.7100000    
 Ni   10.7100000       10.7100000       0.00000000    
 Ni   10.7100000       12.4949999       1.78499997    
 Ni   12.4949999       10.7100000       1.78499997    
 Ni   12.4949999       12.4949999       0.00000000    
 Ni   10.7100000       10.7100000       3.56999993    
 Ni   10.7100000       12.4949999       5.35500002    
 Ni   12.4949999       10.7100000       5.35500002    
 Ni   12.4949999       12.4949999       3.56999993    
 Ni   10.7100000       10.7100000       7.13999987    
 Ni   10.7100000       12.4949999       8.92500019    
 Ni   12.4949999       10.7100000       8.92500019    
 Ni   12.4949999       12.4949999       7.13999987    
 Ni   10.7100000       10.7100000       10.7100000    
 Ni   10.7100000       12.4949999       12.4949999    
 Ni   12.4949999       10.7100000       12.4949999    
 Ni   12.4949999       12.4949999       10.7100000    
 N    1.78499997       0.00000000       0.00000000    
         265
 Energy:  -1363.7583110000000     
 X   0.00000000       0.00000000       0.00000000    
 X   14.2799997       0.00000000       0.00000000    
 X   0.00000000       14.2799997       0.00000000    
 X   0.00000000       0.00000000       14.2799997    
 X   14.2799997       14.2799997       0.00000000    
 X   14.2799997       0.00000000       14.2799997    
 X   0.00000000       14.2799997       14.2799997    
 X   14.2799997       14.2799997       14.2799997    
 Ni  -2.97899991E-02  -0.00000000       0.00000000    
 Ni  -5.35000023E-03   1.79034996       1.79034996    
 Ni   1.78499997      -0.00000000       1.81479001    
 Ni   1.78499997       1.81479001       0.00000000    
 Ni  -6.09999988E-04  -0.00000000       3.57072997    
 Ni  -1.99999995E-05   1.78501999       5.35487986    
 Ni   1.78499997      -0.00000000       5.35532999    
 Ni   1.78499997       1.78560996       3.57072997    
 Ni  -7.00000019E-05  -0.00000000       7.13999987    
 Ni  -1.99999995E-05   1.78501999       8.92512035    
 Ni   1.78499997      -0.00000000       8.92467022    
 Ni   1.78499997       1.78506994       7.13999987    
 Ni  -6.09999988E-04  -0.00000000       10.7092695    
 Ni  -5.35000023E-03   1.79034996       12.4896498    
 Ni   1.78499997      -0.00000000       12.4652100    
 Ni   1.78499997       1.78560996       10.7092695    
 Ni  -6.09999988E-04   3.57072997       0.00000000    
 Ni  -1.99999995E-05   5.35487986       1.78501999    
 Ni   1.78499997       3.57072997       1.78560996    
 Ni   1.78499997       5.35532999       0.00000000    
 Ni   2.20000002E-04   3.56979990       3.56979990    
 Ni  -7.99999980E-05   5.35501003       5.35501003    
 Ni   1.78499997       3.57042003       5.35540009    
 Ni   1.78499997       5.35540009       3.57042003    
 Ni  -1.99999995E-05   3.57002997       7.13999987    
 Ni  -7.99999980E-05   5.35501003       8.92498970    
 Ni   1.78499997       3.57042003       8.92459965    
 Ni   1.78499997       5.35516024       7.13999987    
 Ni   2.20000002E-04   3.56979990       10.7102003    
 Ni  -1.99999995E-05   5.35487986       12.4949799    
 Ni   1.78499997       3.57072997       12.4943895    
 Ni   1.78499997       5.35540009       10.7095804    
 Ni  -7.00000019E-05   7.13999987       0.00000000    
 Ni  -1.99999995E-05   8.92512035       1.78501999    
 Ni   1.78499997       7.13999987       1.78506994    
 Ni   1.78499997       8.92467022       0.00000000    
 Ni  -1.99999995E-05   7.13999987       3.57002997    
 Ni  -7.99999980E-05   8.92498970       5.35501003    
 Ni   1.78499997       7.13999987       5.35516024    
 Ni   1.78499997       8.92459965       3.57042003    
 Ni  -1.50000007E-04   7.13999987       7.13999987    
 Ni  -7.99999980E-05   8.92498970       8.92498970    
 Ni   1.78499997       7.13999987       8.92483997    
 Ni   1.78499997       8.92483997       7.13999987    
 Ni  -1.99999995E-05   7.13999987       10.7099705    
 Ni  -1.99999995E-05   8.92512035       12.4949799    
 Ni   1.78499997       7.13999987       12.4949303    
 Ni   1.78499997       8.92459965       10.7095804    
 Ni  -6.09999988E-04   10.7092695       0.00000000    
 Ni  -5.35000023E-03   12.4896498       1.79034996    
 Ni   1.78499997       10.7092695       1.78560996    
 Ni   1.78499997       12.4652100       0.00000000    
 Ni   2.20000002E-04   10.7102003       3.56979990    
 Ni  -1.99999995E-05   12.4949799       5.35487986    
 Ni   1.78499997       10.7095804       5.35540009    
 Ni   1.78499997       12.4943895       3.57072997    
 Ni  -1.99999995E-05   10.7099705       7.13999987    
 Ni  -1.99999995E-05   12.4949799       8.92512035    
 Ni   1.78499997       10.7095804       8.92459965    
 Ni   1.78499997       12.4949303       7.13999987    
 Ni   2.20000002E-04   10.7102003       10.7102003    
 Ni  -5.35000023E-03   12.4896498       12.4896498    
 Ni   1.78499997       10.7092695       12.4943895    
 Ni   1.78499997       12.4943895       10.7092695    
 Ni   3.59979010      -0.00000000       0.00000000    
 Ni   3.57535005       1.79034996       1.79034996    
 Ni   5.35573006      -0.00000000       1.78560996    
 Ni   5.35573006       1.78560996       0.00000000    
 Ni   3.57061005      -0.00000000       3.57072997    
 Ni   3.57001996       1.78501999       5.35487986    
 Ni   5.35542011      -0.00000000       5.35540009    
 Ni   5.35480022       1.78478003       3.56979990    
 Ni   3.57007003      -0.00000000       7.13999987    
 Ni   3.57001996       1.78501999       8.92512035    
 Ni   5.35542011      -0.00000000       8.92459965    
 Ni   5.35503006       1.78501999       7.13999987    
 Ni   3.57061005      -0.00000000       10.7092695    
 Ni   3.57535005       1.79034996       12.4896498    
 Ni   5.35573006      -0.00000000       12.4943895    
 Ni   5.35480022       1.78478003       10.7102003    
 Ni   3.57061005       3.57072997       0.00000000    
 Ni   3.57001996       5.35487986       1.78501999    
 Ni   5.35480022       3.56979990       1.78478003    
 Ni   5.35542011       5.35540009       0.00000000    
 Ni   3.56978011       3.56979990       3.56979990    
 Ni   3.57008004       5.35501003       5.35501003    
 Ni   5.35502005       3.57001996       5.35497999    
 Ni   5.35502005       5.35497999       3.57001996    
 Ni   3.57001996       3.57002997       7.13999987    
 Ni   3.57008004       5.35501003       8.92498970    
 Ni   5.35502005       3.57001996       8.92502022    
 Ni   5.35500002       5.35494995       7.13999987    
 Ni   3.56978011       3.56979990       10.7102003    
 Ni   3.57001996       5.35487986       12.4949799    
 Ni   5.35480022       3.56979990       12.4952202    
 Ni   5.35502005       5.35497999       10.7099800    
 Ni   3.57007003       7.13999987       0.00000000    
 Ni   3.57001996       8.92512035       1.78501999    
 Ni   5.35503006       7.13999987       1.78501999    
 Ni   5.35542011       8.92459965       0.00000000    
 Ni   3.57001996       7.13999987       3.57002997    
 Ni   3.57008004       8.92498970       5.35501003    
 Ni   5.35500002       7.13999987       5.35494995    
 Ni   5.35502005       8.92502022       3.57001996    
 Ni   3.57014990       7.13999987       7.13999987    
 Ni   3.57008004       8.92498970       8.92498970    
 Ni   5.35500002       7.13999987       8.92504978    
 Ni   5.35500002       8.92504978       7.13999987    
 Ni   3.57001996       7.13999987       10.7099705    
 Ni   3.57001996       8.92512035       12.4949799    
 Ni   5.35503006       7.13999987       12.4949799    
 Ni   5.35502005       8.92502022       10.7099800    
 Ni   3.57061005       10.7092695       0.00000000    
 Ni   3.57535005       12.4896498       1.79034996    
 Ni   5.35480022       10.7102003       1.78478003    
 Ni   5.35573006       12.4943895       0.00000000    
 Ni   3.56978011       10.7102003       3.56979990    
 Ni   3.57001996       12.4949799       5.35487986    
 Ni   5.35502005       10.7099800       5.35497999    
 Ni   5.35480022       12.4952202       3.56979990    
 Ni   3.57001996       10.7099705       7.13999987    
 Ni   3.57001996       12.4949799       8.92512035    
 Ni   5.35502005       10.7099800       8.92502022    
 Ni   5.35503006       12.4949799       7.13999987    
 Ni   3.56978011       10.7102003       10.7102003    
 Ni   3.57535005       12.4896498       12.4896498    
 Ni   5.35480022       10.7102003       12.4952202    
 Ni   5.35480022       12.4952202       10.7102003    
 Ni   7.14032984      -0.00000000       0.00000000    
 Ni   7.13988018       1.78501999       1.78501999    
 Ni   8.92500019      -0.00000000       1.78506994    
 Ni   8.92500019       1.78506994       0.00000000    
 Ni   7.14039993      -0.00000000       3.57042003    
 Ni   7.14000988       1.78507996       5.35501003    
 Ni   8.92500019      -0.00000000       5.35516024    
 Ni   8.92500019       1.78501999       3.57002997    
 Ni   7.14016008      -0.00000000       7.13999987    
 Ni   7.14000988       1.78507996       8.92498970    
 Ni   8.92500019      -0.00000000       8.92483997    
 Ni   8.92500019       1.78515005       7.13999987    
 Ni   7.14039993      -0.00000000       10.7095804    
 Ni   7.13988018       1.78501999       12.4949799    
 Ni   8.92500019      -0.00000000       12.4949303    
 Ni   8.92500019       1.78501999       10.7099705    
 Ni   7.14039993       3.57042003       0.00000000    
 Ni   7.14000988       5.35501003       1.78507996    
 Ni   8.92500019       3.57002997       1.78501999    
 Ni   8.92500019       5.35516024       0.00000000    
 Ni   7.13997984       3.57001996       3.57001996    
 Ni   7.14002991       5.35503006       5.35503006    
 Ni   8.92500019       3.56999993       5.35494995    
 Ni   8.92500019       5.35494995       3.56999993    
 Ni   7.13994980       3.56999993       7.13999987    
 Ni   7.14002991       5.35503006       8.92496967    
 Ni   8.92500019       3.56999993       8.92504978    
 Ni   8.92500019       5.35495996       7.13999987    
 Ni   7.13997984       3.57001996       10.7099800    
 Ni   7.14000988       5.35501003       12.4949198    
 Ni   8.92500019       3.57002997       12.4949799    
 Ni   8.92500019       5.35494995       10.7100000    
 Ni   7.14016008       7.13999987       0.00000000    
 Ni   7.14000988       8.92498970       1.78507996    
 Ni   8.92500019       7.13999987       1.78515005    
 Ni   8.92500019       8.92483997       0.00000000    
 Ni   7.13994980       7.13999987       3.56999993    
 Ni   7.14002991       8.92496967       5.35503006    
 Ni   8.92500019       7.13999987       5.35495996    
 Ni   8.92500019       8.92504978       3.56999993    
 Ni   7.13995981       7.13999987       7.13999987    
 Ni   7.14002991       8.92496967       8.92496967    
 Ni   8.92500019       7.13999987       8.92504025    
 Ni   8.92500019       8.92504025       7.13999987    
 Ni   7.13994980       7.13999987       10.7100000    
 Ni   7.14000988       8.92498970       12.4949198    
 Ni   8.92500019       7.13999987       12.4948502    
 Ni   8.92500019       8.92504978       10.7100000    
 Ni   7.14039993       10.7095804       0.00000000    
 Ni   7.13988018       12.4949799       1.78501999    
 Ni   8.92500019       10.7099705       1.78501999    
 Ni   8.92500019       12.4949303       0.00000000    
 Ni   7.13997984       10.7099800       3.57001996    
 Ni   7.14000988       12.4949198       5.35501003    
 Ni   8.92500019       10.7100000       5.35494995    
 Ni   8.92500019       12.4949799       3.57002997    
 Ni   7.13994980       10.7100000       7.13999987    
 Ni   7.14000988       12.4949198       8.92498970    
 Ni   8.92500019       10.7100000       8.92504978    
 Ni   8.92500019       12.4948502       7.13999987    
 Ni   7.13997984       10.7099800       10.7099800    
 Ni   7.13988018       12.4949799       12.4949799    
 Ni   8.92500019       10.7099705       12.4949799    
 Ni   8.92500019       12.4949799       10.7099705    
 Ni   10.7096701      -0.00000000       0.00000000    
 Ni   10.7101202       1.78501999       1.78501999    
 Ni   12.4942703      -0.00000000       1.78560996    
 Ni   12.4942703       1.78560996       0.00000000    
 Ni   10.7096004      -0.00000000       3.57042003    
 Ni   10.7099895       1.78507996       5.35501003    
 Ni   12.4945803      -0.00000000       5.35540009    
 Ni   12.4952002       1.78478003       3.56979990    
 Ni   10.7098398      -0.00000000       7.13999987    
 Ni   10.7099895       1.78507996       8.92498970    
 Ni   12.4945803      -0.00000000       8.92459965    
 Ni   12.4949703       1.78501999       7.13999987    
 Ni   10.7096004      -0.00000000       10.7095804    
 Ni   10.7101202       1.78501999       12.4949799    
 Ni   12.4942703      -0.00000000       12.4943895    
 Ni   12.4952002       1.78478003       10.7102003    
 Ni   10.7096004       3.57042003       0.00000000    
 Ni   10.7099895       5.35501003       1.78507996    
 Ni   12.4952002       3.56979990       1.78478003    
 Ni   12.4945803       5.35540009       0.00000000    
 Ni   10.7100201       3.57001996       3.57001996    
 Ni   10.7099705       5.35503006       5.35503006    
 Ni   12.4949799       3.57001996       5.35497999    
 Ni   12.4949799       5.35497999       3.57001996    
 Ni   10.7100496       3.56999993       7.13999987    
 Ni   10.7099705       5.35503006       8.92496967    
 Ni   12.4949799       3.57001996       8.92502022    
 Ni   12.4949999       5.35494995       7.13999987    
 Ni   10.7100201       3.57001996       10.7099800    
 Ni   10.7099895       5.35501003       12.4949198    
 Ni   12.4952002       3.56979990       12.4952202    
 Ni   12.4949799       5.35497999       10.7099800    
 Ni   10.7098398       7.13999987       0.00000000    
 Ni   10.7099895       8.92498970       1.78507996    
 Ni   12.4949703       7.13999987       1.78501999    
 Ni   12.4945803       8.92459965       0.00000000    
 Ni   10.7100496       7.13999987       3.56999993    
 Ni   10.7099705       8.92496967       5.35503006    
 Ni   12.4949999       7.13999987       5.35494995    
 Ni   12.4949799       8.92502022       3.57001996    
 Ni   10.7100401       7.13999987       7.13999987    
 Ni   10.7099705       8.92496967       8.92496967    
 Ni   12.4949999       7.13999987       8.92504978    
 Ni   12.4949999       8.92504978       7.13999987    
 Ni   10.7100496       7.13999987       10.7100000    
 Ni   10.7099895       8.92498970       12.4949198    
 Ni   12.4949703       7.13999987       12.4949799    
 Ni   12.4949799       8.92502022       10.7099800    
 Ni   10.7096004       10.7095804       0.00000000    
 Ni   10.7101202       12.4949799       1.78501999    
 Ni   12.4952002       10.7102003       1.78478003    
 Ni   12.4942703       12.4943895       0.00000000    
 Ni   10.7100201       10.7099800       3.57001996    
 Ni   10.7099895       12.4949198       5.35501003    
 Ni   12.4949799       10.7099800       5.35497999    
 Ni   12.4952002       12.4952202       3.56979990    
 Ni   10.7100496       10.7100000       7.13999987    
 Ni   10.7099895       12.4949198       8.92498970    
 Ni   12.4949799       10.7099800       8.92502022    
 Ni   12.4949703       12.4949799       7.13999987    
 Ni   10.7100201       10.7099800       10.7099800    
 Ni   10.7101202       12.4949799       12.4949799    
 Ni   12.4952002       10.7102003       12.4952202    
 Ni   12.4952002       12.4952202       10.7102003    
 N    1.78499997      -0.00000000       0.00000000    
         265
 Energy:  -1363.8530582000001     
 X   0.00000000       0.00000000       0.00000000    
 X   14.2799997       0.00000000       0.00000000    
 X   0.00000000       14.2799997       0.00000000    
 X   0.00000000       0.00000000       14.2799997    
 X   14.2799997       14.2799997       0.00000000    
 X   14.2799997       0.00000000       14.2799997    
 X   0.00000000       14.2799997       14.2799997    
 X   14.2799997       14.2799997       14.2799997    
 Ni  -7.47900009E-02  -0.00000000       0.00000000    
 Ni  -1.34300003E-02   1.79842997       1.79842997    
 Ni   1.78499997      -0.00000000       1.85978997    
 Ni   1.78499997       1.85978997       0.00000000    
 Ni  -1.52000005E-03  -0.00000000       3.57182002    