         265
 Energy:  -1363.9281481000000     
 X   0.00000000       0.00000000       0.00000000    
 X   14.2799997       0.00000000       0.00000000    
 X   0.00000000       14.2799997       0.00000000    
 X   0.00000000       0.00000000       14.2799997    
 X   14.2799997       14.2799997       0.00000000    
 X   14.2799997       0.00000000       14.2799997    
 X   0.00000000       14.2799997       14.2799997    
 X   14.2799997       14.2799997       14.2799997    
 Ni  -6.55099973E-02  -0.00000000       0.00000000    
 Ni  -3.62000018E-02   1.82120001       1.82120001    
 Ni   1.78499997      -0.00000000       1.85051000    
 Ni   1.78499997       1.85051000       0.00000000    
 Ni  -1.26900002E-02  -0.00000000       3.58274007    
 Ni  -2.58000009E-03   1.78758001       5.35784006    
 Ni   1.78499997      -0.00000000       5.35659981    
 Ni   1.78499997       1.79769003       3.58274007    
 Ni  -1.09000003E-03  -0.00000000       7.13999987    
 Ni  -2.58000009E-03   1.78758001       8.92216015    
 Ni   1.78499997      -0.00000000       8.92339993    
 Ni   1.78499997       1.78609002       7.13999987    
 Ni  -1.26900002E-02  -0.00000000       10.6972599    
 Ni  -3.62000018E-02   1.82120001       12.4588003    
 Ni   1.78499997      -0.00000000       12.4294901    
 Ni   1.78499997       1.79769003       10.6972599    
 Ni  -1.26900002E-02   3.58274007       0.00000000    
 Ni  -2.58000009E-03   5.35784006       1.78758001    
 Ni   1.78499997       3.58274007       1.79769003    
 Ni   1.78499997       5.35659981       0.00000000    
 Ni  -2.70999991E-03   3.58017993       3.58017993    
 Ni  -2.85000005E-03   5.35859013       5.35859013    
 Ni   1.78499997       3.57765007       5.36282015    
 Ni   1.78499997       5.36282015       3.57765007    
 Ni  -2.25999998E-03   3.57224011       7.13999987    
 Ni  -2.85000005E-03   5.35859013       8.92140961    
 Ni   1.78499997       3.57765007       8.91718006    
 Ni   1.78499997       5.35925007       7.13999987    
 Ni  -2.70999991E-03   3.58017993       10.6998196    
 Ni  -2.58000009E-03   5.35784006       12.4924202    
 Ni   1.78499997       3.58274007       12.4823103    
 Ni   1.78499997       5.36282015       10.7023497    
 Ni  -1.09000003E-03   7.13999987       0.00000000    
 Ni  -2.58000009E-03   8.92216015       1.78758001    
 Ni   1.78499997       7.13999987       1.78609002    
 Ni   1.78499997       8.92339993       0.00000000    
 Ni  -2.25999998E-03   7.13999987       3.57224011    
 Ni  -2.85000005E-03   8.92140961       5.35859013    
 Ni   1.78499997       7.13999987       5.35925007    
 Ni   1.78499997       8.91718006       3.57765007    
 Ni  -3.64000001E-03   7.13999987       7.13999987    
 Ni  -2.85000005E-03   8.92140961       8.92140961    
 Ni   1.78499997       7.13999987       8.92074966    
 Ni   1.78499997       8.92074966       7.13999987    
 Ni  -2.25999998E-03   7.13999987       10.7077599    
 Ni  -2.58000009E-03   8.92216015       12.4924202    
 Ni   1.78499997       7.13999987       12.4939098    
 Ni   1.78499997       8.91718006       10.7023497    
 Ni  -1.26900002E-02   10.6972599       0.00000000    
 Ni  -3.62000018E-02   12.4588003       1.82120001    
 Ni   1.78499997       10.6972599       1.79769003    
 Ni   1.78499997       12.4294901       0.00000000    
 Ni  -2.70999991E-03   10.6998196       3.58017993    
 Ni  -2.58000009E-03   12.4924202       5.35784006    
 Ni   1.78499997       10.7023497       5.36282015    
 Ni   1.78499997       12.4823103       3.58274007    
 Ni  -2.25999998E-03   10.7077599       7.13999987    
 Ni  -2.58000009E-03   12.4924202       8.92216015    
 Ni   1.78499997       10.7023497       8.91718006    
 Ni   1.78499997       12.4939098       7.13999987    
 Ni  -2.70999991E-03   10.6998196       10.6998196    
 Ni  -3.62000018E-02   12.4588003       12.4588003    
 Ni   1.78499997       10.6972599       12.4823103    
 Ni   1.78499997       12.4823103       10.6972599    
 Ni   3.63550997      -0.00000000       0.00000000    
 Ni   3.60619998       1.82120001       1.82120001    
 Ni   5.36774015      -0.00000000       1.79769003    
 Ni   5.36774015       1.79769003       0.00000000    
 Ni   3.58269000      -0.00000000       3.58274007    
 Ni   3.57258010       1.78758001       5.35784006    
 Ni   5.36264992      -0.00000000       5.36282015    
 Ni   5.36518002       1.78770995       3.58017993    
 Ni   3.57108998      -0.00000000       7.13999987    
 Ni   3.57258010       1.78758001       8.92216015    
 Ni   5.36264992      -0.00000000       8.91718006    
 Ni   5.35724020       1.78726006       7.13999987    
 Ni   3.58269000      -0.00000000       10.6972599    
 Ni   3.60619998       1.82120001       12.4588003    
 Ni   5.36774015      -0.00000000       12.4823103    
 Ni   5.36518002       1.78770995       10.6998196    
 Ni   3.58269000       3.58274007       0.00000000    
 Ni   3.57258010       5.35784006       1.78758001    
 Ni   5.36518002       3.58017993       1.78770995    
 Ni   5.36264992       5.36282015       0.00000000    
 Ni   3.57271004       3.58017993       3.58017993    
 Ni   3.57284999       5.35859013       5.35859013    
 Ni   5.35832977       3.57332993       5.35797024    
 Ni   5.35832977       5.35797024       3.57332993    
 Ni   3.57225990       3.57224011       7.13999987    
 Ni   3.57284999       5.35859013       8.92140961    
 Ni   5.35832977       3.57332993       8.92203045    
 Ni   5.35754013       5.35627985       7.13999987    
 Ni   3.57271004       3.58017993       10.6998196    
 Ni   3.57258010       5.35784006       12.4924202    
 Ni   5.36518002       3.58017993       12.4922895    
 Ni   5.35832977       5.35797024       10.7066698    
 Ni   3.57108998       7.13999987       0.00000000    
 Ni   3.57258010       8.92216015       1.78758001    
 Ni   5.35724020       7.13999987       1.78726006    
 Ni   5.36264992       8.91718006       0.00000000    
 Ni   3.57225990       7.13999987       3.57224011    
 Ni   3.57284999       8.92140961       5.35859013    
 Ni   5.35754013       7.13999987       5.35627985    
 Ni   5.35832977       8.92203045       3.57332993    
 Ni   3.57364011       7.13999987       7.13999987    
 Ni   3.57284999       8.92140961       8.92140961    
 Ni   5.35754013       7.13999987       8.92372036    
 Ni   5.35754013       8.92372036       7.13999987    
 Ni   3.57225990       7.13999987       10.7077599    
 Ni   3.57258010       8.92216015       12.4924202    
 Ni   5.35724020       7.13999987       12.4927397    
 Ni   5.35832977       8.92203045       10.7066698    
 Ni   3.58269000       10.6972599       0.00000000    
 Ni   3.60619998       12.4588003       1.82120001    
 Ni   5.36518002       10.6998196       1.78770995    
 Ni   5.36774015       12.4823103       0.00000000    
 Ni   3.57271004       10.6998196       3.58017993    
 Ni   3.57258010       12.4924202       5.35784006    
 Ni   5.35832977       10.7066698       5.35797024    
 Ni   5.36518002       12.4922895       3.58017993    
 Ni   3.57225990       10.7077599       7.13999987    
 Ni   3.57258010       12.4924202       8.92216015    
 Ni   5.35832977       10.7066698       8.92203045    
 Ni   5.35724020       12.4927397       7.13999987    
 Ni   3.57271004       10.6998196       10.6998196    
 Ni   3.60619998       12.4588003       12.4588003    
 Ni   5.36518002       10.6998196       12.4922895    
 Ni   5.36518002       12.4922895       10.6998196    
 Ni   7.14160013      -0.00000000       0.00000000    
 Ni   7.14283991       1.78758001       1.78758001    
 Ni   8.92500019      -0.00000000       1.78609002    
 Ni   8.92500019       1.78609002       0.00000000    
 Ni   7.14782000      -0.00000000       3.57765007    
 Ni   7.14358997       1.78785002       5.35859013    
 Ni   8.92500019      -0.00000000       5.35925007    
 Ni   8.92500019       1.78726006       3.57224011    
 Ni   7.14424992      -0.00000000       7.13999987    
 Ni   7.14358997       1.78785002       8.92140961    
 Ni   8.92500019      -0.00000000       8.92074966    
 Ni   8.92500019       1.78864002       7.13999987    
 Ni   7.14782000      -0.00000000       10.7023497    
 Ni   7.14283991       1.78758001       12.4924202    
 Ni   8.92500019      -0.00000000       12.4939098    
 Ni   8.92500019       1.78726006       10.7077599    
 Ni   7.14782000       3.57765007       0.00000000    
 Ni   7.14358997       5.35859013       1.78785002    
 Ni   8.92500019       3.57224011       1.78726006    
 Ni   8.92500019       5.35925007       0.00000000    
 Ni   7.14297009       3.57332993       3.57332993    
 Ni   7.14186001       5.35686016       5.35686016    
 Ni   8.92500019       3.57254004       5.35627985    
 Ni   8.92500019       5.35627985       3.57254004    
 Ni   7.14128017       3.57254004       7.13999987    
 Ni   7.14186001       5.35686016       8.92313957    
 Ni   8.92500019       3.57254004       8.92372036    
 Ni   8.92500019       5.35627985       7.13999987    
 Ni   7.14297009       3.57332993       10.7066698    
 Ni   7.14358997       5.35859013       12.4921503    
 Ni   8.92500019       3.57224011       12.4927397    
 Ni   8.92500019       5.35627985       10.7074604    
 Ni   7.14424992       7.13999987       0.00000000    
 Ni   7.14358997       8.92140961       1.78785002    
 Ni   8.92500019       7.13999987       1.78864002    
 Ni   8.92500019       8.92074966       0.00000000    
 Ni   7.14128017       7.13999987       3.57254004    
 Ni   7.14186001       8.92313957       5.35686016    
 Ni   8.92500019       7.13999987       5.35627985    
 Ni   8.92500019       8.92372036       3.57254004    
 Ni   7.14128017       7.13999987       7.13999987    
 Ni   7.14186001       8.92313957       8.92313957    
 Ni   8.92500019       7.13999987       8.92372036    
 Ni   8.92500019       8.92372036       7.13999987    
 Ni   7.14128017       7.13999987       10.7074604    
 Ni   7.14358997       8.92140961       12.4921503    
 Ni   8.92500019       7.13999987       12.4913597    
 Ni   8.92500019       8.92372036       10.7074604    
 Ni   7.14782000       10.7023497       0.00000000    
 Ni   7.14283991       12.4924202       1.78758001    
 Ni   8.92500019       10.7077599       1.78726006    
 Ni   8.92500019       12.4939098       0.00000000    
 Ni   7.14297009       10.7066698       3.57332993    
 Ni   7.14358997       12.4921503       5.35859013    
 Ni   8.92500019       10.7074604       5.35627985    
 Ni   8.92500019       12.4927397       3.57224011    
 Ni   7.14128017       10.7074604       7.13999987    
 Ni   7.14358997       12.4921503       8.92140961    
 Ni   8.92500019       10.7074604       8.92372036    
 Ni   8.92500019       12.4913597       7.13999987    
 Ni   7.14297009       10.7066698       10.7066698    
 Ni   7.14283991       12.4924202       12.4924202    
 Ni   8.92500019       10.7077599       12.4927397    
 Ni   8.92500019       12.4927397       10.7077599    
 Ni   10.7083998      -0.00000000       0.00000000    
 Ni   10.7071600       1.78758001       1.78758001    
 Ni   12.4822598      -0.00000000       1.79769003    
 Ni   12.4822598       1.79769003       0.00000000    
 Ni   10.7021799      -0.00000000       3.57765007    
 Ni   10.7064104       1.78785002       5.35859013    
 Ni   12.4873505      -0.00000000       5.36282015    
 Ni   12.4848204       1.78770995       3.58017993    
 Ni   10.7057505      -0.00000000       7.13999987    
 Ni   10.7064104       1.78785002       8.92140961    
 Ni   12.4873505      -0.00000000       8.91718006    
 Ni   12.4927597       1.78726006       7.13999987    
 Ni   10.7021799      -0.00000000       10.7023497    
 Ni   10.7071600       1.78758001       12.4924202    
 Ni   12.4822598      -0.00000000       12.4823103    
 Ni   12.4848204       1.78770995       10.6998196    
 Ni   10.7021799       3.57765007       0.00000000    
 Ni   10.7064104       5.35859013       1.78785002    
 Ni   12.4848204       3.58017993       1.78770995    
 Ni   12.4873505       5.36282015       0.00000000    
 Ni   10.7070303       3.57332993       3.57332993    
 Ni   10.7081404       5.35686016       5.35686016    
 Ni   12.4916697       3.57332993       5.35797024    
 Ni   12.4916697       5.35797024       3.57332993    
 Ni   10.7087202       3.57254004       7.13999987    
 Ni   10.7081404       5.35686016       8.92313957    
 Ni   12.4916697       3.57332993       8.92203045    
 Ni   12.4924603       5.35627985       7.13999987    
 Ni   10.7070303       3.57332993       10.7066698    
 Ni   10.7064104       5.35859013       12.4921503    
 Ni   12.4848204       3.58017993       12.4922895    
 Ni   12.4916697       5.35797024       10.7066698    
 Ni   10.7057505       7.13999987       0.00000000    
 Ni   10.7064104       8.92140961       1.78785002    
 Ni   12.4927597       7.13999987       1.78726006    
 Ni   12.4873505       8.91718006       0.00000000    
 Ni   10.7087202       7.13999987       3.57254004    
 Ni   10.7081404       8.92313957       5.35686016    
 Ni   12.4924603       7.13999987       5.35627985    
 Ni   12.4916697       8.92203045       3.57332993    
 Ni   10.7087202       7.13999987       7.13999987    
 Ni   10.7081404       8.92313957       8.92313957    
 Ni   12.4924603       7.13999987       8.92372036    
 Ni   12.4924603       8.92372036       7.13999987    
 Ni   10.7087202       7.13999987       10.7074604    
 Ni   10.7064104       8.92140961       12.4921503    
 Ni   12.4927597       7.13999987       12.4927397    
 Ni   12.4916697       8.92203045       10.7066698    
 Ni   10.7021799       10.7023497       0.00000000    
 Ni   10.7071600       12.4924202       1.78758001    
 Ni   12.4848204       10.6998196       1.78770995    
 Ni   12.4822598       12.4823103       0.00000000    
 Ni   10.7070303       10.7066698       3.57332993    
 Ni   10.7064104       12.4921503       5.35859013    
 Ni   12.4916697       10.7066698       5.35797024    
 Ni   12.4848204       12.4922895       3.58017993    
 Ni   10.7087202       10.7074604       7.13999987    
 Ni   10.7064104       12.4921503       8.92140961    
 Ni   12.4916697       10.7066698       8.92203045    
 Ni   12.4927597       12.4927397       7.13999987    
 Ni   10.7070303       10.7066698       10.7066698    
 Ni   10.7071600       12.4924202       12.4924202    
 Ni   12.4848204       10.6998196       12.4922895    
 Ni   12.4848204       12.4922895       10.6998196    
 N    1.78499997      -0.00000000       0.00000000    
