       N       E                     dE             d eps       ncg     rms          rms(c)
DAV:   1     0.190149600667E+05    0.19015E+05   -0.92907E+05 12576   0.133E+03
DAV:   2    -0.217894034692E+03   -0.19233E+05   -0.18500E+05 12336   0.419E+02
DAV:   3    -0.149484779546E+04   -0.12770E+04   -0.10423E+04 13584   0.116E+02
DAV:   4    -0.165254504838E+04   -0.15770E+03   -0.14117E+03 21780   0.401E+01
DAV:   5    -0.165675592354E+04   -0.42109E+01   -0.41302E+01 18588   0.673E+00    0.149E+02
DAV:   6    -0.148259201707E+04    0.17416E+03   -0.36010E+03 12684   0.943E+01    0.116E+02
DAV:   7    -0.171362503346E+04   -0.23103E+03   -0.65354E+02 14148   0.122E+02    0.211E+02
DAV:   8    -0.157597817191E+04    0.13765E+03   -0.39944E+02 13512   0.779E+01    0.150E+02
DAV:   9    -0.146592147160E+04    0.11006E+03   -0.13258E+02 14016   0.589E+01    0.104E+02
DAV:  10    -0.146718877014E+04   -0.12673E+01   -0.12490E+02 14724   0.575E+01    0.137E+02
DAV:  11    -0.146510211738E+04    0.20867E+01   -0.11712E+02 13896   0.476E+01    0.151E+02
DAV:  12    -0.140352584700E+04    0.61576E+02   -0.90152E+01 14496   0.332E+01    0.104E+02
DAV:  13    -0.138273927447E+04    0.20787E+02   -0.58200E+01 13776   0.359E+01    0.579E+01
DAV:  14    -0.138665150979E+04   -0.39122E+01   -0.30334E+01 13800   0.207E+01    0.700E+01
DAV:  15    -0.137496712194E+04    0.11684E+02   -0.19268E+01 12792   0.188E+01    0.477E+01
DAV:  16    -0.136948597135E+04    0.54812E+01   -0.51113E+00 13560   0.819E+00    0.338E+01
DAV:  17    -0.136754859012E+04    0.19374E+01   -0.19681E+00 16296   0.355E+00    0.293E+01
DAV:  18    -0.136702337583E+04    0.52521E+00   -0.56740E-01 14688   0.211E+00    0.280E+01
DAV:  19    -0.136764929616E+04   -0.62592E+00   -0.15576E+00 16056   0.470E+00    0.302E+01
DAV:  20    -0.136586661242E+04    0.17827E+01   -0.64096E-01 13920   0.303E+00    0.212E+01
DAV:  21    -0.136560153729E+04    0.26508E+00   -0.65153E-01 15516   0.274E+00    0.211E+01
DAV:  22    -0.136447652190E+04    0.11250E+01   -0.97717E-01 18924   0.351E+00    0.161E+01
DAV:  23    -0.136412957353E+04    0.34695E+00   -0.54109E-01 16740   0.268E+00    0.123E+01
DAV:  24    -0.136371891639E+04    0.41066E+00   -0.57691E-01 16284   0.271E+00    0.807E+00
DAV:  25    -0.136366699813E+04    0.51918E-01   -0.18429E-01 15756   0.994E-01    0.667E+00
DAV:  26    -0.136360212032E+04    0.64878E-01   -0.99373E-02 13464   0.109E+00    0.461E+00
DAV:  27    -0.136362303591E+04   -0.20916E-01   -0.74540E-02 14724   0.112E+00    0.470E+00
DAV:  28    -0.136358565521E+04    0.37381E-01   -0.71630E-02 14736   0.104E+00    0.463E+00
DAV:  29    -0.136356535575E+04    0.20299E-01   -0.76341E-02 17484   0.955E-01    0.385E+00
DAV:  30    -0.136354745623E+04    0.17900E-01   -0.42219E-02 15252   0.704E-01    0.257E+00
DAV:  31    -0.136352949940E+04    0.17957E-01   -0.19993E-02 14868   0.556E-01    0.129E+00
DAV:  32    -0.136352682731E+04    0.26721E-02   -0.99198E-03 16380   0.409E-01    0.110E+00
DAV:  33    -0.136352673016E+04    0.97146E-04   -0.77503E-03 14700   0.338E-01    0.959E-01
DAV:  34    -0.136352483769E+04    0.18925E-02   -0.17952E-03 14160   0.123E-01    0.669E-01
DAV:  35    -0.136352356788E+04    0.12698E-02   -0.63514E-04 15816   0.796E-02    0.344E-01
DAV:  36    -0.136352325070E+04    0.31718E-03   -0.47808E-04 22848   0.470E-02    0.150E-01
DAV:  37    -0.136352326600E+04   -0.15298E-04   -0.11995E-04 12828   0.245E-02    0.135E-01
DAV:  38    -0.136352323316E+04    0.32842E-04   -0.12271E-05  8832   0.105E-02    0.875E-02
DAV:  39    -0.136352322413E+04    0.90270E-05   -0.62914E-06  7128   0.758E-03    0.624E-02
DAV:  40    -0.136352321705E+04    0.70786E-05   -0.64750E-06  6996   0.102E-02    0.167E-02
DAV:  41    -0.136352321753E+04   -0.47809E-06   -0.83557E-06  7872   0.351E-03
   1 F= -.13635232E+04 E0= -.13627800E+04  d E =-.136352E+04
       N       E                     dE             d eps       ncg     rms          rms(c)
DAV:   1    -0.136368459237E+04   -0.16138E+00   -0.70817E+01 12336   0.751E+00    0.173E+00
DAV:   2    -0.136410919081E+04   -0.42460E+00   -0.10236E+00 13848   0.301E+00    0.832E+00
DAV:   3    -0.136388758253E+04    0.22161E+00   -0.56865E-01 13398   0.302E+00    0.655E+00
DAV:   4    -0.136382131835E+04    0.66264E-01   -0.20759E-01 14148   0.151E+00    0.485E+00
DAV:   5    -0.136380457913E+04    0.16739E-01   -0.13244E-01 14484   0.114E+00    0.388E+00
DAV:   6    -0.136382710632E+04   -0.22527E-01   -0.10826E-01 14772   0.133E+00    0.405E+00
DAV:   7    -0.136382898478E+04   -0.18785E-02   -0.86081E-02 14136   0.125E+00    0.487E+00
DAV:   8    -0.136376489733E+04    0.64087E-01   -0.44605E-02 13944   0.890E-01    0.119E+00
DAV:   9    -0.136376090658E+04    0.39907E-02   -0.11687E-02 14340   0.435E-01    0.796E-01
DAV:  10    -0.136376439764E+04   -0.34911E-02   -0.74617E-03 14016   0.381E-01    0.122E+00
DAV:  11    -0.136375865205E+04    0.57456E-02   -0.55288E-03 14040   0.340E-01    0.275E-01
DAV:  12    -0.136376016115E+04   -0.15091E-02   -0.26142E-03 18132   0.213E-01    0.657E-01
DAV:  13    -0.136375862513E+04    0.15360E-02   -0.15190E-03 15684   0.181E-01    0.278E-01
DAV:  14    -0.136375835794E+04    0.26719E-03   -0.35374E-04 14232   0.814E-02    0.117E-01
DAV:  15    -0.136375847427E+04   -0.11632E-03   -0.24818E-04 14412   0.628E-02    0.195E-01
DAV:  16    -0.136375831443E+04    0.15984E-03   -0.18324E-04 13836   0.574E-02    0.476E-02
DAV:  17    -0.136375831101E+04    0.34154E-05   -0.33981E-05 13452   0.207E-02
   2 F= -.13637583E+04 E0= -.13630144E+04  d E =-.235093E+00
       N       E                     dE             d eps       ncg     rms          rms(c)
DAV:   1    -0.136366253787E+04    0.95777E-01   -0.16222E+02 12336   0.114E+01    0.232E+00
DAV:   2    -0.136461957518E+04   -0.95704E+00   -0.24989E+00 13920   0.449E+00    0.124E+01
DAV:   3    -0.136416143441E+04    0.45814E+00   -0.13104E+00 13320   0.444E+00    0.102E+01
DAV:   4    -0.136397208388E+04    0.18935E+00   -0.45462E-01 14040   0.212E+00    0.671E+00
DAV:   5    -0.136390955867E+04    0.62525E-01   -0.23723E-01 14304   0.157E+00    0.429E+00
DAV:   6    -0.136396210805E+04   -0.52549E-01   -0.16126E-01 14592   0.168E+00    0.519E+00
DAV:   7    -0.136396479464E+04   -0.26866E-02   -0.13499E-01 14028   0.158E+00    0.612E+00
DAV:   8    -0.136386439218E+04    0.10040E+00   -0.71605E-02 13896   0.114E+00    0.161E+00
DAV:   9    -0.136385967760E+04    0.47146E-02   -0.23821E-02 14196   0.623E-01    0.129E+00
DAV:  10    -0.136386628100E+04   -0.66034E-02   -0.16579E-02 13896   0.569E-01    0.178E+00
DAV:  11    -0.136385382119E+04    0.12460E-01   -0.13799E-02 13872   0.507E-01    0.413E-01
DAV:  12    -0.136385763860E+04   -0.38174E-02   -0.63131E-03 18696   0.326E-01    0.104E+00
DAV:  13    -0.136385389450E+04    0.37441E-02   -0.37311E-03 16080   0.281E-01    0.449E-01
DAV:  14    -0.136385315827E+04    0.73623E-03   -0.89667E-04 14232   0.125E-01    0.160E-01
DAV:  15    -0.136385340139E+04   -0.24312E-03   -0.53450E-04 14280   0.879E-02    0.282E-01
DAV:  16    -0.136385308381E+04    0.31758E-03   -0.37226E-04 13440   0.828E-02    0.781E-02
DAV:  17    -0.136385307974E+04    0.40692E-05   -0.93300E-05 16680   0.341E-02    0.753E-02
DAV:  18    -0.136385306016E+04    0.19582E-04   -0.37151E-05 12588   0.224E-02    0.377E-02
DAV:  19    -0.136385305823E+04    0.19248E-05   -0.17322E-05  9972   0.172E-02
   3 F= -.13638531E+04 E0= -.13631083E+04  d E =-.329841E+00
       N       E                     dE             d eps       ncg     rms          rms(c)
DAV:   1    -0.136385373350E+04   -0.67335E-03   -0.42902E+00 12348   0.187E+00    0.299E-01
DAV:   2    -0.136387244777E+04   -0.18714E-01   -0.45907E-02 13728   0.570E-01    0.207E+00
DAV:   3    -0.136386380806E+04    0.86397E-02   -0.22128E-02 13152   0.533E-01    0.155E+00
DAV:   4    -0.136385836089E+04    0.54472E-02   -0.79936E-03 13632   0.303E-01    0.627E-01
DAV:   5    -0.136385883414E+04   -0.47326E-03   -0.32872E-03 15420   0.208E-01    0.725E-01
DAV:   6    -0.136385997024E+04   -0.11361E-02   -0.32638E-03 14820   0.250E-01    0.821E-01
DAV:   7    -0.136385901763E+04    0.95261E-03   -0.25182E-03 14496   0.229E-01    0.750E-01
DAV:   8    -0.136385739848E+04    0.16192E-02   -0.11882E-03 14292   0.154E-01    0.195E-01
DAV:   9    -0.136385747699E+04   -0.78505E-04   -0.49470E-04 15216   0.971E-02    0.246E-01
DAV:  10    -0.136385739158E+04    0.85407E-04   -0.28960E-04 14136   0.815E-02    0.205E-01
DAV:  11    -0.136385723068E+04    0.16090E-03   -0.14145E-04 14148   0.598E-02    0.546E-02
DAV:  12    -0.136385732194E+04   -0.91261E-04   -0.11638E-04 17808   0.464E-02    0.151E-01
DAV:  13    -0.136385722463E+04    0.97313E-04   -0.81845E-05 15696   0.422E-02    0.252E-02
DAV:  14    -0.136385722638E+04   -0.17470E-05   -0.11881E-05  7536   0.138E-02
   4 F= -.13638572E+04 E0= -.13631126E+04  d E =-.334009E+00
       N       E                     dE             d eps       ncg     rms          rms(c)
DAV:   1    -0.136387341324E+04   -0.16189E-01   -0.79795E+00 12348   0.282E+00    0.422E-01
DAV:   2    -0.136400252249E+04   -0.12911E+00   -0.13087E-01 13200   0.124E+00    0.617E+00
DAV:   3    -0.136389889137E+04    0.10363E+00   -0.11334E-01 13236   0.117E+00    0.259E+00
DAV:   4    -0.136388138436E+04    0.17507E-01   -0.23499E-02 13536   0.472E-01    0.817E-01
DAV:   5    -0.136388199100E+04   -0.60664E-03   -0.74483E-03 13968   0.310E-01    0.887E-01
DAV:   6    -0.136388649854E+04   -0.45075E-02   -0.74956E-03 14124   0.343E-01    0.150E+00
DAV:   7    -0.136388113835E+04    0.53602E-02   -0.52670E-03 13824   0.311E-01    0.630E-01
DAV:   8    -0.136387976918E+04    0.13692E-02   -0.13082E-03 13740   0.175E-01    0.241E-01
DAV:   9    -0.136387996723E+04   -0.19805E-03   -0.72989E-04 14124   0.123E-01    0.310E-01
DAV:  10    -0.136387975822E+04    0.20900E-03   -0.52727E-04 13404   0.107E-01    0.218E-01
DAV:  11    -0.136387956663E+04    0.19159E-03   -0.19912E-04 13272   0.665E-02    0.671E-02
DAV:  12    -0.136387958696E+04   -0.20325E-04   -0.83294E-05 14616   0.350E-02    0.953E-02
DAV:  13    -0.136387956366E+04    0.23291E-04   -0.52305E-05 13440   0.298E-02    0.526E-02
DAV:  14    -0.136387955464E+04    0.90288E-05   -0.19147E-05 10404   0.184E-02    0.252E-02
DAV:  15    -0.136387956584E+04   -0.11200E-04   -0.11789E-05  7236   0.162E-02    0.558E-02
DAV:  16    -0.136387955387E+04    0.11963E-04   -0.97171E-06  6732   0.155E-02    0.107E-02
DAV:  17    -0.136387955422E+04   -0.34238E-06   -0.25500E-06  6384   0.644E-03
   5 F= -.13638796E+04 E0= -.13631349E+04  d E =-.223278E-01
       N       E                     dE             d eps       ncg     rms          rms(c)
DAV:   1    -0.136384403727E+04    0.35517E-01   -0.71797E+01 12348   0.846E+00    0.135E+00
DAV:   2    -0.136500900404E+04   -0.11650E+01   -0.13669E+00 13224   0.392E+00    0.166E+01
DAV:   3    -0.136411033009E+04    0.89867E+00   -0.77626E-01 13188   0.372E+00    0.832E+00
DAV:   4    -0.136393224296E+04    0.17809E+00   -0.27287E-01 13464   0.152E+00    0.260E+00
DAV:   5    -0.136393529998E+04   -0.30570E-02   -0.80757E-02 14652   0.970E-01    0.265E+00
DAV:   6    -0.136398660788E+04   -0.51308E-01   -0.82214E-02 14400   0.106E+00    0.491E+00
DAV:   7    -0.136392784031E+04    0.58768E-01   -0.63431E-02 14172   0.984E-01    0.189E+00
DAV:   8    -0.136391549129E+04    0.12349E-01   -0.16348E-02 14016   0.499E-01    0.641E-01
DAV:   9    -0.136391904140E+04   -0.35501E-02   -0.71694E-03 14220   0.379E-01    0.110E+00
DAV:  10    -0.136391527932E+04    0.37621E-02   -0.57618E-03 13788   0.339E-01    0.536E-01
DAV:  11    -0.136391416418E+04    0.11151E-02   -0.15921E-03 13632   0.178E-01    0.238E-01
DAV:  12    -0.136391435073E+04   -0.18655E-03   -0.82153E-04 14400   0.116E-01    0.301E-01
DAV:  13    -0.136391412926E+04    0.22147E-03   -0.57465E-04 13824   0.100E-01    0.184E-01
DAV:  14    -0.136391401113E+04    0.11813E-03   -0.23493E-04 13584   0.631E-02    0.812E-02
DAV:  15    -0.136391415106E+04   -0.13992E-03   -0.15733E-04 14988   0.556E-02    0.198E-01
DAV:  16    -0.136391400635E+04    0.14470E-03   -0.12071E-04 14220   0.535E-02    0.506E-02
DAV:  17    -0.136391400571E+04    0.64578E-06   -0.28430E-05 12072   0.205E-02
   6 F= -.13639140E+04 E0= -.13631691E+04  d E =-.567793E-01
       N       E                     dE             d eps       ncg     rms          rms(c)
DAV:   1    -0.136391262947E+04    0.13769E-02   -0.28429E+00 12348   0.168E+00    0.247E-01
DAV:   2    -0.136395741048E+04   -0.44781E-01   -0.41888E-02 13152   0.729E-01    0.369E+00
DAV:   3    -0.136392158665E+04    0.35824E-01   -0.36516E-02 13200   0.685E-01    0.153E+00
DAV:   4    -0.136391547808E+04    0.61086E-02   -0.79016E-03 13488   0.280E-01    0.492E-01
DAV:   5    -0.136391563176E+04   -0.15368E-03   -0.23194E-03 14064   0.182E-01    0.515E-01
DAV:   6    -0.136391727856E+04   -0.16468E-02   -0.24981E-03 14028   0.202E-01    0.898E-01
DAV:   7    -0.136391533651E+04    0.19421E-02   -0.16699E-03 13860   0.183E-01    0.359E-01
DAV:   8    -0.136391489116E+04    0.44535E-03   -0.42617E-04 13680   0.101E-01    0.137E-01
DAV:   9    -0.136391497584E+04   -0.84679E-04   -0.24886E-04 14172   0.722E-02    0.188E-01
DAV:  10    -0.136391488771E+04    0.88131E-04   -0.18092E-04 13464   0.631E-02    0.122E-01
DAV:  11    -0.136391482801E+04    0.59696E-04   -0.65281E-05 13380   0.375E-02    0.388E-02
DAV:  12    -0.136391483571E+04   -0.77005E-05   -0.25582E-05 12240   0.209E-02    0.566E-02
DAV:  13    -0.136391482822E+04    0.74953E-05   -0.19309E-05 10620   0.182E-02    0.331E-02
DAV:  14    -0.136391482437E+04    0.38471E-05   -0.69491E-06  6396   0.113E-02
   7 F= -.13639148E+04 E0= -.13631699E+04  d E =-.575980E-01
       N       E                     dE             d eps       ncg     rms          rms(c)
DAV:   1    -0.136391763560E+04   -0.28074E-02   -0.48111E+00 12336   0.227E+00    0.383E-01
DAV:   2    -0.136416253178E+04   -0.24490E+00   -0.19190E-01 13368   0.144E+00    0.960E+00
DAV:   3    -0.136393388233E+04    0.22865E+00   -0.20878E-01 13392   0.136E+00    0.190E+00
DAV:   4    -0.136392189191E+04    0.11990E-01   -0.15639E-02 13800   0.394E-01    0.616E-01
DAV:   5    -0.136392896771E+04   -0.70758E-02   -0.86710E-03 14184   0.378E-01    0.155E+00
DAV:   6    -0.136392461926E+04    0.43484E-02   -0.85666E-03 13884   0.372E-01    0.102E+00
DAV:   7    -0.136392159646E+04    0.30228E-02   -0.26258E-03 13920   0.237E-01    0.344E-01
DAV:   8    -0.136392125201E+04    0.34445E-03   -0.83091E-04 13596   0.126E-01    0.192E-01
DAV:   9    -0.136392146204E+04   -0.21003E-03   -0.53140E-04 13980   0.102E-01    0.280E-01
DAV:  10    -0.136392114378E+04    0.31826E-03   -0.36812E-04 13584   0.888E-02    0.960E-02
DAV:  11    -0.136392111949E+04    0.24291E-04   -0.79575E-05 14772   0.344E-02    0.553E-02
DAV:  12    -0.136392116069E+04   -0.41193E-04   -0.57392E-05 14412   0.328E-02    0.108E-01
DAV:  13    -0.136392111492E+04    0.45767E-04   -0.42461E-05 13212   0.310E-02    0.250E-02
DAV:  14    -0.136392111587E+04   -0.95309E-06   -0.81599E-06  6756   0.118E-02
   8 F= -.13639211E+04 E0= -.13631761E+04  d E =-.629150E-02
       N       E                     dE             d eps       ncg     rms          rms(c)
DAV:   1    -0.136391091727E+04    0.10198E-01   -0.20406E+01 12336   0.468E+00    0.787E-01
DAV:   2    -0.136492209316E+04   -0.10112E+01   -0.75349E-01 13368   0.296E+00    0.190E+01
DAV:   3    -0.136398633240E+04    0.93576E+00   -0.53617E-01 13368   0.278E+00    0.421E+00
DAV:   4    -0.136392844769E+04    0.57885E-01   -0.77615E-02 13800   0.835E-01    0.109E+00
DAV:   5    -0.136396177058E+04   -0.33323E-01   -0.43101E-02 14244   0.772E-01    0.337E+00
DAV:   6    -0.136393962843E+04    0.22142E-01   -0.34509E-02 13860   0.757E-01    0.191E+00
DAV:   7    -0.136392832808E+04    0.11300E-01   -0.12497E-02 13824   0.486E-01    0.702E-01
DAV:   8    -0.136392691418E+04    0.14139E-02   -0.38127E-03 13968   0.261E-01    0.391E-01
DAV:   9    -0.136392772428E+04   -0.81010E-03   -0.22787E-03 13896   0.205E-01    0.560E-01
DAV:  10    -0.136392641656E+04    0.13077E-02   -0.15085E-03 13500   0.177E-01    0.159E-01
DAV:  11    -0.136392638057E+04    0.35994E-04   -0.34607E-04 15108   0.675E-02    0.127E-01
DAV:  12    -0.136392653831E+04   -0.15775E-03   -0.25612E-04 14592   0.665E-02    0.228E-01
DAV:  13    -0.136392634255E+04    0.19576E-03   -0.18430E-04 13908   0.622E-02    0.409E-02
DAV:  14    -0.136392636688E+04   -0.24324E-04   -0.48326E-05 15312   0.271E-02    0.892E-02
DAV:  15    -0.136392634824E+04    0.18638E-04   -0.33243E-05 12780   0.261E-02    0.484E-02
DAV:  16    -0.136392633950E+04    0.87337E-05   -0.12382E-05  7308   0.165E-02    0.183E-02
DAV:  17    -0.136392634347E+04   -0.39692E-05   -0.69587E-06  6456   0.109E-02
   9 F= -.13639263E+04 E0= -.13631809E+04  d E =-.115191E-01
       N       E                     dE             d eps       ncg     rms          rms(c)
DAV:   1    -0.136392625783E+04    0.81676E-04   -0.22408E+00 12348   0.157E+00    0.272E-01
DAV:   2    -0.136408133371E+04   -0.15508E+00   -0.10611E-01 13428   0.108E+00    0.808E+00
DAV:   3    -0.136393082819E+04    0.15051E+00   -0.13804E-01 13440   0.103E+00    0.680E-01
DAV:   4    -0.136392944285E+04    0.13853E-02   -0.59673E-03 14772   0.280E-01    0.738E-01
DAV:   5    -0.136393307065E+04   -0.36278E-02   -0.54452E-03 14028   0.296E-01    0.128E+00
DAV:   6    -0.136392850164E+04    0.45690E-02   -0.38225E-03 13764   0.273E-01    0.381E-01
DAV:   7    -0.136392809203E+04    0.40961E-03   -0.73462E-04 13728   0.114E-01    0.290E-01
DAV:   8    -0.136392798899E+04    0.10304E-03   -0.42453E-04 13896   0.839E-02    0.188E-01
DAV:   9    -0.136392797483E+04    0.14154E-04   -0.24928E-04 13368   0.668E-02    0.151E-01
DAV:  10    -0.136392787526E+04    0.99576E-04   -0.11592E-04 12792   0.511E-02    0.530E-02
DAV:  11    -0.136392787373E+04    0.15237E-05   -0.31678E-05 13152   0.219E-02
  10 F= -.13639279E+04 E0= -.13631823E+04  d E =-.153026E-02
       N       E                     dE             d eps       ncg     rms          rms(c)
DAV:   1    -0.136392675094E+04    0.11243E-02   -0.13909E+00 12348   0.124E+00    0.219E-01
DAV:   2    -0.136401563091E+04   -0.88880E-01   -0.58959E-02 13428   0.840E-01    0.606E+00
DAV:   3    -0.136393070322E+04    0.84928E-01   -0.68934E-02 13428   0.795E-01    0.747E-01
DAV:   4    -0.136392833243E+04    0.23708E-02   -0.38008E-03 13500   0.242E-01    0.439E-01
DAV:   5    -0.136393056543E+04   -0.22330E-02   -0.29788E-03 13740   0.227E-01    0.929E-01
DAV:   6    -0.136392874835E+04    0.18171E-02   -0.24879E-03 13752   0.218E-01    0.490E-01
DAV:   7    -0.136392795160E+04    0.79675E-03   -0.71757E-04 13560   0.128E-01    0.212E-01
DAV:   8    -0.136392789218E+04    0.59417E-04   -0.24097E-04 13872   0.624E-02    0.176E-01
DAV:   9    -0.136392790464E+04   -0.12461E-04   -0.16238E-04 13800   0.609E-02    0.145E-01
DAV:  10    -0.136392782735E+04    0.77297E-04   -0.10297E-04 13500   0.491E-02    0.691E-02
DAV:  11    -0.136392780986E+04    0.17485E-04   -0.27124E-05 12216   0.231E-02    0.279E-02
DAV:  12    -0.136392783002E+04   -0.20155E-04   -0.17188E-05 10116   0.200E-02    0.734E-02
DAV:  13    -0.136392781031E+04    0.19703E-04   -0.16564E-05  9000   0.200E-02    0.187E-02
DAV:  14    -0.136392781020E+04    0.11799E-06   -0.42856E-06  6372   0.861E-03
  11 F= -.13639278E+04 E0= -.13631822E+04  d E =-.146672E-02
       N       E                     dE             d eps       ncg     rms          rms(c)
DAV:   1    -0.136392246028E+04    0.53500E-02   -0.55621E+00 12336   0.248E+00    0.426E-01
DAV:   2    -0.136430563484E+04   -0.38317E+00   -0.27144E-01 13428   0.170E+00    0.128E+01
DAV:   3    -0.136393381502E+04    0.37182E+00   -0.32856E-01 13464   0.161E+00    0.109E+00
DAV:   4    -0.136393039421E+04    0.34208E-02   -0.15915E-02 14556   0.441E-01    0.118E+00
DAV:   5    -0.136394027217E+04   -0.98780E-02   -0.14823E-02 14136   0.472E-01    0.210E+00
DAV:   6    -0.136392827936E+04    0.11993E-01   -0.11059E-02 13848   0.440E-01    0.651E-01
DAV:   7    -0.136392699217E+04    0.12872E-02   -0.19937E-03 13704   0.187E-01    0.431E-01
DAV:   8    -0.136392679180E+04    0.20037E-03   -0.10933E-03 13980   0.135E-01    0.302E-01
DAV:   9    -0.136392675473E+04    0.37069E-04   -0.65004E-04 13536   0.107E-01    0.244E-01
DAV:  10    -0.136392649651E+04    0.25822E-03   -0.31496E-04 12828   0.826E-02    0.851E-02
DAV:  11    -0.136392649302E+04    0.34930E-05   -0.95072E-05 17364   0.352E-02    0.753E-02
DAV:  12    -0.136392652903E+04   -0.36010E-04   -0.64207E-05 15072   0.354E-02    0.113E-01
DAV:  13    -0.136392647914E+04    0.49888E-04   -0.44735E-05 13764   0.324E-02    0.274E-02
DAV:  14    -0.136392649014E+04   -0.11001E-04   -0.11950E-05  7812   0.167E-02    0.602E-02
DAV:  15    -0.136392647822E+04    0.11921E-04   -0.94905E-06  7020   0.153E-02    0.170E-02
DAV:  16    -0.136392647750E+04    0.72527E-06   -0.28418E-06  6348   0.703E-03
  12 F= -.13639265E+04 E0= -.13631807E+04  d E =-.134023E-03
       N       E                     dE             d eps       ncg     rms          rms(c)
DAV:   1    -0.136392539461E+04    0.10836E-02   -0.32856E+00 12342   0.190E+00    0.331E-01
DAV:   2    -0.136414918121E+04   -0.22379E+00   -0.18296E-01 13416   0.132E+00    0.943E+00
DAV:   3    -0.136393307164E+04    0.21611E+00   -0.24241E-01 13476   0.126E+00    0.907E-01
DAV:   4    -0.136392945748E+04    0.36142E-02   -0.84405E-03 14580   0.336E-01    0.775E-01
DAV:   5    -0.136393474830E+04   -0.52908E-02   -0.70471E-03 13920   0.346E-01    0.144E+00
DAV:   6    -0.136392862835E+04    0.61200E-02   -0.56964E-03 13728   0.329E-01    0.452E-01
DAV:   7    -0.136392800896E+04    0.61938E-03   -0.11302E-03 13536   0.142E-01    0.321E-01
DAV:   8    -0.136392796528E+04    0.43689E-04   -0.55910E-04 14016   0.931E-02    0.266E-01
DAV:   9    -0.136392794406E+04    0.21216E-04   -0.39432E-04 13872   0.837E-02    0.207E-01
DAV:  10    -0.136392777044E+04    0.17362E-03   -0.19105E-04 13056   0.652E-02    0.719E-02
DAV:  11    -0.136392775957E+04    0.10865E-04   -0.55179E-05 15708   0.285E-02    0.517E-02
DAV:  12    -0.136392778759E+04   -0.28022E-04   -0.37742E-05 14028   0.285E-02    0.915E-02
DAV:  13    -0.136392775483E+04    0.32764E-04   -0.30053E-05 12816   0.270E-02    0.260E-02
DAV:  14    -0.136392775559E+04   -0.76124E-06   -0.71797E-06  6564   0.118E-02
  13 F= -.13639278E+04 E0= -.13631821E+04  d E =-.141212E-02
       N       E                     dE             d eps       ncg     rms          rms(c)
DAV:   1    -0.136392745305E+04    0.30178E-03   -0.98233E-01 12366   0.104E+00    0.191E-01
DAV:   2    -0.136400496967E+04   -0.77517E-01   -0.50936E-02 13464   0.753E-01    0.573E+00
DAV:   3    -0.136392960571E+04    0.75364E-01   -0.61352E-02 13404   0.724E-01    0.503E-01
DAV:   4    -0.136392900887E+04    0.59684E-03   -0.30238E-03 15156   0.185E-01    0.578E-01
DAV:   5    -0.136393063014E+04   -0.16213E-02   -0.23883E-03 14844   0.206E-01    0.863E-01
DAV:   6    -0.136392852777E+04    0.21024E-02   -0.16083E-03 14136   0.195E-01    0.308E-01
DAV:   7    -0.136392824815E+04    0.27961E-03   -0.38554E-04 13896   0.841E-02    0.178E-01
DAV:   8    -0.136392820798E+04    0.40176E-04   -0.17141E-04 14016   0.570E-02    0.121E-01
DAV:   9    -0.136392823733E+04   -0.29346E-04   -0.12760E-04 13980   0.502E-02    0.139E-01
DAV:  10    -0.136392816169E+04    0.75639E-04   -0.69561E-05 13476   0.410E-02    0.440E-02
DAV:  11    -0.136392815528E+04    0.64033E-05   -0.15694E-05  9024   0.169E-02    0.248E-02
DAV:  12    -0.136392816461E+04   -0.93313E-05   -0.11821E-05  7440   0.158E-02    0.495E-02
DAV:  13    -0.136392815497E+04    0.96450E-05   -0.10666E-05  7128   0.153E-02    0.153E-02
DAV:  14    -0.136392815496E+04    0.89058E-08   -0.27628E-06  6240   0.673E-03
  14 F= -.13639282E+04 E0= -.13631826E+04  d E =-.399369E-03
       N       E                     dE             d eps       ncg     rms          rms(c)
DAV:   1    -0.136392808075E+04    0.74223E-04   -0.11102E-01 12384   0.350E-01    0.627E-02
DAV:   2    -0.136393598072E+04   -0.79000E-02   -0.43136E-03 13488   0.244E-01    0.181E+00
DAV:   3    -0.136392837706E+04    0.76037E-02   -0.35811E-03 13452   0.235E-01    0.210E-01
DAV:   4    -0.136392822711E+04    0.14995E-03   -0.29689E-04 14688   0.636E-02    0.164E-01
DAV:   5    -0.136392837390E+04   -0.14680E-03   -0.21700E-04 14580   0.637E-02    0.254E-01
DAV:   6    -0.136392822227E+04    0.15164E-03   -0.15204E-04 14016   0.609E-02    0.127E-01
DAV:   7    -0.136392817213E+04    0.50136E-04   -0.50668E-05 13308   0.321E-02    0.584E-02
DAV:   8    -0.136392816526E+04    0.68724E-05   -0.16470E-05  8496   0.179E-02    0.357E-02
DAV:   9    -0.136392817161E+04   -0.63533E-05   -0.12672E-05  7824   0.168E-02    0.491E-02
DAV:  10    -0.136392816204E+04    0.95664E-05   -0.92444E-06  6564   0.145E-02    0.131E-02
DAV:  11    -0.136392816159E+04    0.45393E-06   -0.20072E-06  6240   0.581E-03
  15 F= -.13639282E+04 E0= -.13631826E+04  d E =-.405999E-03
       N       E                     dE             d eps       ncg     rms          rms(c)
DAV:   1    -0.136392807107E+04    0.90973E-04   -0.71194E-02 12372   0.280E-01    0.394E-02
DAV:   2    -0.136392919416E+04   -0.11231E-02   -0.10102E-03 13620   0.105E-01    0.640E-01
DAV:   3    -0.136392824192E+04    0.95224E-03   -0.59624E-04 13416   0.101E-01    0.180E-01
DAV:   4    -0.136392815827E+04    0.83648E-04   -0.11251E-04 13464   0.387E-02    0.857E-02
DAV:   5    -0.136392817179E+04   -0.13517E-04   -0.63064E-05 14460   0.318E-02    0.963E-02
DAV:   6    -0.136392818680E+04   -0.15009E-04   -0.48403E-05 13632   0.340E-02    0.110E-01
DAV:   7    -0.136392815399E+04    0.32806E-04   -0.30189E-05 13188   0.285E-02    0.629E-02
DAV:   8    -0.136392814156E+04    0.12438E-04   -0.10063E-05  6900   0.156E-02    0.189E-02
DAV:   9    -0.136392814458E+04   -0.30210E-05   -0.51355E-06  6780   0.116E-02
  16 F= -.13639281E+04 E0= -.13631825E+04  d E =0.170133E-04
       N       E                     dE             d eps       ncg     rms          rms(c)
DAV:   1    -0.136392814126E+04    0.29479E-06   -0.57705E-03 12372   0.804E-02    0.215E-02
DAV:   2    -0.136392838171E+04   -0.24045E-03   -0.15822E-04 13200   0.605E-02    0.263E-01
DAV:   3    -0.136392818191E+04    0.19981E-03   -0.10474E-04 13188   0.547E-02    0.103E-01
DAV:   4    -0.136392815336E+04    0.28552E-04   -0.24041E-05 10512   0.221E-02    0.507E-02
DAV:   5    -0.136392814935E+04    0.40061E-05   -0.78152E-06  6864   0.120E-02    0.381E-02
DAV:   6    -0.136392814817E+04    0.11793E-05   -0.64126E-06  6444   0.111E-02
  17 F= -.13639281E+04 E0= -.13631825E+04  d E =0.134197E-04
