NiAl                                    
           1
    14.280000    0.000000    0.000000
     0.000000   14.280000    0.000000
     0.000000    0.000000   14.280000
   Ni   Al
 256   1
Direct configuration=     1
   0.00000000  0.00000000  0.00000000
   0.00000000  0.12500000  0.12500000
   0.12500000  0.00000000  0.12500000
   0.12500000  0.12500000  0.00000000
   0.00000000  0.00000000  0.25000000
   0.00000000  0.12500000  0.37500000
   0.12500000  0.00000000  0.37500000
   0.12500000  0.12500000  0.25000000
   0.00000000  0.00000000  0.50000000
   0.00000000  0.12500000  0.62500000
   0.12500000  0.00000000  0.62500000
   0.12500000  0.12500000  0.50000000
   0.00000000  0.00000000  0.75000000
   0.00000000  0.12500000  0.87500000
   0.12500000  0.00000000  0.87500000
   0.12500000  0.12500000  0.75000000
   0.00000000  0.25000000  0.00000000
   0.00000000  0.37500000  0.12500000
   0.12500000  0.25000000  0.12500000
   0.12500000  0.37500000  0.00000000
   0.00000000  0.25000000  0.25000000
   0.00000000  0.37500000  0.37500000
   0.12500000  0.25000000  0.37500000
   0.12500000  0.37500000  0.25000000
   0.00000000  0.25000000  0.50000000
   0.00000000  0.37500000  0.62500000
   0.12500000  0.25000000  0.62500000
   0.12500000  0.37500000  0.50000000
   0.00000000  0.25000000  0.75000000
   0.00000000  0.37500000  0.87500000
   0.12500000  0.25000000  0.87500000
   0.12500000  0.37500000  0.75000000
   0.00000000  0.50000000  0.00000000
   0.00000000  0.62500000  0.12500000
   0.12500000  0.50000000  0.12500000
   0.12500000  0.62500000  0.00000000
   0.00000000  0.50000000  0.25000000
   0.00000000  0.62500000  0.37500000
   0.12500000  0.50000000  0.37500000
   0.12500000  0.62500000  0.25000000
   0.00000000  0.50000000  0.50000000
   0.00000000  0.62500000  0.62500000
   0.12500000  0.50000000  0.62500000
   0.12500000  0.62500000  0.50000000
   0.00000000  0.50000000  0.75000000
   0.00000000  0.62500000  0.87500000
   0.12500000  0.50000000  0.87500000
   0.12500000  0.62500000  0.75000000
   0.00000000  0.75000000  0.00000000
   0.00000000  0.87500000  0.12500000
   0.12500000  0.75000000  0.12500000
   0.12500000  0.87500000  0.00000000
   0.00000000  0.75000000  0.25000000
   0.00000000  0.87500000  0.37500000
   0.12500000  0.75000000  0.37500000
   0.12500000  0.87500000  0.25000000
   0.00000000  0.75000000  0.50000000
   0.00000000  0.87500000  0.62500000
   0.12500000  0.75000000  0.62500000
   0.12500000  0.87500000  0.50000000
   0.00000000  0.75000000  0.75000000
   0.00000000  0.87500000  0.87500000
   0.12500000  0.75000000  0.87500000
   0.12500000  0.87500000  0.75000000
   0.25000000  0.00000000  0.00000000
   0.25000000  0.12500000  0.12500000
   0.37500000  0.00000000  0.12500000
   0.37500000  0.12500000  0.00000000
   0.25000000  0.00000000  0.25000000
   0.25000000  0.12500000  0.37500000
   0.37500000  0.00000000  0.37500000
   0.37500000  0.12500000  0.25000000
   0.25000000  0.00000000  0.50000000
   0.25000000  0.12500000  0.62500000
   0.37500000  0.00000000  0.62500000
   0.37500000  0.12500000  0.50000000
   0.25000000  0.00000000  0.75000000
   0.25000000  0.12500000  0.87500000
   0.37500000  0.00000000  0.87500000
   0.37500000  0.12500000  0.75000000
   0.25000000  0.25000000  0.00000000
   0.25000000  0.37500000  0.12500000
   0.37500000  0.25000000  0.12500000
   0.37500000  0.37500000  0.00000000
   0.25000000  0.25000000  0.25000000
   0.25000000  0.37500000  0.37500000
   0.37500000  0.25000000  0.37500000
   0.37500000  0.37500000  0.25000000
   0.25000000  0.25000000  0.50000000
   0.25000000  0.37500000  0.62500000
   0.37500000  0.25000000  0.62500000
   0.37500000  0.37500000  0.50000000
   0.25000000  0.25000000  0.75000000
   0.25000000  0.37500000  0.87500000
   0.37500000  0.25000000  0.87500000
   0.37500000  0.37500000  0.75000000
   0.25000000  0.50000000  0.00000000
   0.25000000  0.62500000  0.12500000
   0.37500000  0.50000000  0.12500000
   0.37500000  0.62500000  0.00000000
   0.25000000  0.50000000  0.25000000
   0.25000000  0.62500000  0.37500000
   0.37500000  0.50000000  0.37500000
   0.37500000  0.62500000  0.25000000
   0.25000000  0.50000000  0.50000000
   0.25000000  0.62500000  0.62500000
   0.37500000  0.50000000  0.62500000
   0.37500000  0.62500000  0.50000000
   0.25000000  0.50000000  0.75000000
   0.25000000  0.62500000  0.87500000
   0.37500000  0.50000000  0.87500000
   0.37500000  0.62500000  0.75000000
   0.25000000  0.75000000  0.00000000
   0.25000000  0.87500000  0.12500000
   0.37500000  0.75000000  0.12500000
   0.37500000  0.87500000  0.00000000
   0.25000000  0.75000000  0.25000000
   0.25000000  0.87500000  0.37500000
   0.37500000  0.75000000  0.37500000
   0.37500000  0.87500000  0.25000000
   0.25000000  0.75000000  0.50000000
   0.25000000  0.87500000  0.62500000
   0.37500000  0.75000000  0.62500000
   0.37500000  0.87500000  0.50000000
   0.25000000  0.75000000  0.75000000
   0.25000000  0.87500000  0.87500000
   0.37500000  0.75000000  0.87500000
   0.37500000  0.87500000  0.75000000
   0.50000000  0.00000000  0.00000000
   0.50000000  0.12500000  0.12500000
   0.62500000  0.00000000  0.12500000
   0.62500000  0.12500000  0.00000000
   0.50000000  0.00000000  0.25000000
   0.50000000  0.12500000  0.37500000
   0.62500000  0.00000000  0.37500000
   0.62500000  0.12500000  0.25000000
   0.50000000  0.00000000  0.50000000
   0.50000000  0.12500000  0.62500000
   0.62500000  0.00000000  0.62500000
   0.62500000  0.12500000  0.50000000
   0.50000000  0.00000000  0.75000000
   0.50000000  0.12500000  0.87500000
   0.62500000  0.00000000  0.87500000
   0.62500000  0.12500000  0.75000000
   0.50000000  0.25000000  0.00000000
   0.50000000  0.37500000  0.12500000
   0.62500000  0.25000000  0.12500000
   0.62500000  0.37500000  0.00000000
   0.50000000  0.25000000  0.25000000
   0.50000000  0.37500000  0.37500000
   0.62500000  0.25000000  0.37500000
   0.62500000  0.37500000  0.25000000
   0.50000000  0.25000000  0.50000000
   0.50000000  0.37500000  0.62500000
   0.62500000  0.25000000  0.62500000
   0.62500000  0.37500000  0.50000000
   0.50000000  0.25000000  0.75000000
   0.50000000  0.37500000  0.87500000
   0.62500000  0.25000000  0.87500000
   0.62500000  0.37500000  0.75000000
   0.50000000  0.50000000  0.00000000
   0.50000000  0.62500000  0.12500000
   0.62500000  0.50000000  0.12500000
   0.62500000  0.62500000  0.00000000
   0.50000000  0.50000000  0.25000000
   0.50000000  0.62500000  0.37500000
   0.62500000  0.50000000  0.37500000
   0.62500000  0.62500000  0.25000000
   0.50000000  0.50000000  0.50000000
   0.50000000  0.62500000  0.62500000
   0.62500000  0.50000000  0.62500000
   0.62500000  0.62500000  0.50000000
   0.50000000  0.50000000  0.75000000
   0.50000000  0.62500000  0.87500000
   0.62500000  0.50000000  0.87500000
   0.62500000  0.62500000  0.75000000
   0.50000000  0.75000000  0.00000000
   0.50000000  0.87500000  0.12500000
   0.62500000  0.75000000  0.12500000
   0.62500000  0.87500000  0.00000000
   0.50000000  0.75000000  0.25000000
   0.50000000  0.87500000  0.37500000
   0.62500000  0.75000000  0.37500000
   0.62500000  0.87500000  0.25000000
   0.50000000  0.75000000  0.50000000
   0.50000000  0.87500000  0.62500000
   0.62500000  0.75000000  0.62500000
   0.62500000  0.87500000  0.50000000
   0.50000000  0.75000000  0.75000000
   0.50000000  0.87500000  0.87500000
   0.62500000  0.75000000  0.87500000
   0.62500000  0.87500000  0.75000000
   0.75000000  0.00000000  0.00000000
   0.75000000  0.12500000  0.12500000
   0.87500000  0.00000000  0.12500000
   0.87500000  0.12500000  0.00000000
   0.75000000  0.00000000  0.25000000
   0.75000000  0.12500000  0.37500000
   0.87500000  0.00000000  0.37500000
   0.87500000  0.12500000  0.25000000
   0.75000000  0.00000000  0.50000000
   0.75000000  0.12500000  0.62500000
   0.87500000  0.00000000  0.62500000
   0.87500000  0.12500000  0.50000000
   0.75000000  0.00000000  0.75000000
   0.75000000  0.12500000  0.87500000
   0.87500000  0.00000000  0.87500000
   0.87500000  0.12500000  0.75000000
   0.75000000  0.25000000  0.00000000
   0.75000000  0.37500000  0.12500000
   0.87500000  0.25000000  0.12500000
   0.87500000  0.37500000  0.00000000
   0.75000000  0.25000000  0.25000000
   0.75000000  0.37500000  0.37500000
   0.87500000  0.25000000  0.37500000
   0.87500000  0.37500000  0.25000000
   0.75000000  0.25000000  0.50000000
   0.75000000  0.37500000  0.62500000
   0.87500000  0.25000000  0.62500000
   0.87500000  0.37500000  0.50000000
   0.75000000  0.25000000  0.75000000
   0.75000000  0.37500000  0.87500000
   0.87500000  0.25000000  0.87500000
   0.87500000  0.37500000  0.75000000
   0.75000000  0.50000000  0.00000000
   0.75000000  0.62500000  0.12500000
   0.87500000  0.50000000  0.12500000
   0.87500000  0.62500000  0.00000000
   0.75000000  0.50000000  0.25000000
   0.75000000  0.62500000  0.37500000
   0.87500000  0.50000000  0.37500000
   0.87500000  0.62500000  0.25000000
   0.75000000  0.50000000  0.50000000
   0.75000000  0.62500000  0.62500000
   0.87500000  0.50000000  0.62500000
   0.87500000  0.62500000  0.50000000
   0.75000000  0.50000000  0.75000000
   0.75000000  0.62500000  0.87500000
   0.87500000  0.50000000  0.87500000
   0.87500000  0.62500000  0.75000000
   0.75000000  0.75000000  0.00000000
   0.75000000  0.87500000  0.12500000
   0.87500000  0.75000000  0.12500000
   0.87500000  0.87500000  0.00000000
   0.75000000  0.75000000  0.25000000
   0.75000000  0.87500000  0.37500000
   0.87500000  0.75000000  0.37500000
   0.87500000  0.87500000  0.25000000
   0.75000000  0.75000000  0.50000000
   0.75000000  0.87500000  0.62500000
   0.87500000  0.75000000  0.62500000
   0.87500000  0.87500000  0.50000000
   0.75000000  0.75000000  0.75000000
   0.75000000  0.87500000  0.87500000
   0.87500000  0.75000000  0.87500000
   0.87500000  0.87500000  0.75000000
   0.12500000  0.00000000  0.00000000
Direct configuration=     2
  -0.00208594 -0.00000000  0.00000000
  -0.00037449  0.12537449  0.12537449
   0.12500000 -0.00000000  0.12708594
   0.12500000  0.12708594  0.00000000
  -0.00004250 -0.00000000  0.25005088
  -0.00000175  0.12500175  0.37499165
   0.12500000 -0.00000000  0.37502342
   0.12500000  0.12504250  0.25005088
  -0.00000460 -0.00000000  0.50000000
  -0.00000175  0.12500175  0.62500835
   0.12500000 -0.00000000  0.62497658
   0.12500000  0.12500460  0.50000000
  -0.00004250 -0.00000000  0.74994912
  -0.00037449  0.12537449  0.87462551
   0.12500000 -0.00000000  0.87291406
   0.12500000  0.12504250  0.74994912
  -0.00004250  0.25005088  0.00000000
  -0.00000175  0.37499165  0.12500175
   0.12500000  0.25005088  0.12504250
   0.12500000  0.37502342  0.00000000
   0.00001573  0.24998574  0.24998574
  -0.00000565  0.37500051  0.37500051
   0.12500000  0.25002935  0.37502799
   0.12500000  0.37502799  0.25002935
  -0.00000141  0.25000181  0.50000000
  -0.00000565  0.37500051  0.62499949
   0.12500000  0.25002935  0.62497201
   0.12500000  0.37501150  0.50000000
   0.00001573  0.24998574  0.75001426
  -0.00000175  0.37499165  0.87499825
   0.12500000  0.25005088  0.87495750
   0.12500000  0.37502799  0.74997065
  -0.00000460  0.50000000  0.00000000
  -0.00000175  0.62500835  0.12500175
   0.12500000  0.50000000  0.12500460
   0.12500000  0.62497658  0.00000000
  -0.00000141  0.50000000  0.25000181
  -0.00000565  0.62499949  0.37500051
   0.12500000  0.50000000  0.37501150
   0.12500000  0.62497201  0.25002935
  -0.00001069  0.50000000  0.50000000
  -0.00000565  0.62499949  0.62499949
   0.12500000  0.50000000  0.62498850
   0.12500000  0.62498850  0.50000000
  -0.00000141  0.50000000  0.74999819
  -0.00000175  0.62500835  0.87499825
   0.12500000  0.50000000  0.87499540
   0.12500000  0.62497201  0.74997065
  -0.00004250  0.74994912  0.00000000
  -0.00037449  0.87462551  0.12537449
   0.12500000  0.74994912  0.12504250
   0.12500000  0.87291406  0.00000000
   0.00001573  0.75001426  0.24998574
  -0.00000175  0.87499825  0.37499165
   0.12500000  0.74997065  0.37502799
   0.12500000  0.87495750  0.25005088
  -0.00000141  0.74999819  0.50000000
  -0.00000175  0.87499825  0.62500835
   0.12500000  0.74997065  0.62497201
   0.12500000  0.87499540  0.50000000
   0.00001573  0.75001426  0.75001426
  -0.00037449  0.87462551  0.87462551
   0.12500000  0.74994912  0.87495750
   0.12500000  0.87495750  0.74994912
   0.25208594 -0.00000000  0.00000000
   0.25037449  0.12537449  0.12537449
   0.37505088 -0.00000000  0.12504250
   0.37505088  0.12504250  0.00000000
   0.25004250 -0.00000000  0.25005088
   0.25000175  0.12500175  0.37499165
   0.37502935 -0.00000000  0.37502799
   0.37498574  0.12498427  0.24998574
   0.25000460 -0.00000000  0.50000000
   0.25000175  0.12500175  0.62500835
   0.37502935 -0.00000000  0.62497201
   0.37500181  0.12500141  0.50000000
   0.25004250 -0.00000000  0.74994912
   0.25037449  0.12537449  0.87462551
   0.37505088 -0.00000000  0.87495750
   0.37498574  0.12498427  0.75001426
   0.25004250  0.25005088  0.00000000
   0.25000175  0.37499165  0.12500175
   0.37498574  0.24998574  0.12498427
   0.37502935  0.37502799  0.00000000
   0.24998427  0.24998574  0.24998574
   0.25000565  0.37500051  0.37500051
   0.37500145  0.25000145  0.37499866
   0.37500145  0.37499866  0.25000145
   0.25000141  0.25000181  0.50000000
   0.25000565  0.37500051  0.62499949
   0.37500145  0.25000145  0.62500134
   0.37500032  0.37499636  0.50000000
   0.24998427  0.24998574  0.75001426
   0.25000175  0.37499165  0.87499825
   0.37498574  0.24998574  0.87501573
   0.37500145  0.37499866  0.74999855
   0.25000460  0.50000000  0.00000000
   0.25000175  0.62500835  0.12500175
   0.37500181  0.50000000  0.12500141
   0.37502935  0.62497201  0.00000000
   0.25000141  0.50000000  0.25000181
   0.25000565  0.62499949  0.37500051
   0.37500032  0.50000000  0.37499636
   0.37500145  0.62500134  0.25000145
   0.25001069  0.50000000  0.50000000
   0.25000565  0.62499949  0.62499949
   0.37500032  0.50000000  0.62500364
   0.37500032  0.62500364  0.50000000
   0.25000141  0.50000000  0.74999819
   0.25000175  0.62500835  0.87499825
   0.37500181  0.50000000  0.87499859
   0.37500145  0.62500134  0.74999855
   0.25004250  0.74994912  0.00000000
   0.25037449  0.87462551  0.12537449
   0.37498574  0.75001426  0.12498427
   0.37505088  0.87495750  0.00000000
   0.24998427  0.75001426  0.24998574
   0.25000175  0.87499825  0.37499165
   0.37500145  0.74999855  0.37499866
   0.37498574  0.87501573  0.24998574
   0.25000141  0.74999819  0.50000000
   0.25000175  0.87499825  0.62500835
   0.37500145  0.74999855  0.62500134
   0.37500181  0.87499859  0.50000000
   0.24998427  0.75001426  0.75001426
   0.25037449  0.87462551  0.87462551
   0.37498574  0.75001426  0.87501573
   0.37498574  0.87501573  0.75001426
   0.50002342 -0.00000000  0.00000000
   0.49999165  0.12500175  0.12500175
   0.62500000 -0.00000000  0.12500460
   0.62500000  0.12500460  0.00000000
   0.50002799 -0.00000000  0.25002935
   0.50000051  0.12500565  0.37500051
   0.62500000 -0.00000000  0.37501150
   0.62500000  0.12500141  0.25000181
   0.50001150 -0.00000000  0.50000000
   0.50000051  0.12500565  0.62499949
   0.62500000 -0.00000000  0.62498850
   0.62500000  0.12501069  0.50000000
   0.50002799 -0.00000000  0.74997065
   0.49999165  0.12500175  0.87499825
   0.62500000 -0.00000000  0.87499540
   0.62500000  0.12500141  0.74999819
   0.50002799  0.25002935  0.00000000
   0.50000051  0.37500051  0.12500565
   0.62500000  0.25000181  0.12500141
   0.62500000  0.37501150  0.00000000
   0.49999866  0.25000145  0.25000145
   0.50000193  0.37500193  0.37500193
   0.62500000  0.25000032  0.37499636
   0.62500000  0.37499636  0.25000032
   0.49999636  0.25000032  0.50000000
   0.50000193  0.37500193  0.62499807
   0.62500000  0.25000032  0.62500364
   0.62500000  0.37499713  0.50000000
   0.49999866  0.25000145  0.74999855
   0.50000051  0.37500051  0.87499435
   0.62500000  0.25000181  0.87499859
   0.62500000  0.37499636  0.74999968
   0.50001150  0.50000000  0.00000000
   0.50000051  0.62499949  0.12500565
   0.62500000  0.50000000  0.12501069
   0.62500000  0.62498850  0.00000000
   0.49999636  0.50000000  0.25000032
   0.50000193  0.62499807  0.37500193
   0.62500000  0.50000000  0.37499713
   0.62500000  0.62500364  0.25000032
   0.49999713  0.50000000  0.50000000
   0.50000193  0.62499807  0.62499807
   0.62500000  0.50000000  0.62500287
   0.62500000  0.62500287  0.50000000
   0.49999636  0.50000000  0.74999968
   0.50000051  0.62499949  0.87499435
   0.62500000  0.50000000  0.87498931
   0.62500000  0.62500364  0.74999968
   0.50002799  0.74997065  0.00000000
   0.49999165  0.87499825  0.12500175
   0.62500000  0.74999819  0.12500141
   0.62500000  0.87499540  0.00000000
   0.49999866  0.74999855  0.25000145
   0.50000051  0.87499435  0.37500051
   0.62500000  0.74999968  0.37499636
   0.62500000  0.87499859  0.25000181
   0.49999636  0.74999968  0.50000000
   0.50000051  0.87499435  0.62499949
   0.62500000  0.74999968  0.62500364
   0.62500000  0.87498931  0.50000000
   0.49999866  0.74999855  0.74999855
   0.49999165  0.87499825  0.87499825
   0.62500000  0.74999819  0.87499859
   0.62500000  0.87499859  0.74999819
   0.74997658 -0.00000000  0.00000000
   0.75000835  0.12500175  0.12500175
   0.87494912 -0.00000000  0.12504250
   0.87494912  0.12504250  0.00000000
   0.74997201 -0.00000000  0.25002935
   0.74999949  0.12500565  0.37500051
   0.87497065 -0.00000000  0.37502799
   0.87501426  0.12498427  0.24998574
   0.74998850 -0.00000000  0.50000000
   0.74999949  0.12500565  0.62499949
   0.87497065 -0.00000000  0.62497201
   0.87499819  0.12500141  0.50000000
   0.74997201 -0.00000000  0.74997065
   0.75000835  0.12500175  0.87499825
   0.87494912 -0.00000000  0.87495750
   0.87501426  0.12498427  0.75001426
   0.74997201  0.25002935  0.00000000
   0.74999949  0.37500051  0.12500565
   0.87501426  0.24998574  0.12498427
   0.87497065  0.37502799  0.00000000
   0.75000134  0.25000145  0.25000145
   0.74999807  0.37500193  0.37500193
   0.87499855  0.25000145  0.37499866
   0.87499855  0.37499866  0.25000145
   0.75000364  0.25000032  0.50000000
   0.74999807  0.37500193  0.62499807
   0.87499855  0.25000145  0.62500134
   0.87499968  0.37499636  0.50000000
   0.75000134  0.25000145  0.74999855
   0.74999949  0.37500051  0.87499435
   0.87501426  0.24998574  0.87501573
   0.87499855  0.37499866  0.74999855
   0.74998850  0.50000000  0.00000000
   0.74999949  0.62499949  0.12500565
   0.87499819  0.50000000  0.12500141
   0.87497065  0.62497201  0.00000000
   0.75000364  0.50000000  0.25000032
   0.74999807  0.62499807  0.37500193
   0.87499968  0.50000000  0.37499636
   0.87499855  0.62500134  0.25000145
   0.75000287  0.50000000  0.50000000
   0.74999807  0.62499807  0.62499807
   0.87499968  0.50000000  0.62500364
   0.87499968  0.62500364  0.50000000
   0.75000364  0.50000000  0.74999968
   0.74999949  0.62499949  0.87499435
   0.87499819  0.50000000  0.87499859
   0.87499855  0.62500134  0.74999855
   0.74997201  0.74997065  0.00000000
   0.75000835  0.87499825  0.12500175
   0.87501426  0.75001426  0.12498427
   0.87494912  0.87495750  0.00000000
   0.75000134  0.74999855  0.25000145
   0.74999949  0.87499435  0.37500051
   0.87499855  0.74999855  0.37499866
   0.87501426  0.87501573  0.24998574
   0.75000364  0.74999968  0.50000000
   0.74999949  0.87499435  0.62499949
   0.87499855  0.74999855  0.62500134
   0.87499819  0.87499859  0.50000000
   0.75000134  0.74999855  0.74999855
   0.75000835  0.87499825  0.87499825
   0.87501426  0.75001426  0.87501573
   0.87501426  0.87501573  0.75001426
   0.12500000 -0.00000000  0.00000000
Direct configuration=     3
  -0.00523730 -0.00000000  0.00000000
  -0.00094025  0.12594025  0.12594025
   0.12500000 -0.00000000  0.13023730
   0.12500000  0.13023730  0.00000000
  -0.00010671 -0.00000000  0.25012775
  -0.00000439  0.12500439  0.37497903
   0.12500000 -0.00000000  0.37505880
   0.12500000  0.12510671  0.25012775
  -0.00001155 -0.00000000  0.50000000
  -0.00000439  0.12500439  0.62502097
   0.12500000 -0.00000000  0.62494120
   0.12500000  0.12501155  0.50000000
  -0.00010671 -0.00000000  0.74987225
  -0.00094025  0.12594025  0.87405975
   0.12500000 -0.00000000  0.86976270
   0.12500000  0.12510671  0.74987225
  -0.00010671  0.25012775  0.00000000
  -0.00000439  0.37497903  0.12500439
   0.12500000  0.25012775  0.12510671
   0.12500000  0.37505880  0.00000000
   0.00003949  0.24996419  0.24996419
  -0.00001418  0.37500129  0.37500129
   0.12500000  0.25007368  0.37507027
   0.12500000  0.37507027  0.25007368
  -0.00000355  0.25000454  0.50000000
  -0.00001418  0.37500129  0.62499871
   0.12500000  0.25007368  0.62492973
   0.12500000  0.37502888  0.50000000
   0.00003949  0.24996419  0.75003581
  -0.00000439  0.37497903  0.87499561
   0.12500000  0.25012775  0.87489329
   0.12500000  0.37507027  0.74992632
  -0.00001155  0.50000000  0.00000000
  -0.00000439  0.62502097  0.12500439
   0.12500000  0.50000000  0.12501155
   0.12500000  0.62494120  0.00000000
  -0.00000355  0.50000000  0.25000454
  -0.00001418  0.62499871  0.37500129
   0.12500000  0.50000000  0.37502888
   0.12500000  0.62492973  0.25007368
  -0.00002685  0.50000000  0.50000000
  -0.00001418  0.62499871  0.62499871
   0.12500000  0.50000000  0.62497112
   0.12500000  0.62497112  0.50000000
  -0.00000355  0.50000000  0.74999546
  -0.00000439  0.62502097  0.87499561
   0.12500000  0.50000000  0.87498845
   0.12500000  0.62492973  0.74992632
  -0.00010671  0.74987225  0.00000000
  -0.00094025  0.87405975  0.12594025
   0.12500000  0.74987225  0.12510671
   0.12500000  0.86976270  0.00000000
   0.00003949  0.75003581  0.24996419
  -0.00000439  0.87499561  0.37497903
   0.12500000  0.74992632  0.37507027
   0.12500000  0.87489329  0.25012775
  -0.00000355  0.74999546  0.50000000
  -0.00000439  0.87499561  0.62502097
   0.12500000  0.74992632  0.62492973
   0.12500000  0.87498845  0.50000000
   0.00003949  0.75003581  0.75003581
  -0.00094025  0.87405975  0.87405975
   0.12500000  0.74987225  0.87489329
   0.12500000  0.87489329  0.74987225
   0.25523730 -0.00000000  0.00000000
   0.25094025  0.12594025  0.12594025
   0.37512775 -0.00000000  0.12510671
   0.37512775  0.12510671  0.00000000
   0.25010671 -0.00000000  0.25012775
   0.25000439  0.12500439  0.37497903
   0.37507368 -0.00000000  0.37507027
   0.37496419  0.12496051  0.24996419
   0.25001155 -0.00000000  0.50000000
   0.25000439  0.12500439  0.62502097
   0.37507368 -0.00000000  0.62492973
   0.37500454  0.12500355  0.50000000
   0.25010671 -0.00000000  0.74987225
   0.25094025  0.12594025  0.87405975
   0.37512775 -0.00000000  0.87489329
   0.37496419  0.12496051  0.75003581
   0.25010671  0.25012775  0.00000000
   0.25000439  0.37497903  0.12500439
   0.37496419  0.24996419  0.12496051
   0.37507368  0.37507027  0.00000000
   0.24996051  0.24996419  0.24996419
   0.25001418  0.37500129  0.37500129
   0.37500364  0.25000364  0.37499664
   0.37500364  0.37499664  0.25000364
   0.25000355  0.25000454  0.50000000
   0.25001418  0.37500129  0.62499871
   0.37500364  0.25000364  0.62500336
   0.37500081  0.37499087  0.50000000
   0.24996051  0.24996419  0.75003581
   0.25000439  0.37497903  0.87499561
   0.37496419  0.24996419  0.87503949
   0.37500364  0.37499664  0.74999636
   0.25001155  0.50000000  0.00000000
   0.25000439  0.62502097  0.12500439
   0.37500454  0.50000000  0.12500355
   0.37507368  0.62492973  0.00000000
   0.25000355  0.50000000  0.25000454
   0.25001418  0.62499871  0.37500129
   0.37500081  0.50000000  0.37499087
   0.37500364  0.62500336  0.25000364
   0.25002685  0.50000000  0.50000000
   0.25001418  0.62499871  0.62499871
   0.37500081  0.50000000  0.62500913
   0.37500081  0.62500913  0.50000000
   0.25000355  0.50000000  0.74999546
   0.25000439  0.62502097  0.87499561
   0.37500454  0.50000000  0.87499645
   0.37500364  0.62500336  0.74999636
   0.25010671  0.74987225  0.00000000
   0.25094025  0.87405975  0.12594025
   0.37496419  0.75003581  0.12496051
   0.37512775  0.87489329  0.00000000
   0.24996051  0.75003581  0.24996419
   0.25000439  0.87499561  0.37497903
   0.37500364  0.74999636  0.37499664
   0.37496419  0.87503949  0.24996419
   0.25000355  0.74999546  0.50000000
   0.25000439  0.87499561  0.62502097
   0.37500364  0.74999636  0.62500336
   0.37500454  0.87499645  0.50000000
   0.24996051  0.75003581  0.75003581
   0.25094025  0.87405975  0.87405975
   0.37496419  0.75003581  0.87503949
   0.37496419  0.87503949  0.75003581
   0.50005880 -0.00000000  0.00000000
   0.49997903  0.12500439  0.12500439
   0.62500000 -0.00000000  0.12501155
   0.62500000  0.12501155  0.00000000
   0.50007027 -0.00000000  0.25007368
   0.50000129  0.12501418  0.37500129
   0.62500000 -0.00000000  0.37502888
   0.62500000  0.12500355  0.25000454
   0.50002888 -0.00000000  0.50000000
   0.50000129  0.12501418  0.62499871
   0.62500000 -0.00000000  0.62497112
   0.62500000  0.12502685  0.50000000
   0.50007027 -0.00000000  0.74992632
   0.49997903  0.12500439  0.87499561
   0.62500000 -0.00000000  0.87498845
   0.62500000  0.12500355  0.74999546
   0.50007027  0.25007368  0.00000000
   0.50000129  0.37500129  0.12501418
   0.62500000  0.25000454  0.12500355
   0.62500000  0.37502888  0.00000000
   0.49999664  0.25000364  0.25000364
   0.50000485  0.37500485  0.37500485
   0.62500000  0.25000081  0.37499087
   0.62500000  0.37499087  0.25000081
   0.49999087  0.25000081  0.50000000
   0.50000485  0.37500485  0.62499515
   0.62500000  0.25000081  0.62500913
   0.62500000  0.37499280  0.50000000
   0.49999664  0.25000364  0.74999636
   0.50000129  0.37500129  0.87498582
   0.62500000  0.25000454  0.87499645
   0.62500000  0.37499087  0.74999919
   0.50002888  0.50000000  0.00000000
   0.50000129  0.62499871  0.12501418
   0.62500000  0.50000000  0.12502685
   0.62500000  0.62497112  0.00000000
   0.49999087  0.50000000  0.25000081
   0.50000485  0.62499515  0.37500485
   0.62500000  0.50000000  0.37499280
   0.62500000  0.62500913  0.25000081
   0.49999280  0.50000000  0.50000000
   0.50000485  0.62499515  0.62499515
   0.62500000  0.50000000  0.62500720
   0.62500000  0.62500720  0.50000000
   0.49999087  0.50000000  0.74999919
   0.50000129  0.62499871  0.87498582
   0.62500000  0.50000000  0.87497315
   0.62500000  0.62500913  0.74999919
   0.50007027  0.74992632  0.00000000
   0.49997903  0.87499561  0.12500439
   0.62500000  0.74999546  0.12500355
   0.62500000  0.87498845  0.00000000
   0.49999664  0.74999636  0.25000364
   0.50000129  0.87498582  0.37500129
   0.62500000  0.74999919  0.37499087
   0.62500000  0.87499645  0.25000454
   0.49999087  0.74999919  0.50000000
   0.50000129  0.87498582  0.62499871
   0.62500000  0.74999919  0.62500913
   0.62500000  0.87497315  0.50000000
   0.49999664  0.74999636  0.74999636
   0.49997903  0.87499561  0.87499561
   0.62500000  0.74999546  0.87499645
   0.62500000  0.87499645  0.74999546
   0.74994120 -0.00000000  0.00000000
   0.75002097  0.12500439  0.12500439
   0.87487225 -0.00000000  0.12510671
   0.87487225  0.12510671  0.00000000
   0.74992973 -0.00000000  0.25007368
   0.74999871  0.12501418  0.37500129
   0.87492632 -0.00000000  0.37507027
   0.87503581  0.12496051  0.24996419
   0.74997112 -0.00000000  0.50000000
   0.74999871  0.12501418  0.62499871
   0.87492632 -0.00000000  0.62492973
   0.87499546  0.12500355  0.50000000
   0.74992973 -0.00000000  0.74992632
   0.75002097  0.12500439  0.87499561
   0.87487225 -0.00000000  0.87489329
   0.87503581  0.12496051  0.75003581
   0.74992973  0.25007368  0.00000000
   0.74999871  0.37500129  0.12501418
   0.87503581  0.24996419  0.12496051
   0.87492632  0.37507027  0.00000000
   0.75000336  0.25000364  0.25000364
   0.74999515  0.37500485  0.37500485
   0.87499636  0.25000364  0.37499664
   0.87499636  0.37499664  0.25000364
   0.75000913  0.25000081  0.50000000
   0.74999515  0.37500485  0.62499515
   0.87499636  0.25000364  0.62500336
   0.87499919  0.37499087  0.50000000
   0.75000336  0.25000364  0.74999636
   0.74999871  0.37500129  0.87498582
   0.87503581  0.24996419  0.87503949
   0.87499636  0.37499664  0.74999636
   0.74997112  0.50000000  0.00000000
   0.74999871  0.62499871  0.12501418
   0.87499546  0.50000000  0.12500355
   0.87492632  0.62492973  0.00000000
   0.75000913  0.50000000  0.25000081
   0.74999515  0.62499515  0.37500485
   0.87499919  0.50000000  0.37499087
   0.87499636  0.62500336  0.25000364
   0.75000720  0.50000000  0.50000000
   0.74999515  0.62499515  0.62499515
   0.87499919  0.50000000  0.62500913
   0.87499919  0.62500913  0.50000000
   0.75000913  0.50000000  0.74999919
   0.74999871  0.62499871  0.87498582
   0.87499546  0.50000000  0.87499645
   0.87499636  0.62500336  0.74999636
   0.74992973  0.74992632  0.00000000
   0.75002097  0.87499561  0.12500439
   0.87503581  0.75003581  0.12496051
   0.87487225  0.87489329  0.00000000
   0.75000336  0.74999636  0.25000364
   0.74999871  0.87498582  0.37500129
   0.87499636  0.74999636  0.37499664
   0.87503581  0.87503949  0.24996419
   0.75000913  0.74999919  0.50000000
   0.74999871  0.87498582  0.62499871
   0.87499636  0.74999636  0.62500336
   0.87499546  0.87499645  0.50000000
   0.75000336  0.74999636  0.74999636
   0.75002097  0.87499561  0.87499561
   0.87503581  0.75003581  0.87503949
   0.87503581  0.87503949  0.75003581
   0.12500000 -0.00000000  0.00000000
Direct configuration=     4
  -0.00472275 -0.00000000  0.00000000
  -0.00084787  0.12584787  0.12584787
   0.12500000 -0.00000000  0.12972275
   0.12500000  0.12972275  0.00000000
  -0.00009623 -0.00000000  0.25011520
  -0.00000396  0.12500396  0.37498109
   0.12500000 -0.00000000  0.37505303
   0.12500000  0.12509623  0.25011520
  -0.00001041 -0.00000000  0.50000000
  -0.00000396  0.12500396  0.62501891