 253 253   0   0
  0.3031145E+02  0.1718057E-08  0.1718057E-08  0.3000000E-08  0.2000000E-15
  1.000000000000000E-004
  CAR 
 NiAl                                    
      4.98932484    -13.83759980  301      1.79905638      1.00000000
    -13.838  0.0000E+00  0.0000E+00
    -13.775  0.0000E+00  0.0000E+00
    -13.712  0.0000E+00  0.0000E+00
    -13.649  0.0000E+00  0.0000E+00
    -13.587  0.0000E+00  0.0000E+00
    -13.524  0.0000E+00  0.0000E+00
    -13.461  0.0000E+00  0.0000E+00
    -13.398  0.0000E+00  0.0000E+00
    -13.336  0.0000E+00  0.0000E+00
    -13.273  0.8845E-16  0.5551E-17
    -13.210  0.4318E-10  0.2710E-11
    -13.147  0.1144E-05  0.7181E-07
    -13.085  0.1463E-02  0.9190E-04
    -13.022  0.1016E+00  0.6465E-02
    -12.959  0.4871E+00  0.3703E-01
    -12.896  0.2005E+00  0.4961E-01
    -12.833  0.6166E-02  0.5000E-01
    -12.771  0.1085E-04  0.5000E-01
    -12.708  0.9429E-09  0.5000E-01
    -12.645  0.3804E-14  0.5000E-01
    -12.582  0.0000E+00  0.5000E-01
    -12.520  0.0000E+00  0.5000E-01
    -12.457  0.0000E+00  0.5000E-01
    -12.394  0.0000E+00  0.5000E-01
    -12.331  0.0000E+00  0.5000E-01
    -12.269  0.0000E+00  0.5000E-01
    -12.206  0.0000E+00  0.5000E-01
    -12.143  0.0000E+00  0.5000E-01
    -12.080  0.0000E+00  0.5000E-01
    -12.018  0.0000E+00  0.5000E-01
    -11.955  0.0000E+00  0.5000E-01
    -11.892  0.0000E+00  0.5000E-01
    -11.829  0.0000E+00  0.5000E-01
    -11.767  0.0000E+00  0.5000E-01
    -11.704  0.0000E+00  0.5000E-01
    -11.641  0.0000E+00  0.5000E-01
    -11.578  0.0000E+00  0.5000E-01
    -11.516  0.0000E+00  0.5000E-01
    -11.453  0.0000E+00  0.5000E-01
    -11.390  0.0000E+00  0.5000E-01
    -11.327  0.0000E+00  0.5000E-01
    -11.265  0.0000E+00  0.5000E-01
    -11.202  0.0000E+00  0.5000E-01
    -11.139  0.0000E+00  0.5000E-01
    -11.076  0.0000E+00  0.5000E-01
    -11.014  0.0000E+00  0.5000E-01
    -10.951  0.0000E+00  0.5000E-01
    -10.888  0.0000E+00  0.5000E-01
    -10.825  0.0000E+00  0.5000E-01
    -10.763  0.0000E+00  0.5000E-01
    -10.700  0.0000E+00  0.5000E-01
    -10.637  0.0000E+00  0.5000E-01
    -10.574  0.0000E+00  0.5000E-01
    -10.512  0.0000E+00  0.5000E-01
    -10.449  0.0000E+00  0.5000E-01
    -10.386  0.0000E+00  0.5000E-01
    -10.323  0.0000E+00  0.5000E-01
    -10.260  0.0000E+00  0.5000E-01
    -10.198  0.0000E+00  0.5000E-01
    -10.135  0.0000E+00  0.5000E-01
    -10.072  0.0000E+00  0.5000E-01
    -10.009  0.0000E+00  0.5000E-01
     -9.947  0.0000E+00  0.5000E-01
     -9.884  0.0000E+00  0.5000E-01
     -9.821  0.0000E+00  0.5000E-01
     -9.758  0.0000E+00  0.5000E-01
     -9.696  0.0000E+00  0.5000E-01
     -9.633  0.0000E+00  0.5000E-01
     -9.570  0.0000E+00  0.5000E-01
     -9.507  0.0000E+00  0.5000E-01
     -9.445  0.0000E+00  0.5000E-01
     -9.382  0.5974E-13  0.5000E-01
     -9.319  0.5755E-08  0.5000E-01
     -9.256  0.2606E-04  0.5000E-01
     -9.194  0.6022E-02  0.5038E-01
     -9.131  0.8558E-01  0.5575E-01
     -9.068  0.9965E-01  0.6200E-01
     -9.005  0.1317E+00  0.7027E-01
     -8.943  0.7067E+00  0.1146E+00
     -8.880  0.3512E+00  0.1367E+00
     -8.817  0.2855E-01  0.1385E+00
     -8.754  0.1116E+00  0.1455E+00
     -8.692  0.1223E+00  0.1531E+00
     -8.629  0.7987E+00  0.2033E+00
     -8.566  0.1276E+01  0.2833E+00
     -8.503  0.4041E+00  0.3087E+00
     -8.441  0.7260E+00  0.3543E+00
     -8.378  0.3209E+00  0.3744E+00
     -8.315  0.1280E+00  0.3824E+00
     -8.252  0.6889E+00  0.4257E+00
     -8.190  0.3887E+00  0.4501E+00
     -8.127  0.4041E+00  0.4754E+00
     -8.064  0.7635E+00  0.5233E+00
     -8.001  0.6586E+00  0.5647E+00
     -7.938  0.2045E+01  0.6930E+00
     -7.876  0.1034E+01  0.7579E+00
     -7.813  0.7306E-01  0.7625E+00
     -7.750  0.1559E-02  0.7626E+00
     -7.687  0.1545E+00  0.7723E+00
     -7.625  0.1832E+01  0.8873E+00
     -7.562  0.2291E+01  0.1031E+01
     -7.499  0.6116E+00  0.1069E+01
     -7.436  0.6564E+00  0.1111E+01
     -7.374  0.3747E+00  0.1134E+01
     -7.311  0.2890E+00  0.1152E+01
     -7.248  0.8683E+00  0.1207E+01
     -7.185  0.4354E+00  0.1234E+01
     -7.123  0.1184E+01  0.1308E+01
     -7.060  0.9937E+00  0.1371E+01
     -6.997  0.1034E+01  0.1436E+01
     -6.934  0.2764E+01  0.1609E+01
     -6.872  0.1012E+01  0.1673E+01
     -6.809  0.6713E+00  0.1715E+01
     -6.746  0.1386E+01  0.1802E+01
     -6.683  0.6456E+00  0.1842E+01
     -6.621  0.2219E+01  0.1981E+01
     -6.558  0.1918E+01  0.2102E+01
     -6.495  0.7458E+00  0.2149E+01
     -6.432  0.7045E+00  0.2193E+01
     -6.370  0.1131E+00  0.2200E+01
     -6.307  0.9893E-02  0.2201E+01
     -6.244  0.1049E+00  0.2207E+01
     -6.181  0.6741E+00  0.2249E+01
     -6.119  0.2905E+01  0.2432E+01
     -6.056  0.2023E+01  0.2559E+01
     -5.993  0.2232E+01  0.2699E+01
     -5.930  0.2475E+01  0.2854E+01
     -5.868  0.5925E+00  0.2891E+01
     -5.805  0.7452E+00  0.2938E+01
     -5.742  0.9898E+00  0.3000E+01
     -5.679  0.1587E+01  0.3100E+01
     -5.617  0.3189E+01  0.3300E+01
     -5.554  0.1599E+01  0.3400E+01
     -5.491  0.7018E+00  0.3444E+01
     -5.428  0.5711E+00  0.3480E+01
     -5.365  0.4850E+00  0.3511E+01
     -5.303  0.1945E+01  0.3633E+01
     -5.240  0.1112E+01  0.3702E+01
     -5.177  0.1151E+01  0.3775E+01
     -5.114  0.2267E+01  0.3917E+01
     -5.052  0.1542E+01  0.4014E+01
     -4.989  0.2200E+01  0.4152E+01
     -4.926  0.1320E+01  0.4235E+01
     -4.863  0.3007E+00  0.4253E+01
     -4.801  0.8017E+00  0.4304E+01
     -4.738  0.1481E+01  0.4397E+01
     -4.675  0.3091E+01  0.4591E+01
     -4.612  0.2458E+01  0.4745E+01
     -4.550  0.1114E+01  0.4815E+01
     -4.487  0.1716E+01  0.4923E+01
     -4.424  0.9372E+00  0.4981E+01
     -4.361  0.9578E+00  0.5041E+01
     -4.299  0.1858E+01  0.5158E+01
     -4.236  0.1694E+01  0.5264E+01
     -4.173  0.3174E+01  0.5464E+01
     -4.110  0.2503E+01  0.5621E+01
     -4.048  0.2150E+01  0.5756E+01
     -3.985  0.2034E+01  0.5883E+01
     -3.922  0.7706E+00  0.5932E+01
     -3.859  0.1595E+01  0.6032E+01
     -3.797  0.1818E+01  0.6146E+01
     -3.734  0.1702E+01  0.6253E+01
     -3.671  0.2518E+01  0.6411E+01
     -3.608  0.1457E+01  0.6502E+01
     -3.546  0.1581E+01  0.6601E+01
     -3.483  0.1372E+01  0.6687E+01
     -3.420  0.5859E+00  0.6724E+01
     -3.357  0.4435E+00  0.6752E+01
     -3.295  0.9141E+00  0.6809E+01
     -3.232  0.2228E+01  0.6949E+01
     -3.169  0.2074E+01  0.7079E+01
     -3.106  0.2128E+01  0.7213E+01
     -3.043  0.3028E+01  0.7403E+01
     -2.981  0.1940E+01  0.7525E+01
     -2.918  0.2444E+01  0.7678E+01
     -2.855  0.3448E+01  0.7894E+01
     -2.792  0.3212E+01  0.8096E+01
     -2.730  0.4670E+01  0.8389E+01
     -2.667  0.1897E+01  0.8508E+01
     -2.604  0.4352E+00  0.8535E+01
     -2.541  0.6176E+00  0.8574E+01
     -2.479  0.9085E+00  0.8631E+01
     -2.416  0.1364E+01  0.8717E+01
     -2.353  0.1811E+01  0.8830E+01
     -2.290  0.2830E+01  0.9008E+01
     -2.228  0.2490E+01  0.9164E+01
     -2.165  0.1834E+01  0.9279E+01
     -2.102  0.2679E+01  0.9447E+01
     -2.039  0.2009E+01  0.9573E+01
     -1.977  0.1211E+01  0.9649E+01
     -1.914  0.1726E+01  0.9758E+01
     -1.851  0.2397E+01  0.9908E+01
     -1.788  0.3392E+01  0.1012E+02
     -1.726  0.3290E+01  0.1033E+02
     -1.663  0.1319E+01  0.1041E+02
     -1.600  0.1129E+01  0.1048E+02
     -1.537  0.1731E+01  0.1059E+02
     -1.475  0.2330E+01  0.1074E+02
     -1.412  0.1332E+01  0.1082E+02
     -1.349  0.3438E+01  0.1104E+02
     -1.286  0.3851E+01  0.1128E+02
     -1.224  0.2426E+01  0.1143E+02
     -1.161  0.3660E+01  0.1166E+02
     -1.098  0.1937E+01  0.1178E+02
     -1.035  0.1700E+01  0.1189E+02
     -0.973  0.1960E+01  0.1201E+02
     -0.910  0.1928E+01  0.1213E+02
     -0.847  0.3286E+01  0.1234E+02
     -0.784  0.2580E+01  0.1250E+02
     -0.722  0.2543E+01  0.1266E+02
     -0.659  0.1568E+01  0.1276E+02
     -0.596  0.1104E+01  0.1283E+02
     -0.533  0.1737E+01  0.1294E+02
     -0.470  0.2968E+01  0.1312E+02
     -0.408  0.4971E+01  0.1343E+02
     -0.345  0.3110E+01  0.1363E+02
     -0.282  0.2251E+01  0.1377E+02
     -0.219  0.3778E+01  0.1401E+02
     -0.157  0.1689E+01  0.1411E+02
     -0.094  0.1416E+01  0.1420E+02
     -0.031  0.9031E+00  0.1426E+02
      0.032  0.1734E+01  0.1437E+02
      0.094  0.3378E+01  0.1458E+02
      0.157  0.1961E+01  0.1470E+02
      0.220  0.2014E+01  0.1483E+02
      0.283  0.2148E+01  0.1496E+02
      0.345  0.1870E+01  0.1508E+02
      0.408  0.1938E+01  0.1520E+02
      0.471  0.3418E+01  0.1542E+02
      0.534  0.3469E+01  0.1564E+02
      0.596  0.1638E+01  0.1574E+02
      0.659  0.1813E+01  0.1585E+02
      0.722  0.1385E+01  0.1594E+02
      0.785  0.8627E+00  0.1599E+02
      0.847  0.1325E+01  0.1608E+02
      0.910  0.2439E+01  0.1623E+02
      0.973  0.5582E+01  0.1658E+02
      1.036  0.5688E+01  0.1694E+02
      1.098  0.3404E+01  0.1715E+02
      1.161  0.2856E+01  0.1733E+02
      1.224  0.1852E+01  0.1745E+02
      1.287  0.1711E+01  0.1755E+02
      1.349  0.1579E+01  0.1765E+02
      1.412  0.2048E+01  0.1778E+02
      1.475  0.2141E+01  0.1791E+02
      1.538  0.3170E+01  0.1811E+02
      1.600  0.4144E+01  0.1837E+02
      1.663  0.4541E+01  0.1866E+02
      1.726  0.3234E+01  0.1886E+02
      1.789  0.2335E+01  0.1901E+02
      1.852  0.1208E+01  0.1908E+02
      1.914  0.1531E+01  0.1918E+02
      1.977  0.3837E+01  0.1942E+02
      2.040  0.3519E+01  0.1964E+02
      2.103  0.1896E+01  0.1976E+02
      2.165  0.2078E+01  0.1989E+02
      2.228  0.2116E+01  0.2002E+02
      2.291  0.1850E+01  0.2014E+02
      2.354  0.1806E+01  0.2025E+02
      2.416  0.2717E+01  0.2042E+02
      2.479  0.2183E+01  0.2056E+02
      2.542  0.1954E+01  0.2068E+02
      2.605  0.3646E+01  0.2091E+02
      2.667  0.3133E+01  0.2111E+02
      2.730  0.1596E+01  0.2121E+02
      2.793  0.2480E+01  0.2136E+02
      2.856  0.2184E+01  0.2150E+02
      2.918  0.5922E+01  0.2187E+02
      2.981  0.7084E+01  0.2232E+02
      3.044  0.3913E+01  0.2256E+02
      3.107  0.2233E+01  0.2270E+02
      3.169  0.1706E+01  0.2281E+02
      3.232  0.1952E+01  0.2293E+02
      3.295  0.2828E+01  0.2311E+02
      3.358  0.3617E+01  0.2334E+02
      3.420  0.3399E+01  0.2355E+02
      3.483  0.3287E+01  0.2376E+02
      3.546  0.2599E+01  0.2392E+02
      3.609  0.1741E+01  0.2403E+02
      3.671  0.2587E+01  0.2419E+02
      3.734  0.2687E+01  0.2436E+02
      3.797  0.1712E+01  0.2447E+02
      3.860  0.2002E+01  0.2459E+02
      3.922  0.3569E+01  0.2482E+02
      3.985  0.4200E+01  0.2508E+02
      4.048  0.3885E+01  0.2533E+02
      4.111  0.2147E+01  0.2546E+02
      4.173  0.5944E+00  0.2550E+02
      4.236  0.4503E-01  0.2550E+02
      4.299  0.4266E-03  0.2550E+02
      4.362  0.2961E-06  0.2550E+02
      4.425  0.1088E-10  0.2550E+02
      4.487  0.2211E-16  0.2550E+02
      4.550  0.0000E+00  0.2550E+02
      4.613  0.0000E+00  0.2550E+02
      4.676  0.0000E+00  0.2550E+02
      4.738  0.0000E+00  0.2550E+02
      4.801  0.0000E+00  0.2550E+02
      4.864  0.0000E+00  0.2550E+02
      4.927  0.0000E+00  0.2550E+02
      4.989  0.0000E+00  0.2550E+02
