         261
 Energy:  -927.40544910000006     
 X   0.00000000       0.00000000       0.00000000    
 X   0.00000000      -17.1805725       0.00000000    
 X   0.00000000      -8.59028625      -14.8788128    
 X   30.0000000       0.00000000       0.00000000    
 X   0.00000000      -25.7708588      -14.8788128    
 X   30.0000000      -17.1805725       0.00000000    
 X   30.0000000      -8.59028625      -14.8788128    
 X   30.0000000      -25.7708588      -14.8788128    
 Al   2.36204004      -11.4537201      -6.61281013    
 Al   2.36204004      -14.3171396      -11.5724096    
 Al   2.36204004      -8.59029007      -1.65320003    
 Al   2.36204004      -17.1805706      -6.61281013    
 Al   2.36204004      -20.0440006      -11.5724096    
 Al   2.36204004      -14.3171396      -1.65320003    
 Al   2.36204004      -5.72686005      -6.61281013    
 Al   2.36204004      -8.59029007      -11.5724096    
 Al   2.36204004      -2.86343002      -1.65320003    
 Al   4.71078014      -14.3171396      -8.26601028    
 Al   4.71078014      -17.1805706      -13.2256098    
 Al   4.71078014      -11.4537201      -3.30640006    
 Al   4.71078014      -20.0440006      -8.26601028    
 Al   4.71078014      -22.9074306      -13.2256098    
 Al   4.71078014      -17.1805706      -3.30640006    
 Al   4.71078014      -8.59029007      -8.26601028    
 Al   4.71078014      -11.4537201      -13.2256098    
 Al   4.71078014      -5.72686005      -3.30640006    
 Al   7.01272011      -17.1805706      -9.91921043    
 Al   7.01272011      -11.4537201       0.00000000    
 Al   7.01272011      -14.3171396      -4.95959997    
 Al   7.01272011      -5.72686005      -9.91921043    
 Al   7.01272011       0.00000000       0.00000000    
 Al   7.01272011      -2.86343002      -4.95959997    
 Al   7.01272011      -11.4537201      -9.91921043    
 Al   7.01272011      -5.72686005       0.00000000    
 Al   7.01272011      -8.59029007      -4.95959997    
 Al   9.35192013      -20.0440006      -11.5724096    
 Al   9.35192013      -14.3171396      -1.65320003    
 Al   9.35192013      -17.1805706      -6.61281013    
 Al   9.35192013      -8.59029007      -11.5724096    
 Al   9.35192013      -2.86343002      -1.65320003    
 Al   9.35192013      -5.72686005      -6.61281013    
 Al   9.35192013      -14.3171396      -11.5724096    
 Al   9.35192013      -8.59029007      -1.65320003    
 Al   9.35192013      -11.4537201      -6.61281013    
 Al   11.6911201      -22.9074306      -13.2256098    
 Al   11.6911201      -17.1805706      -3.30640006    
 Al   11.6911201      -20.0440006      -8.26601028    
 Al   11.6911201      -11.4537201      -13.2256098    
 Al   11.6911201      -5.72686005      -3.30640006    
 Al   11.6911201      -8.59029007      -8.26601028    
 Al   11.6911201      -17.1805706      -13.2256098    
 Al   11.6911201      -11.4537201      -3.30640006    
 Al   11.6911201      -14.3171396      -8.26601028    
 Al   13.9930601       0.00000000       0.00000000    
 Al   13.9930601      -2.86343002      -4.95959997    
 Al   13.9930601      -5.72686005      -9.91921043    
 Al   13.9930601      -5.72686005       0.00000000    
 Al   13.9930601      -8.59029007      -4.95959997    
 Al   13.9930601      -11.4537201      -9.91921043    
 Al   13.9930601      -11.4537201       0.00000000    
 Al   13.9930601      -14.3171396      -4.95959997    
 Al   13.9930601      -17.1805706      -9.91921043    
 Al   16.3418007      -2.86343002      -1.65320003    
 Al   16.3418007      -5.72686005      -6.61281013    
 Al   16.3418007      -8.59029007      -11.5724096    
 Al   16.3418007      -8.59029007      -1.65320003    
 Al   16.3418007      -11.4537201      -6.61281013    
 Al   16.3418007      -14.3171396      -11.5724096    
 Al   16.3418007      -14.3171396      -1.65320003    
 Al   16.3418007      -17.1805706      -6.61281013    
 Al   16.3418007      -20.0440006      -11.5724096    
 Al   2.36204004      -7.15856981      -4.13299990    
 Al   2.36204004      -10.0220003      -9.09261036    
 Al   2.36204004      -12.8854303      -14.0522099    
 Al   2.36204004      -12.8854303      -4.13299990    
 Al   2.36204004      -15.7488604      -9.09261036    
 Al   2.36204004      -18.6122894      -14.0522099    
 Al   2.36204004      -18.6122894      -4.13299990    
 Al   2.36204004      -21.4757195      -9.09261036    
 Al   2.36204004      -24.3391495      -14.0522099    
 Al   4.71078014      -10.0220003      -5.78621006    
 Al   4.71078014      -12.8854303      -10.7458096    
 Al   4.71078014      -7.15856981     -0.826600015    
 Al   4.71078014      -15.7488604      -5.78621006    
 Al   4.71078014      -18.6122894      -10.7458096    
 Al   4.71078014      -12.8854303     -0.826600015    
 Al   4.71078014      -4.29513979      -5.78621006    
 Al   4.71078014      -7.15856981      -10.7458096    
 Al   4.71078014      -1.43171000     -0.826600015    
 Al   7.01272011      -12.8854303      -7.43941021    
 Al   7.01272011      -15.7488604      -12.3990097    
 Al   7.01272011      -10.0220003      -2.47979999    
 Al   7.01272011      -18.6122894      -7.43941021    
 Al   7.01272011      -21.4757195      -12.3990097    
 Al   7.01272011      -15.7488604      -2.47979999    
 Al   7.01272011      -7.15856981      -7.43941021    
 Al   7.01272011      -10.0220003      -12.3990097    
 Al   7.01272011      -4.29513979      -2.47979999    
 Al   9.35192013      -15.7488604      -9.09261036    
 Al   9.35192013      -18.6122894      -14.0522099    
 Al   9.35192013      -12.8854303      -4.13299990    
 Al   9.35192013      -21.4757195      -9.09261036    
 Al   9.35192013      -24.3391495      -14.0522099    
 Al   9.35192013      -18.6122894      -4.13299990    
 Al   9.35192013      -10.0220003      -9.09261036    
 Al   9.35192013      -12.8854303      -14.0522099    
 Al   9.35192013      -7.15856981      -4.13299990    
 Al   11.6911201      -18.6122894      -10.7458096    
 Al   11.6911201      -12.8854303     -0.826600015    
 Al   11.6911201      -15.7488604      -5.78621006    
 Al   11.6911201      -7.15856981      -10.7458096    
 Al   11.6911201      -1.43171000     -0.826600015    
 Al   11.6911201      -4.29513979      -5.78621006    
 Al   11.6911201      -12.8854303      -10.7458096    
 Al   11.6911201      -7.15856981     -0.826600015    
 Al   11.6911201      -10.0220003      -5.78621006    
 Al   13.9930601      -21.4757195      -12.3990097    
 Al   13.9930601      -15.7488604      -2.47979999    
 Al   13.9930601      -18.6122894      -7.43941021    
 Al   13.9930601      -10.0220003      -12.3990097    
 Al   13.9930601      -4.29513979      -2.47979999    
 Al   13.9930601      -7.15856981      -7.43941021    
 Al   13.9930601      -15.7488604      -12.3990097    
 Al   13.9930601      -10.0220003      -2.47979999    
 Al   13.9930601      -12.8854303      -7.43941021    
 Al   16.3418007      -24.3391495      -14.0522099    
 Al   16.3418007      -18.6122894      -4.13299990    
 Al   16.3418007      -21.4757195      -9.09261036    
 Al   16.3418007      -12.8854303      -14.0522099    
 Al   16.3418007      -7.15856981      -4.13299990    
 Al   16.3418007      -10.0220003      -9.09261036    
 Al   16.3418007      -18.6122894      -14.0522099    
 Al   16.3418007      -12.8854303      -4.13299990    
 Al   16.3418007      -15.7488604      -9.09261036    
 Al   2.36204004      -8.59029007      -6.61281013    
 Al   2.36204004      -11.4537201      -11.5724096    
 Al   2.36204004      -5.72686005      -1.65320003    
 Al   2.36204004      -14.3171396      -6.61281013    
 Al   2.36204004      -17.1805706      -11.5724096    
 Al   2.36204004      -11.4537201      -1.65320003    
 Al   2.36204004      -20.0440006      -6.61281013    
 Al   2.36204004      -22.9074306      -11.5724096    
 Al   2.36204004      -17.1805706      -1.65320003    
 Al   4.71078014      -11.4537201      -8.26601028    
 Al   4.71078014      -14.3171396      -13.2256098    
 Al   4.71078014      -8.59029007      -3.30640006    
 Al   4.71078014      -17.1805706      -8.26601028    
 Al   4.71078014      -20.0440006      -13.2256098    
 Al   4.71078014      -14.3171396      -3.30640006    
 Al   4.71078014      -5.72686005      -8.26601028    
 Al   4.71078014      -8.59029007      -13.2256098    
 Al   4.71078014      -2.86343002      -3.30640006    
 Al   7.01272011      -14.3171396      -9.91921043    
 Al   7.01272011      -8.59029007       0.00000000    
 Al   7.01272011      -11.4537201      -4.95959997    
 Al   7.01272011      -20.0440006      -9.91921043    
 Al   7.01272011      -14.3171396       0.00000000    
 Al   7.01272011      -17.1805706      -4.95959997    
 Al   7.01272011      -8.59029007      -9.91921043    
 Al   7.01272011      -2.86343002       0.00000000    
 Al   7.01272011      -5.72686005      -4.95959997    
 Al   9.35192013      -17.1805706      -11.5724096    
 Al   9.35192013      -11.4537201      -1.65320003    
 Al   9.35192013      -14.3171396      -6.61281013    
 Al   9.35192013      -22.9074306      -11.5724096    
 Al   9.35192013      -17.1805706      -1.65320003    
 Al   9.35192013      -20.0440006      -6.61281013    
 Al   9.35192013      -11.4537201      -11.5724096    
 Al   9.35192013      -5.72686005      -1.65320003    
 Al   9.35192013      -8.59029007      -6.61281013    
 Al   11.6911201      -20.0440006      -13.2256098    
 Al   11.6911201      -14.3171396      -3.30640006    
 Al   11.6911201      -17.1805706      -8.26601028    
 Al   11.6911201      -8.59029007      -13.2256098    
 Al   11.6911201      -2.86343002      -3.30640006    
 Al   11.6911201      -5.72686005      -8.26601028    
 Al   11.6911201      -14.3171396      -13.2256098    
 Al   11.6911201      -8.59029007      -3.30640006    
 Al   11.6911201      -11.4537201      -8.26601028    
 Al   13.9930601      -14.3171396       0.00000000    
 Al   13.9930601      -17.1805706      -4.95959997    
 Al   13.9930601      -20.0440006      -9.91921043    
 Al   13.9930601      -2.86343002       0.00000000    
 Al   13.9930601      -5.72686005      -4.95959997    
 Al   13.9930601      -8.59029007      -9.91921043    
 Al   13.9930601      -8.59029007       0.00000000    
 Al   13.9930601      -11.4537201      -4.95959997    
 Al   13.9930601      -14.3171396      -9.91921043    
 Al   16.3418007      -17.1805706      -1.65320003    
 Al   16.3418007      -20.0440006      -6.61281013    
 Al   16.3418007      -22.9074306      -11.5724096    
 Al   16.3418007      -5.72686005      -1.65320003    
 Al   16.3418007      -8.59029007      -6.61281013    
 Al   16.3418007      -11.4537201      -11.5724096    
 Al   16.3418007      -11.4537201      -1.65320003    
 Al   16.3418007      -14.3171396      -6.61281013    
 Al   16.3418007      -17.1805706      -11.5724096    
 Al   2.36204004      -10.0220003      -4.13299990    
 Al   2.36204004      -12.8854303      -9.09261036    
 Al   2.36204004      -15.7488604      -14.0522099    
 Al   2.36204004      -15.7488604      -4.13299990    
 Al   2.36204004      -18.6122894      -9.09261036    
 Al   2.36204004      -21.4757195      -14.0522099    
 Al   2.36204004      -4.29513979      -4.13299990    
 Al   2.36204004      -7.15856981      -9.09261036    
 Al   2.36204004      -10.0220003      -14.0522099    
 Al   4.71078014      -12.8854303      -5.78621006    
 Al   4.71078014      -15.7488604      -10.7458096    
 Al   4.71078014      -10.0220003     -0.826600015    
 Al   4.71078014      -18.6122894      -5.78621006    
 Al   4.71078014      -21.4757195      -10.7458096    
 Al   4.71078014      -15.7488604     -0.826600015    
 Al   4.71078014      -7.15856981      -5.78621006    
 Al   4.71078014      -10.0220003      -10.7458096    
 Al   4.71078014      -4.29513979     -0.826600015    
 Al   7.01272011      -15.7488604      -7.43941021    
 Al   7.01272011      -18.6122894      -12.3990097    
 Al   7.01272011      -12.8854303      -2.47979999    
 Al   7.01272011      -4.29513979      -7.43941021    
 Al   7.01272011      -7.15856981      -12.3990097    
 Al   7.01272011      -1.43171000      -2.47979999    
 Al   7.01272011      -10.0220003      -7.43941021    
 Al   7.01272011      -12.8854303      -12.3990097    
 Al   7.01272011      -7.15856981      -2.47979999    
 Al   9.35192013      -18.6122894      -9.09261036    
 Al   9.35192013      -21.4757195      -14.0522099    
 Al   9.35192013      -15.7488604      -4.13299990    
 Al   9.35192013      -7.15856981      -9.09261036    
 Al   9.35192013      -10.0220003      -14.0522099    
 Al   9.35192013      -4.29513979      -4.13299990    
 Al   9.35192013      -12.8854303      -9.09261036    
 Al   9.35192013      -15.7488604      -14.0522099    
 Al   9.35192013      -10.0220003      -4.13299990    
 Al   11.6911201      -21.4757195      -10.7458096    
 Al   11.6911201      -15.7488604     -0.826600015    
 Al   11.6911201      -18.6122894      -5.78621006    
 Al   11.6911201      -10.0220003      -10.7458096    
 Al   11.6911201      -4.29513979     -0.826600015    
 Al   11.6911201      -7.15856981      -5.78621006    
 Al   11.6911201      -15.7488604      -10.7458096    
 Al   11.6911201      -10.0220003     -0.826600015    
 Al   11.6911201      -12.8854303      -5.78621006    
 Al   13.9930601      -7.15856981      -12.3990097    
 Al   13.9930601      -1.43171000      -2.47979999    
 Al   13.9930601      -4.29513979      -7.43941021    
 Al   13.9930601      -12.8854303      -12.3990097    
 Al   13.9930601      -7.15856981      -2.47979999    
 Al   13.9930601      -10.0220003      -7.43941021    
 Al   13.9930601      -18.6122894      -12.3990097    
 Al   13.9930601      -12.8854303      -2.47979999    
 Al   13.9930601      -15.7488604      -7.43941021    
 Al   16.3418007      -10.0220003      -14.0522099    
 Al   16.3418007      -4.29513979      -4.13299990    
 Al   16.3418007      -7.15856981      -9.09261036    
 Al   16.3418007      -15.7488604      -14.0522099    
 Al   16.3418007      -10.0220003      -4.13299990    
 Al   16.3418007      -12.8854303      -9.09261036    
 Al   16.3418007      -21.4757195      -14.0522099    
 Al   16.3418007      -15.7488604      -4.13299990    
 Al   16.3418007      -18.6122894      -9.09261036    
 N    17.7000008      -11.4537201      -8.26601028    
         261
 Energy:  -927.85914170000001     
 X   0.00000000       0.00000000       0.00000000    
 X   0.00000000      -17.1805725       0.00000000    
 X   0.00000000      -8.59028625      -14.8788128    
 X   30.0000000       0.00000000       0.00000000    
 X   0.00000000      -25.7708588      -14.8788128    
 X   30.0000000      -17.1805725       0.00000000    
 X   30.0000000      -8.59028625      -14.8788128    
 X   30.0000000      -25.7708588      -14.8788128    
 Al   2.36258006      -11.4537201      -6.61301994    
 Al   2.36223006      -14.3172903      -11.5725603    
 Al   2.36202002      -8.59049988      -1.65304995    
 Al   2.36197996      -17.1807499      -6.61256981    
 Al   2.36209011      -20.0440006      -11.5720596    
 Al   2.36202002      -14.3169298      -1.65304995    
 Al   2.36197996      -5.72667980      -6.61256981    
 Al   2.36223006      -8.59014034      -11.5725603    
 Al   2.36199999      -2.86343002      -1.65298998    
 Al   4.71100998      -14.3169003      -8.26616001    
 Al   4.71049023      -17.1804409      -13.2254400    
 Al   4.71061993      -11.4537201      -3.30627990    
 Al   4.71071005      -20.0440006      -8.26597977    
 Al   4.71049023      -22.9075603      -13.2254400    
 Al   4.71059990      -17.1806297      -3.30661988    
 Al   4.71100998      -8.59053040      -8.26616001    
 Al   4.71075010      -11.4537201      -13.2257900    
 Al   4.71059990      -5.72680998      -3.30661988    
 Al   7.01293993      -17.1803799      -9.91940022    
 Al   7.01302004      -11.4537201       3.99999990E-04
 Al   7.01305008      -14.3170004      -4.95985985    
 Al   7.01293993      -5.72704983      -9.91940022    
 Al   7.01284981      -1.50000007E-04   0.00000000    
 Al   7.01287985      -2.86343002      -4.95915985    
 Al   7.01266003      -11.4537201      -9.91911983    
 Al   7.01284981      -5.72669983       0.00000000    
 Al   7.01305008      -8.59043026      -4.95985985    
 Al   9.35163021      -20.0440006      -11.5727301    
 Al   9.35186958      -14.3172998      -1.65346003    
 Al   9.35198975      -17.1802902      -6.61296988    
 Al   9.35192966      -8.59051037      -11.5724602    
 Al   9.35206985      -2.86343002      -1.65349996    
 Al   9.35198975      -5.72713995      -6.61296988    
 Al   9.35192966      -14.3169203      -11.5724602    
 Al   9.35186958      -8.59012985      -1.65346003    
 Al   9.35225964      -11.4537201      -6.61317015    
 Al   11.6911297      -22.9075203      -13.2257795    
 Al   11.6910200      -17.1805191      -3.30634999    
 Al   11.6911297      -20.0440006      -8.26605034    
 Al   11.6911802      -11.4537201      -13.2253599    
 Al   11.6910200      -5.72691011      -3.30634999    
 Al   11.6910696      -8.59066963      -8.26599979    
 Al   11.6911297      -17.1804790      -13.2257795    
 Al   11.6913996      -11.4537201      -3.30682993    
 Al   11.6910696      -14.3167601      -8.26599979    
 Al   13.9934597       7.99999980E-05   3.99999990E-05
 Al   13.9930601      -2.86343002      -4.95918989    
 Al   13.9932203      -5.72684002      -9.91946030    
 Al   13.9934597      -5.72693014       3.99999990E-05
 Al   13.9928102      -8.58992958      -4.95954990    
 Al   13.9934797      -11.4537201      -9.91946983    
 Al   13.9929199      -11.4537201       1.50000007E-04
 Al   13.9928102      -14.3175001      -4.95954990    
 Al   13.9932203      -17.1805992      -9.91946030    
 Al   16.3417797      -2.86343002      -1.65313005    
 Al   16.3418598      -5.72676992      -6.61274004    
 Al   16.3418293      -8.59092045      -11.5722904    
 Al   16.3417091      -8.59039974      -1.65329003    
 Al   16.3692398      -11.4537201      -6.63134003    
 Al   16.3418293      -14.3165102      -11.5722904    
 Al   16.3417091      -14.3170300      -1.65329003    
 Al   16.3418598      -17.1806602      -6.61274004    
 Al   16.3416805      -20.0440006      -11.5723495    
 Al   2.36197996      -7.15827990      -4.13295984    
 Al   2.36258006      -10.0221901      -9.09249973    
 Al   2.36197996      -12.8853197      -14.0524797    
 Al   2.36223006      -12.8854904      -4.13280010    
 Al   2.36223006      -15.7490597      -9.09265995    
 Al   2.36209011      -18.6119900      -14.0523901    
 Al   2.36199999      -18.6121006      -4.13311005    
 Al   2.36202002      -21.4756908      -9.09286976    
 Al   2.36202002      -24.3389091      -14.0521002    
 Al   4.71100998      -10.0222502      -5.78634024    
 Al   4.71100998      -12.8854399      -10.7455301    
 Al   4.71071005      -7.15854979     -0.826610029    
 Al   4.71075010      -15.7490101      -5.78611994    
 Al   4.71049023      -18.6120701      -10.7457800    
 Al   4.71049023      -12.8853397     -0.826799989    
 Al   4.71059990      -4.29531002      -5.78604984    
 Al   4.71061993      -7.15847015      -10.7458696    
 Al   4.71059990      -1.43192995     -0.826539993    
 Al   7.01266003      -12.8853502      -7.43944979    
 Al   7.01293993      -15.7489300      -12.3987398    
 Al   7.01293993      -10.0222702      -2.47987008    
 Al   7.01284981      -18.6122093      -7.43927002    
 Al   7.01302004      -21.4753704      -12.3992100    
 Al   7.01284981      -15.7489405      -2.47993994    
 Al   7.01305008      -7.15886021      -7.43940020    
 Al   7.01305008      -10.0221500      -12.3987598    
 Al   7.01287985      -4.29476023      -2.48002005    
 Al   9.35192966      -15.7487898      -9.09239006    
 Al   9.35163021      -18.6125698      -14.0520496    
 Al   9.35192966      -12.8855896      -4.13317013    
 Al   9.35186958      -21.4758606      -9.09234047    
 Al   9.35186958      -24.3394508      -14.0522203    
 Al   9.35206985      -18.6125507      -4.13286018    
 Al   9.35225964      -10.0223198      -9.09243011    
 Al   9.35198975      -12.8854303      -14.0518904    
 Al   9.35198975      -7.15885019      -4.13317013    
 Al   11.6911297      -18.6123905      -10.7456503    
 Al   11.6911297      -12.8856201     -0.826600015    
 Al   11.6911802      -15.7486401      -5.78633022    
 Al   11.6913996      -7.15893984      -10.7455997    
 Al   11.6910200      -1.43164003     -0.826579988    
 Al   11.6910200      -4.29512978      -5.78628016    
 Al   11.6910696      -12.8852301      -10.7454796    
 Al   11.6911297      -7.15860987     -0.826579988    
 Al   11.6910696      -10.0221901      -5.78654003    
 Al   13.9929199      -21.4755898      -12.3990803    
 Al   13.9934597      -15.7487803      -2.47975993    
 Al   13.9934597      -18.6122894      -7.43948984    
 Al   13.9928102      -10.0221395      -12.3993502    
 Al   13.9930601      -4.29478979      -2.48001003    
 Al   13.9928102      -7.15834999      -7.43911982    
 Al   13.9932203      -15.7490902      -12.3989000    
 Al   13.9932203      -10.0222101      -2.47966003    
 Al   13.9934797      -12.8856602      -7.43927002    
 Al   16.3417091      -24.3391705      -14.0520697    
 Al   16.3417797      -18.6122208      -4.13303995    
 Al   16.3417091      -21.4758492      -9.09265995    
 Al   16.3418598      -12.8854198      -14.0523195    
 Al   16.3418598      -7.15847015      -4.13295984    
 Al   16.3692398      -10.0380497      -9.08333969    
 Al   16.3416805      -18.6122398      -14.0522404    
 Al   16.3418293      -12.8856401      -4.13360977    
 Al   16.3418293      -15.7484398      -9.09212017    
 Al   2.36173010      -8.58992958      -6.61259985    
 Al   2.36173010      -11.4537201      -11.5728197    
 Al   2.36190009      -5.72685003      -1.65321004    
 Al   2.36173010      -14.3175001      -6.61259985    
 Al   2.36211991      -17.1804905      -11.5723600    
 Al   2.36211991      -11.4537201      -1.65329003    
 Al   2.36190009      -20.0440006      -6.61279011    
 Al   2.36211991      -22.9075108      -11.5723600    
 Al   2.36190009      -17.1805897      -1.65321004    
 Al   4.71073008      -11.4537201      -8.26601028    
 Al   4.71059990      -14.3173103      -13.2257099    
 Al   4.71059990      -8.59029007      -3.30621004    
 Al   4.71059990      -17.1807404      -8.26609993    
 Al   4.71038008      -20.0440006      -13.2256098    
 Al   4.71059990      -14.3171501      -3.30621004    
 Al   4.71059990      -5.72668982      -8.26609993    
 Al   4.71059990      -8.59012032      -13.2257099    
 Al   4.71082020      -2.86343002      -3.30640006    
 Al   7.01272011      -14.3170700      -9.91917038    
 Al   7.01292992      -8.59074020       2.60000001E-04
 Al   7.01272011      -11.4537201      -4.95969009    
 Al   7.01292992      -20.0440006      -9.91973019    
 Al   7.01292992      -14.3166904       2.60000001E-04
 Al   7.01278019      -17.1806793      -4.95953989    
 Al   7.01272011      -8.59035969      -9.91917038    
 Al   7.01278019      -2.86343002      -1.30000000E-04
 Al   7.01278019      -5.72674990      -4.95953989    
 Al   9.35167027      -17.1806698      -11.5724602    
 Al   9.35167027      -11.4537201      -1.65309000    
 Al   9.35167027      -14.3169899      -6.61288977    
 Al   9.35167027      -22.9073391      -11.5724602    
 Al   9.35216045      -17.1807003      -1.65328002    
 Al   9.35216045      -20.0440006      -6.61265993    
 Al   9.35167027      -11.4537201      -11.5722399    
 Al   9.35216045      -5.72672987      -1.65328002    
 Al   9.35167027      -8.59043980      -6.61288977    
 Al   11.6919298      -20.0440006      -13.2256098    
 Al   11.6909904      -14.3168898      -3.30697989    
 Al   11.6909904      -17.1799507      -8.26593018    
 Al   11.6909904      -8.59066010      -13.2250996    
 Al   11.6910496      -2.86343002      -3.30640006    
 Al   11.6909904      -5.72748995      -8.26593018    
 Al   11.6909904      -14.3167696      -13.2250996    
 Al   11.6909904      -8.59053993      -3.30697989    
 Al   11.6907902      -11.4537201      -8.26601028    
 Al   13.9930096      -14.3172798      -7.99999980E-05
 Al   13.9928999      -17.1810703      -4.95932007    
 Al   13.9930096      -20.0440006      -9.91905975    
 Al   13.9928999      -2.86343002      -5.69999975E-04
 Al   13.9928999      -5.72635984      -4.95932007    
 Al   13.9919796      -8.58971977      -9.91954041    
 Al   13.9930096      -8.59016037      -7.99999980E-05
 Al   13.9919796      -11.4537201      -4.95895004    
 Al   13.9919796      -14.3177099      -9.91954041    
 Al   16.3418293      -17.1806202      -1.65322995    
 Al   16.3418293      -20.0440006      -6.61275005    
 Al   16.3419895      -22.9076405      -11.5722904    
 Al   16.3418293      -5.72680998      -1.65322995    
 Al   16.3393707      -8.58681965      -6.61080980    
 Al   16.3393707      -11.4537201      -11.5764103    
 Al   16.3419895      -11.4537201      -1.65344000    
 Al   16.3393707      -14.3206100      -6.61080980    
 Al   16.3419895      -17.1803703      -11.5722904    
 Al   2.36223006      -10.0219402      -4.13280010    
 Al   2.36258006      -12.8852396      -9.09249973    
 Al   2.36202002      -15.7490997      -14.0521002    
 Al   2.36197996      -15.7491503      -4.13295984    
 Al   2.36202002      -18.6123104      -9.09286976    
 Al   2.36209011      -21.4760208      -14.0523901    
 Al   2.36199999      -4.29533005      -4.13311005    
 Al   2.36223006      -7.15837002      -9.09265995    
 Al   2.36197996      -10.0221100      -14.0524797    
 Al   4.71100998      -12.8851805      -5.78634024    
 Al   4.71061993      -15.7489700      -10.7458696    
 Al   4.71049023      -10.0220900     -0.826799989    
 Al   4.71059990      -18.6121197      -5.78604984    
 Al   4.71049023      -21.4759407      -10.7457800    
 Al   4.71071005      -15.7488804     -0.826610029    
 Al   4.71075010      -7.15842009      -5.78611994    
 Al   4.71100998      -10.0219898      -10.7455301    
 Al   4.71059990      -4.29491997     -0.826539993    
 Al   7.01305008      -15.7485704      -7.43940020    
 Al   7.01302004      -18.6126308      -12.3992100    
 Al   7.01293993      -12.8851604      -2.47987008    
 Al   7.01284981      -4.29521990      -7.43927002    
 Al   7.01293993      -7.15850019      -12.3987398    
 Al   7.01287985      -1.43210006      -2.48002005    
 Al   7.01266003      -10.0220804      -7.43944979    
 Al   7.01305008      -12.8852797      -12.3987598    
 Al   7.01284981      -7.15850019      -2.47993994    
 Al   9.35186958      -18.6121407      -9.09234047    
 Al   9.35163021      -21.4754391      -14.0520496    
 Al   9.35198975      -15.7485800      -4.13317013    
 Al   9.35192966      -7.15863991      -9.09239006    
 Al   9.35198975      -10.0220003      -14.0518904    
 Al   9.35206985      -4.29488993      -4.13286018    
 Al   9.35225964      -12.8851204      -9.09243011    
 Al   9.35186958      -15.7485600      -14.0522203    
 Al   9.35192966      -10.0218496      -4.13317013    
 Al   11.6911297      -21.4756203      -10.7456503    
 Al   11.6911297      -15.7488203     -0.826579988    
 Al   11.6910200      -18.6123009      -5.78628016    
 Al   11.6910696      -10.0221996      -10.7454796    
 Al   11.6910200      -4.29520988     -0.826579988    
 Al   11.6911802      -7.15879011      -5.78633022    
 Al   11.6913996      -15.7484903      -10.7455997    
 Al   11.6911297      -10.0218096     -0.826600015    
 Al   11.6910696      -12.8852501      -5.78654003    
 Al   13.9932203      -7.15833998      -12.3989000    
 Al   13.9930601      -1.43207002      -2.48001003    
 Al   13.9934597      -4.29513979      -7.43948984    
 Al   13.9928102      -12.8852901      -12.3993502    
 Al   13.9934597      -7.15864992      -2.47975993    
 Al   13.9934797      -10.0217695      -7.43927002    
 Al   13.9929199      -18.6124191      -12.3990803    
 Al   13.9932203      -12.8852196      -2.47966003    
 Al   13.9928102      -15.7490797      -7.43911982    
 Al   16.3418598      -10.0220098      -14.0523195    
 Al   16.3417797      -4.29520988      -4.13303995    
 Al   16.3418293      -7.15898991      -9.09212017    
 Al   16.3417091      -15.7488403      -14.0520697    
 Al   16.3418293      -10.0217896      -4.13360977    
 Al   16.3692398      -12.8693800      -9.08333969    
 Al   16.3416805      -21.4757710      -14.0522404    
 Al   16.3418598      -15.7489595      -4.13295984    
 Al   16.3417091      -18.6121502      -9.09265995    
 N    17.6224098      -11.4537201      -8.26601028    
         261
 Energy:  -928.47788830000002     
 X   0.00000000       0.00000000       0.00000000    
 X   0.00000000      -17.1805725       0.00000000    
 X   0.00000000      -8.59028625      -14.8788128    
 X   30.0000000       0.00000000       0.00000000    
 X   0.00000000      -25.7708588      -14.8788128    
 X   30.0000000      -17.1805725       0.00000000    
 X   30.0000000      -8.59028625      -14.8788128    
 X   30.0000000      -25.7708588      -14.8788128    
 Al   2.36392999      -11.4537201      -6.61356020    
 Al   2.36269999      -14.3176498      -11.5729399    
 Al   2.36197996      -8.59103966      -1.65267003    
 Al   2.36180997      -17.1812000      -6.61198997    
 Al   2.36220002      -20.0440006      -11.5712004    
 Al   2.36197996      -14.3163900      -1.65267003    
 Al   2.36180997      -5.72623014      -6.61198997    
 Al   2.36269999      -8.58979034      -11.5729399    
 Al   2.36189008      -2.86343002      -1.65244997    
 Al   4.71159983      -14.3163004      -8.26653957    
 Al   4.70978022      -17.1801109      -13.2249899    
 Al   4.71023989      -11.4537201      -3.30596995    
 Al   4.71054983      -20.0440006      -8.26593018    