       N       E                     dE             d eps       ncg     rms          rms(c)
DAV:   1     0.214876947338E+04    0.21488E+04   -0.18213E+05  2040   0.737E+02
DAV:   2    -0.738131283921E+03   -0.28869E+04   -0.27261E+04  2796   0.193E+02
DAV:   3    -0.946979385001E+03   -0.20885E+03   -0.19973E+03  2964   0.403E+01
DAV:   4    -0.955716331646E+03   -0.87369E+01   -0.85253E+01  3204   0.837E+00
DAV:   5    -0.956037399025E+03   -0.32107E+00   -0.31909E+00  3024   0.162E+00    0.191E+01
DAV:   6    -0.965613000570E+03   -0.95756E+01   -0.18729E+02  2898   0.164E+01    0.178E+01
DAV:   7    -0.931972523945E+03    0.33640E+02   -0.12345E+02  2568   0.157E+01    0.107E+01
DAV:   8    -0.940583230935E+03   -0.86107E+01   -0.38990E+01  2820   0.102E+01    0.989E+00
DAV:   9    -0.929847939021E+03    0.10735E+02   -0.11136E+01  2628   0.859E+00    0.553E+00
DAV:  10    -0.927613731464E+03    0.22342E+01   -0.99365E+00  2484   0.359E+00    0.302E+00
DAV:  11    -0.927451017158E+03    0.16271E+00   -0.19061E+00  2808   0.174E+00    0.133E+00
DAV:  12    -0.927446299578E+03    0.47176E-02   -0.78307E-01  2592   0.829E-01    0.924E-01
DAV:  13    -0.927412446687E+03    0.33853E-01   -0.97129E-02  2520   0.425E-01    0.636E-01
DAV:  14    -0.927386441358E+03    0.26005E-01   -0.69586E-02  2400   0.311E-01    0.299E-01
DAV:  15    -0.927377345285E+03    0.90961E-02   -0.22664E-02  2412   0.165E-01    0.186E-01
DAV:  16    -0.927381384541E+03   -0.40393E-02   -0.16544E-02  2436   0.121E-01    0.117E-01
DAV:  17    -0.927388145430E+03   -0.67609E-02   -0.52368E-03  2472   0.751E-02    0.834E-02
DAV:  18    -0.927395592515E+03   -0.74471E-02   -0.25035E-03  2232   0.508E-02    0.455E-02
DAV:  19    -0.927398520379E+03   -0.29279E-02   -0.52579E-04  2472   0.272E-02    0.274E-02
DAV:  20    -0.927400338986E+03   -0.18186E-02   -0.33625E-04  2268   0.158E-02    0.161E-02
DAV:  21    -0.927401538183E+03   -0.11992E-02   -0.14635E-04  2364   0.117E-02    0.124E-02
DAV:  22    -0.927402221386E+03   -0.68320E-03   -0.24528E-04  2184   0.108E-02    0.120E-02
DAV:  23    -0.927403438568E+03   -0.12172E-02   -0.65383E-05  2028   0.639E-03    0.799E-03
DAV:  24    -0.927404577013E+03   -0.11384E-02   -0.90828E-05  2016   0.560E-03    0.386E-03
DAV:  25    -0.927404994932E+03   -0.41792E-03   -0.21612E-05  1884   0.313E-03    0.342E-03
DAV:  26    -0.927405324993E+03   -0.33006E-03   -0.23536E-05  1812   0.277E-03    0.147E-03
DAV:  27    -0.927405423113E+03   -0.98121E-04   -0.71264E-06  1704   0.167E-03    0.869E-04
DAV:  28    -0.927405442310E+03   -0.19197E-04   -0.79939E-07  1368   0.862E-04    0.422E-04
DAV:  29    -0.927405448025E+03   -0.57147E-05   -0.40151E-07  1296   0.609E-04    0.481E-04
DAV:  30    -0.927405449169E+03   -0.11439E-05   -0.93647E-08  1176   0.392E-04
   1 F= -.92740545E+03 E0= -.92737538E+03  d E =-.927405E+03
       N       E                     dE             d eps       ncg     rms          rms(c)
DAV:   1    -0.927764282731E+03   -0.35883E+00   -0.22056E+01  2148   0.450E+00    0.108E+00
DAV:   2    -0.927867425592E+03   -0.10314E+00   -0.11435E+00  2376   0.749E-01    0.699E-01
DAV:   3    -0.927863593729E+03    0.38319E-02   -0.57871E-02  2886   0.289E-01    0.348E-01
DAV:   4    -0.927893209872E+03   -0.29616E-01   -0.17805E-02  2664   0.496E-01    0.479E-01
DAV:   5    -0.927859456408E+03    0.33753E-01   -0.63729E-03  2880   0.389E-01    0.214E-01
DAV:   6    -0.927859705429E+03   -0.24902E-03   -0.74745E-03  2700   0.100E-01    0.146E-01
DAV:   7    -0.927859052034E+03    0.65340E-03   -0.31022E-03  2496   0.809E-02    0.905E-02
DAV:   8    -0.927858998102E+03    0.53931E-04   -0.24572E-03  2424   0.489E-02    0.627E-02
DAV:   9    -0.927859000629E+03   -0.25265E-05   -0.29725E-04  2604   0.197E-02    0.525E-02
DAV:  10    -0.927858968913E+03    0.31716E-04   -0.10030E-04  3144   0.130E-02    0.156E-02
DAV:  11    -0.927858995748E+03   -0.26835E-04   -0.17392E-04  2280   0.111E-02    0.125E-02
DAV:  12    -0.927859003258E+03   -0.75092E-05   -0.12070E-05  2088   0.477E-03    0.780E-03
DAV:  13    -0.927859036851E+03   -0.33593E-04   -0.23711E-05  1896   0.399E-03    0.596E-03
DAV:  14    -0.927859059120E+03   -0.22269E-04   -0.20977E-06  1380   0.175E-03    0.546E-03
DAV:  15    -0.927859090915E+03   -0.31795E-04   -0.29927E-06  1536   0.191E-03    0.242E-03
DAV:  16    -0.927859107973E+03   -0.17057E-04   -0.53086E-06  1716   0.168E-03    0.254E-03
DAV:  17    -0.927859119579E+03   -0.11606E-04   -0.52310E-07  1248   0.810E-04    0.217E-03
DAV:  18    -0.927859132596E+03   -0.13017E-04   -0.95529E-07  1356   0.718E-04    0.105E-03
DAV:  19    -0.927859138158E+03   -0.55622E-05   -0.46244E-07  1224   0.617E-04    0.422E-04
DAV:  20    -0.927859141737E+03   -0.35791E-05   -0.24347E-07  1176   0.507E-04
   2 F= -.92785914E+03 E0= -.92782803E+03  d E =-.453693E+00
       N       E                     dE             d eps       ncg     rms          rms(c)
DAV:   1    -0.927727303173E+03    0.13183E+00   -0.13821E+02  2184   0.114E+01    0.378E+00
DAV:   2    -0.928689218106E+03   -0.96191E+00   -0.10146E+01  2322   0.200E+00    0.293E+00
DAV:   3    -0.928480858762E+03    0.20836E+00   -0.36427E-01  3576   0.742E-01    0.152E+00
DAV:   4    -0.928540400508E+03   -0.59542E-01   -0.54098E-01  2364   0.851E-01    0.754E-01
DAV:   5    -0.928487272053E+03    0.53128E-01   -0.37121E-02  2436   0.700E-01    0.470E-01
DAV:   6    -0.928483268212E+03    0.40038E-02   -0.28191E-02  2748   0.316E-01    0.342E-01
DAV:   7    -0.928478835114E+03    0.44331E-02   -0.25578E-02  3000   0.234E-01    0.273E-01
DAV:   8    -0.928477374902E+03    0.14602E-02   -0.72817E-03  2460   0.109E-01    0.172E-01
DAV:   9    -0.928476976896E+03    0.39801E-03   -0.56336E-03  2604   0.807E-02    0.754E-02
DAV:  10    -0.928477220312E+03   -0.24342E-03   -0.28628E-03  2460   0.485E-02    0.816E-02
DAV:  11    -0.928477180928E+03    0.39384E-04   -0.15162E-04  2532   0.211E-02    0.563E-02
DAV:  12    -0.928477221535E+03   -0.40608E-04   -0.40714E-04  2412   0.172E-02    0.181E-02
DAV:  13    -0.928477374299E+03   -0.15276E-03   -0.87723E-05  2580   0.916E-03    0.777E-03
DAV:  14    -0.928477486532E+03   -0.11223E-03   -0.41363E-05  2964   0.549E-03    0.153E-02
DAV:  15    -0.928477624832E+03   -0.13830E-03   -0.16041E-05  1896   0.402E-03    0.787E-03
DAV:  16    -0.928477745581E+03   -0.12075E-03   -0.44477E-05  2088   0.462E-03    0.754E-03
DAV:  17    -0.928477788721E+03   -0.43141E-04   -0.32934E-06  1608   0.228E-03    0.311E-03
DAV:  18    -0.928477823537E+03   -0.34816E-04   -0.81690E-06  1860   0.199E-03    0.246E-03
DAV:  19    -0.928477853867E+03   -0.30330E-04   -0.17420E-06  1500   0.140E-03    0.861E-04
DAV:  20    -0.928477869121E+03   -0.15255E-04   -0.18737E-06  1392   0.104E-03    0.186E-03
DAV:  21    -0.928477880185E+03   -0.11064E-04   -0.52613E-07  1332   0.688E-04    0.128E-03
DAV:  22    -0.928477885991E+03   -0.58058E-05   -0.30048E-07  1188   0.503E-04    0.577E-04
DAV:  23    -0.928477888353E+03   -0.23618E-05   -0.23234E-07  1176   0.489E-04
   3 F= -.92847789E+03 E0= -.92844347E+03  d E =-.107244E+01
       N       E                     dE             d eps       ncg     rms          rms(c)
DAV:   1    -0.928471584967E+03    0.63010E-02   -0.25278E+00  2100   0.160E+00    0.309E-01
DAV:   2    -0.928484613964E+03   -0.13029E-01   -0.14319E-01  2352   0.264E-01    0.313E-01
DAV:   3    -0.928482973304E+03    0.16407E-02   -0.42071E-03  2976   0.727E-02    0.213E-01
DAV:   4    -0.928485670621E+03   -0.26973E-02   -0.37217E-03  2556   0.139E-01    0.176E-01
DAV:   5    -0.928482447834E+03    0.32228E-02   -0.14610E-03  2688   0.125E-01    0.970E-02
DAV:   6    -0.928482409560E+03    0.38274E-04   -0.68049E-04  3264   0.297E-02    0.538E-02
DAV:   7    -0.928482351386E+03    0.58174E-04   -0.41176E-04  2424   0.228E-02    0.322E-02
DAV:   8    -0.928482342437E+03    0.89483E-05   -0.29047E-04  2628   0.188E-02    0.212E-02
DAV:   9    -0.928482351526E+03   -0.90883E-05   -0.11783E-04  2484   0.110E-02    0.238E-02
DAV:  10    -0.928482343646E+03    0.78797E-05   -0.12611E-05  1836   0.644E-03    0.111E-02
DAV:  11    -0.928482349596E+03   -0.59502E-05   -0.60089E-05  2040   0.639E-03    0.528E-03
DAV:  12    -0.928482352380E+03   -0.27839E-05   -0.57517E-06  1488   0.284E-03
   4 F= -.92848235E+03 E0= -.92844743E+03  d E =-.107690E+01
       N       E                     dE             d eps       ncg     rms          rms(c)
DAV:   1    -0.928482409440E+03   -0.59844E-04   -0.22529E-01  2088   0.478E-01    0.979E-02
DAV:   2    -0.928483522955E+03   -0.11135E-02   -0.12236E-02  2376   0.795E-02    0.892E-02
DAV:   3    -0.928483401789E+03    0.12117E-03   -0.45808E-04  2940   0.224E-02    0.610E-02
DAV:   4    -0.928483610569E+03   -0.20878E-03   -0.19548E-04  2592   0.369E-02    0.541E-02
DAV:   5    -0.928483376129E+03    0.23444E-03   -0.72850E-05  2772   0.338E-02    0.354E-02
DAV:   6    -0.928483371117E+03    0.50125E-05   -0.78632E-05  2820   0.995E-03    0.162E-02
DAV:   7    -0.928483368904E+03    0.22124E-05   -0.53123E-05  2340   0.892E-03    0.115E-02
DAV:   8    -0.928483367033E+03    0.18709E-05   -0.36332E-05  2268   0.609E-03
   5 F= -.92848337E+03 E0= -.92844860E+03  d E =-.107792E+01
       N       E                     dE             d eps       ncg     rms          rms(c)
DAV:   1    -0.928551303443E+03   -0.67935E-01   -0.30402E+00  2112   0.186E+00    0.340E-01
DAV:   2    -0.928560466619E+03   -0.91632E-02   -0.10307E-01  2712   0.269E-01    0.182E-01
DAV:   3    -0.928559947071E+03    0.51955E-03   -0.20596E-03  2808   0.763E-02    0.116E-01
DAV:   4    -0.928561634240E+03   -0.16872E-02   -0.24134E-03  2760   0.123E-01    0.122E-01
DAV:   5    -0.928559878990E+03    0.17552E-02   -0.94204E-04  2604   0.938E-02    0.558E-02
DAV:   6    -0.928559891530E+03   -0.12539E-04   -0.63260E-04  2556   0.356E-02    0.338E-02
DAV:   7    -0.928559869880E+03    0.21650E-04   -0.48625E-04  2868   0.311E-02    0.285E-02
DAV:   8    -0.928559840840E+03    0.29040E-04   -0.12716E-04  2532   0.159E-02    0.207E-02
DAV:   9    -0.928559838696E+03    0.21448E-05   -0.10397E-04  2604   0.965E-03    0.100E-02
DAV:  10    -0.928559841232E+03   -0.25366E-05   -0.32923E-05  2112   0.544E-03
   6 F= -.92855984E+03 E0= -.92852437E+03  d E =-.764742E-01
       N       E                     dE             d eps       ncg     rms          rms(c)
DAV:   1    -0.928612173466E+03   -0.52335E-01   -0.27477E+01  2160   0.560E+00    0.102E+00
DAV:   2    -0.928689339546E+03   -0.77166E-01   -0.87944E-01  2604   0.802E-01    0.476E-01
DAV:   3    -0.928688309181E+03    0.10304E-02   -0.32559E-02  2784   0.237E-01    0.322E-01
DAV:   4    -0.928699152481E+03   -0.10843E-01   -0.11906E-02  2676   0.340E-01    0.358E-01
DAV:   5    -0.928685914604E+03    0.13238E-01   -0.32012E-03  2700   0.245E-01    0.168E-01
DAV:   6    -0.928686458830E+03   -0.54423E-03   -0.77052E-03  2424   0.966E-02    0.880E-02
DAV:   7    -0.928686145040E+03    0.31379E-03   -0.27926E-03  2496   0.754E-02    0.747E-02
DAV:   8    -0.928685962452E+03    0.18259E-03   -0.55170E-04  2604   0.375E-02    0.482E-02
DAV:   9    -0.928685982894E+03   -0.20442E-04   -0.81892E-04  2460   0.271E-02    0.423E-02
DAV:  10    -0.928685978734E+03    0.41599E-05   -0.11714E-04  2604   0.135E-02    0.319E-02
DAV:  11    -0.928685980128E+03   -0.13944E-05   -0.14085E-04  2460   0.110E-02    0.771E-03
DAV:  12    -0.928685991513E+03   -0.11385E-04   -0.39488E-05  2148   0.646E-03    0.452E-03
DAV:  13    -0.928686005886E+03   -0.14373E-04   -0.24544E-06  1392   0.190E-03    0.289E-03
DAV:  14    -0.928686029083E+03   -0.23197E-04   -0.18330E-06  1404   0.160E-03    0.169E-03
DAV:  15    -0.928686048956E+03   -0.19873E-04   -0.20076E-06  1548   0.159E-03    0.170E-03
DAV:  16    -0.928686058003E+03   -0.90469E-05   -0.10811E-06  1236   0.108E-03    0.185E-03
DAV:  17    -0.928686070459E+03   -0.12456E-04   -0.99617E-07  1392   0.898E-04    0.815E-04
DAV:  18    -0.928686076076E+03   -0.56172E-05   -0.76073E-07  1320   0.764E-04    0.611E-04
DAV:  19    -0.928686078441E+03   -0.23643E-05   -0.20645E-07  1176   0.482E-04
   7 F= -.92868608E+03 E0= -.92864873E+03  d E =-.202711E+00
       N       E                     dE             d eps       ncg     rms          rms(c)
DAV:   1    -0.928686849471E+03   -0.77339E-03   -0.32080E+00  2088   0.191E+00    0.336E-01
DAV:   2    -0.928696236102E+03   -0.93866E-02   -0.10639E-01  2676   0.281E-01    0.198E-01
DAV:   3    -0.928695365460E+03    0.87064E-03   -0.28429E-03  3012   0.749E-02    0.113E-01
DAV:   4    -0.928695782910E+03   -0.41745E-03   -0.43562E-03  2400   0.641E-02    0.816E-02
DAV:   5    -0.928695718432E+03    0.64478E-04   -0.42421E-04  2496   0.571E-02    0.669E-02
DAV:   6    -0.928695614293E+03    0.10414E-03   -0.53894E-04  2640   0.468E-02    0.411E-02
DAV:   7    -0.928695578710E+03    0.35583E-04   -0.39893E-04  2688   0.351E-02    0.299E-02
DAV:   8    -0.928695548921E+03    0.29790E-04   -0.24721E-04  2448   0.201E-02    0.279E-02
DAV:   9    -0.928695532758E+03    0.16162E-04   -0.83698E-05  2964   0.110E-02    0.127E-02
DAV:  10    -0.928695537936E+03   -0.51780E-05   -0.79904E-05  2304   0.730E-03    0.983E-03
DAV:  11    -0.928695538024E+03   -0.87115E-07   -0.31667E-06  1260   0.241E-03
   8 F= -.92869554E+03 E0= -.92865766E+03  d E =-.212171E+00
       N       E                     dE             d eps       ncg     rms          rms(c)
DAV:   1    -0.928697203315E+03   -0.16654E-02   -0.33364E+00  2076   0.188E+00    0.338E-01
DAV:   2    -0.928710459961E+03   -0.13257E-01   -0.14490E-01  2412   0.270E-01    0.263E-01
DAV:   3    -0.928709161065E+03    0.12989E-02   -0.31979E-03  2904   0.743E-02    0.175E-01
DAV:   4    -0.928712284094E+03   -0.31230E-02   -0.31627E-03  2556   0.151E-01    0.173E-01
DAV:   5    -0.928708714707E+03    0.35694E-02   -0.17997E-03  2664   0.128E-01    0.758E-02
DAV:   6    -0.928708810109E+03   -0.95402E-04   -0.87426E-04  2916   0.390E-02    0.461E-02
DAV:   7    -0.928708814382E+03   -0.42726E-05   -0.66988E-04  2844   0.379E-02    0.430E-02
DAV:   8    -0.928708732105E+03    0.82277E-04   -0.17917E-04  2520   0.228E-02    0.198E-02
DAV:   9    -0.928708753577E+03   -0.21472E-04   -0.32418E-04  2472   0.152E-02    0.232E-02
DAV:  10    -0.928708754825E+03   -0.12486E-05   -0.35767E-05  2376   0.642E-03
   9 F= -.92870875E+03 E0= -.92867045E+03  d E =-.132168E-01
       N       E                     dE             d eps       ncg     rms          rms(c)
DAV:   1    -0.928707360057E+03    0.13935E-02   -0.97088E-01  2076   0.101E+00    0.181E-01
DAV:   2    -0.928711379265E+03   -0.40192E-02   -0.42791E-02  2388   0.148E-01    0.145E-01
DAV:   3    -0.928711003926E+03    0.37534E-03   -0.92510E-04  2952   0.393E-02    0.981E-02
DAV:   4    -0.928711910217E+03   -0.90629E-03   -0.10222E-03  2544   0.806E-02    0.937E-02
DAV:   5    -0.928710882423E+03    0.10278E-02   -0.52904E-04  2664   0.698E-02    0.429E-02
DAV:   6    -0.928710916611E+03   -0.34187E-04   -0.26786E-04  2940   0.225E-02    0.285E-02
DAV:   7    -0.928710918456E+03   -0.18448E-05   -0.22720E-04  2808   0.217E-02    0.281E-02
DAV:   8    -0.928710892153E+03    0.26303E-04   -0.64928E-05  2496   0.134E-02    0.128E-02
DAV:   9    -0.928710901343E+03   -0.91906E-05   -0.12807E-04  2400   0.945E-03    0.131E-02
DAV:  10    -0.928710905425E+03   -0.40812E-05   -0.13755E-05  1956   0.396E-03
  10 F= -.92871091E+03 E0= -.92867237E+03  d E =-.153674E-01
       N       E                     dE             d eps       ncg     rms          rms(c)
DAV:   1    -0.928715619288E+03   -0.47179E-02   -0.63337E-01  2106   0.899E-01    0.174E-01
DAV:   2    -0.928718267456E+03   -0.26482E-02   -0.28295E-02  2544   0.153E-01    0.109E-01
DAV:   3    -0.928718590031E+03   -0.32257E-03   -0.54253E-04  2892   0.764E-02    0.830E-02
DAV:   4    -0.928718135397E+03    0.45463E-03   -0.77889E-04  2532   0.738E-02    0.503E-02
DAV:   5    -0.928718039061E+03    0.96336E-04   -0.20730E-04  2448   0.267E-02    0.260E-02
DAV:   6    -0.928718062108E+03   -0.23047E-04   -0.15415E-04  2484   0.158E-02    0.110E-02
DAV:   7    -0.928718059752E+03    0.23552E-05   -0.67068E-05  2436   0.116E-02    0.847E-03
DAV:   8    -0.928718059650E+03    0.10273E-06   -0.11000E-05  1944   0.543E-03
  11 F= -.92871806E+03 E0= -.92867952E+03  d E =-.715423E-02
       N       E                     dE             d eps       ncg     rms          rms(c)
DAV:   1    -0.928717769110E+03    0.29064E-03   -0.17197E+00  2100   0.148E+00    0.286E-01
DAV:   2    -0.928724782079E+03   -0.70130E-02   -0.77443E-02  2556   0.253E-01    0.181E-01
DAV:   3    -0.928725667749E+03   -0.88567E-03   -0.14942E-03  2904   0.128E-01    0.138E-01
DAV:   4    -0.928724333297E+03    0.13345E-02   -0.21117E-03  2532   0.123E-01    0.828E-02
DAV:   5    -0.928724053499E+03    0.27980E-03   -0.56934E-04  2448   0.435E-02    0.430E-02
DAV:   6    -0.928724098320E+03   -0.44820E-04   -0.41228E-04  2472   0.262E-02    0.183E-02
DAV:   7    -0.928724084197E+03    0.14122E-04   -0.18820E-04  2436   0.197E-02    0.139E-02
DAV:   8    -0.928724081007E+03    0.31899E-05   -0.33724E-05  2460   0.919E-03
  12 F= -.92872408E+03 E0= -.92868558E+03  d E =-.131756E-01
       N       E                     dE             d eps       ncg     rms          rms(c)
DAV:   1    -0.928723803841E+03    0.28036E-03   -0.16177E-01  2112   0.454E-01    0.954E-02
DAV:   2    -0.928724490814E+03   -0.68697E-03   -0.76357E-03  2556   0.783E-02    0.570E-02
DAV:   3    -0.928724589437E+03   -0.98623E-04   -0.14132E-04  2892   0.415E-02    0.435E-02
DAV:   4    -0.928724440859E+03    0.14858E-03   -0.19627E-04  2496   0.394E-02    0.253E-02
DAV:   5    -0.928724416938E+03    0.23921E-04   -0.57835E-05  2412   0.138E-02    0.130E-02
DAV:   6    -0.928724423748E+03   -0.68106E-05   -0.38010E-05  2424   0.872E-03    0.649E-03
DAV:   7    -0.928724422133E+03    0.16158E-05   -0.19643E-05  2184   0.688E-03
  13 F= -.92872442E+03 E0= -.92868596E+03  d E =-.135167E-01
       N       E                     dE             d eps       ncg     rms          rms(c)
DAV:   1    -0.928724620773E+03   -0.19703E-03   -0.78386E-01  2100   0.955E-01    0.188E-01
DAV:   2    -0.928727603922E+03   -0.29831E-02   -0.32791E-02  2460   0.145E-01    0.928E-02
DAV:   3    -0.928728885637E+03   -0.12817E-02   -0.92085E-04  2724   0.102E-01    0.110E-01
DAV:   4    -0.928727404578E+03    0.14811E-02   -0.29298E-04  2664   0.853E-02    0.612E-02
DAV:   5    -0.928727346094E+03    0.58484E-04   -0.32690E-04  2544   0.221E-02    0.239E-02
DAV:   6    -0.928727359182E+03   -0.13088E-04   -0.22684E-04  2496   0.153E-02    0.121E-02
DAV:   7    -0.928727356768E+03    0.24138E-05   -0.32798E-05  2388   0.815E-03
  14 F= -.92872736E+03 E0= -.92868899E+03  d E =-.293464E-02
       N       E                     dE             d eps       ncg     rms          rms(c)
DAV:   1    -0.928726600042E+03    0.75914E-03   -0.42262E-01  2088   0.701E-01    0.142E-01
DAV:   2    -0.928728227521E+03   -0.16275E-02   -0.17820E-02  2472   0.107E-01    0.678E-02
DAV:   3    -0.928728898240E+03   -0.67072E-03   -0.49184E-04  2712   0.736E-02    0.803E-02
DAV:   4    -0.928728128577E+03    0.76966E-03   -0.15884E-04  2664   0.620E-02    0.454E-02
DAV:   5    -0.928728122794E+03    0.57827E-05   -0.19255E-04  2592   0.195E-02    0.234E-02
DAV:   6    -0.928728108147E+03    0.14647E-04   -0.16886E-04  2460   0.188E-02    0.107E-02
DAV:   7    -0.928728105038E+03    0.31095E-05   -0.48835E-05  2412   0.971E-03
  15 F= -.92872811E+03 E0= -.92868981E+03  d E =-.368291E-02
       N       E                     dE             d eps       ncg     rms          rms(c)
DAV:   1    -0.928729309019E+03   -0.12009E-02   -0.13264E-01  2124   0.474E-01    0.104E-01
DAV:   2    -0.928730965436E+03   -0.16564E-02   -0.16348E-02  2508   0.124E-01    0.142E-01
DAV:   3    -0.928730747156E+03    0.21828E-03   -0.49871E-04  2556   0.654E-02    0.113E-01
DAV:   4    -0.928730527667E+03    0.21949E-03   -0.61690E-04  2472   0.457E-02    0.764E-02
DAV:   5    -0.928730410652E+03    0.11701E-03   -0.79447E-04  3504   0.317E-02    0.199E-02
DAV:   6    -0.928730436220E+03   -0.25568E-04   -0.33191E-04  2256   0.188E-02    0.208E-02
DAV:   7    -0.928730431722E+03    0.44977E-05   -0.35836E-05  2712   0.104E-02
  16 F= -.92873043E+03 E0= -.92869244E+03  d E =-.232668E-02
       N       E                     dE             d eps       ncg     rms          rms(c)
DAV:   1    -0.928730442437E+03   -0.62166E-05   -0.13839E-03  2172   0.484E-02    0.170E-02
DAV:   2    -0.928730467124E+03   -0.24687E-04   -0.25193E-04  2580   0.151E-02    0.177E-02
DAV:   3    -0.928730465544E+03    0.15800E-05   -0.86168E-06  1944   0.104E-02    0.130E-02
DAV:   4    -0.928730459222E+03    0.63216E-05   -0.16973E-05  2208   0.816E-03    0.704E-03
DAV:   5    -0.928730460397E+03   -0.11741E-05   -0.85377E-06  2148   0.520E-03    0.417E-03
DAV:   6    -0.928730459227E+03    0.11699E-05   -0.87555E-06  2040   0.420E-03
  17 F= -.92873046E+03 E0= -.92869249E+03  d E =-.235419E-02
       N       E                     dE             d eps       ncg     rms          rms(c)
DAV:   1    -0.928731337412E+03   -0.87702E-03   -0.12926E-01  2100   0.426E-01    0.841E-02
DAV:   2    -0.928731944403E+03   -0.60699E-03   -0.63901E-03  2484   0.804E-02    0.513E-02
DAV:   3    -0.928732359214E+03   -0.41481E-03   -0.44607E-04  2736   0.657E-02    0.628E-02
DAV:   4    -0.928731863332E+03    0.49588E-03   -0.11111E-04  2748   0.504E-02    0.331E-02
DAV:   5    -0.928731872237E+03   -0.89050E-05   -0.10416E-04  2568   0.164E-02    0.235E-02
DAV:   6    -0.928731861824E+03    0.10413E-04   -0.94996E-05  2436   0.145E-02    0.140E-02
DAV:   7    -0.928731860702E+03    0.11221E-05   -0.25633E-05  2472   0.728E-03
  18 F= -.92873186E+03 E0= -.92869399E+03  d E =-.140148E-02
       N       E                     dE             d eps       ncg     rms          rms(c)
DAV:   1    -0.928731905881E+03   -0.44058E-04   -0.32832E-02  2100   0.215E-01    0.454E-02
DAV:   2    -0.928732058403E+03   -0.15252E-03   -0.15908E-03  2508   0.405E-02    0.248E-02
DAV:   3    -0.928732192704E+03   -0.13430E-03   -0.12734E-04  2700   0.351E-02    0.332E-02
DAV:   4    -0.928732042865E+03    0.14984E-03   -0.31465E-05  2580   0.274E-02    0.165E-02
DAV:   5    -0.928732045216E+03   -0.23512E-05   -0.25263E-05  2388   0.856E-03    0.120E-02
DAV:   6    -0.928732043172E+03    0.20437E-05   -0.25486E-05  2208   0.752E-03
  19 F= -.92873204E+03 E0= -.92869422E+03  d E =-.158395E-02
       N       E                     dE             d eps       ncg     rms          rms(c)
DAV:   1    -0.928732364572E+03   -0.31936E-03   -0.43770E-02  2136   0.273E-01    0.346E-02
DAV:   2    -0.928732722576E+03   -0.35800E-03   -0.34688E-03  2580   0.560E-02    0.631E-02
DAV:   3    -0.928732670129E+03    0.52447E-04   -0.11094E-04  2592   0.217E-02    0.551E-02
DAV:   4    -0.928732656612E+03    0.13517E-04   -0.48480E-05  2400   0.104E-02    0.473E-02
DAV:   5    -0.928732620225E+03    0.36388E-04   -0.74644E-05  2856   0.118E-02    0.255E-02
DAV:   6    -0.928732619004E+03    0.12204E-05   -0.14548E-04  2232   0.138E-02    0.133E-02
DAV:   7    -0.928732611842E+03    0.71620E-05   -0.21929E-05  2448   0.707E-03    0.393E-03
DAV:   8    -0.928732612291E+03   -0.44870E-06   -0.62429E-06  1488   0.284E-03
  20 F= -.92873261E+03 E0= -.92869488E+03  d E =-.569119E-03
       N       E                     dE             d eps       ncg     rms          rms(c)
DAV:   1    -0.928732613348E+03   -0.15053E-05   -0.10046E-04  2196   0.129E-02    0.339E-03
DAV:   2    -0.928732614315E+03   -0.96710E-06   -0.70018E-06  1560   0.273E-03    0.203E-03
DAV:   3    -0.928732614881E+03   -0.56599E-06   -0.50560E-07  1164   0.181E-03    0.178E-03
DAV:   4    -0.928732614765E+03    0.11547E-06   -0.29518E-07  1116   0.153E-03    0.116E-03
DAV:   5    -0.928732615507E+03   -0.74172E-06   -0.21208E-07  1104   0.936E-04    0.772E-04
DAV:   6    -0.928732616026E+03   -0.51896E-06   -0.27542E-07  1080   0.787E-04
  21 F= -.92873262E+03 E0= -.92869489E+03  d E =-.572854E-03
       N       E                     dE             d eps       ncg     rms          rms(c)
DAV:   1    -0.928732853616E+03   -0.23811E-03   -0.29473E-02  2148   0.217E-01    0.365E-02
DAV:   2    -0.928733005446E+03   -0.15183E-03   -0.16931E-03  2436   0.417E-02    0.331E-02
DAV:   3    -0.928733010569E+03   -0.51225E-05   -0.94432E-05  2880   0.190E-02    0.258E-02
DAV:   4    -0.928732996334E+03    0.14235E-04   -0.39512E-05  2808   0.189E-02    0.203E-02
DAV:   5    -0.928732990440E+03    0.58940E-05   -0.38161E-05  2484   0.119E-02    0.141E-02
DAV:   6    -0.928732984084E+03    0.63557E-05   -0.25508E-05  2028   0.846E-03    0.995E-03
DAV:   7    -0.928732984564E+03   -0.47980E-06   -0.10648E-05  1848   0.452E-03
  22 F= -.92873298E+03 E0= -.92869521E+03  d E =-.368538E-03
       N       E                     dE             d eps       ncg     rms          rms(c)
DAV:   1    -0.928732987008E+03   -0.29238E-05   -0.63434E-04  2166   0.318E-02    0.729E-03
DAV:   2    -0.928732989842E+03   -0.28342E-05   -0.28969E-05  2160   0.617E-03    0.425E-03
DAV:   3    -0.928732992019E+03   -0.21764E-05   -0.46399E-06  1944   0.446E-03    0.428E-03
DAV:   4    -0.928732990433E+03    0.15852E-05   -0.10555E-06  1560   0.428E-03    0.296E-03
DAV:   5    -0.928732990194E+03    0.23899E-06   -0.41474E-07  1104   0.208E-03    0.213E-03
DAV:   6    -0.928732990255E+03   -0.60478E-07   -0.45940E-07  1092   0.136E-03
  23 F= -.92873299E+03 E0= -.92869522E+03  d E =-.374229E-03
       N       E                     dE             d eps       ncg     rms          rms(c)
DAV:   1    -0.928733152973E+03   -0.16278E-03   -0.83948E-03  2220   0.125E-01    0.178E-02
DAV:   2    -0.928733204475E+03   -0.51502E-04   -0.58444E-04  2436   0.246E-02    0.264E-02
DAV:   3    -0.928733196513E+03    0.79618E-05   -0.23943E-05  2484   0.684E-03    0.219E-02
DAV:   4    -0.928733207402E+03   -0.10889E-04   -0.61720E-05  2232   0.115E-02    0.124E-02
DAV:   5    -0.928733202984E+03    0.44183E-05   -0.38189E-05  2820   0.150E-02    0.138E-02
DAV:   6    -0.928733198965E+03    0.40194E-05   -0.48296E-05  2436   0.859E-03
  24 F= -.92873320E+03 E0= -.92869542E+03  d E =-.208710E-03
       N       E                     dE             d eps       ncg     rms          rms(c)
DAV:   1    -0.928733193904E+03    0.90806E-05   -0.14021E-04  2400   0.171E-02    0.138E-02
DAV:   2    -0.928733198701E+03   -0.47978E-05   -0.11657E-04  2340   0.940E-03    0.106E-02
DAV:   3    -0.928733196076E+03    0.26255E-05   -0.14776E-05  2172   0.535E-03    0.752E-03
DAV:   4    -0.928733196704E+03   -0.62842E-06   -0.11751E-05  1896   0.349E-03    0.315E-03
DAV:   5    -0.928733196684E+03    0.20616E-07   -0.12948E-06  1128   0.269E-03    0.222E-03
DAV:   6    -0.928733196464E+03    0.21947E-06   -0.52420E-07  1086   0.179E-03
  25 F= -.92873320E+03 E0= -.92869542E+03  d E =-.206209E-03
       N       E                     dE             d eps       ncg     rms          rms(c)
DAV:   1    -0.928733220194E+03   -0.23510E-04   -0.21543E-02  2106   0.171E-01    0.310E-02
DAV:   2    -0.928733321626E+03   -0.10143E-03   -0.11080E-03  2364   0.287E-02    0.239E-02
DAV:   3    -0.928733325415E+03   -0.37892E-05   -0.27993E-05  2568   0.134E-02    0.190E-02
DAV:   4    -0.928733315280E+03    0.10135E-04   -0.35081E-05  2328   0.134E-02    0.148E-02
DAV:   5    -0.928733310649E+03    0.46313E-05   -0.72189E-06  1908   0.624E-03    0.101E-02
DAV:   6    -0.928733310562E+03    0.87017E-07   -0.90675E-06  1956   0.528E-03
  26 F= -.92873331E+03 E0= -.92869551E+03  d E =-.114098E-03
       N       E                     dE             d eps       ncg     rms          rms(c)
DAV:   1    -0.928733308454E+03    0.21947E-05   -0.77635E-04  2088   0.330E-02    0.732E-03
DAV:   2    -0.928733310705E+03   -0.22510E-05   -0.29674E-05  2004   0.568E-03    0.458E-03
DAV:   3    -0.928733311275E+03   -0.56997E-06   -0.41844E-06  1704   0.341E-03    0.348E-03
DAV:   4    -0.928733311515E+03   -0.24018E-06   -0.17075E-06  1428   0.390E-03    0.342E-03
DAV:   5    -0.928733310700E+03    0.81548E-06   -0.40869E-07  1248   0.235E-03    0.208E-03
DAV:   6    -0.928733310817E+03   -0.11680E-06   -0.49071E-07  1038   0.130E-03
  27 F= -.92873331E+03 E0= -.92869550E+03  d E =-.114352E-03
       N       E                     dE             d eps       ncg     rms          rms(c)
DAV:   1    -0.928733354381E+03   -0.43682E-04   -0.38250E-03  2244   0.843E-02    0.132E-02
DAV:   2    -0.928733378032E+03   -0.23650E-04   -0.25559E-04  2460   0.176E-02    0.168E-02
DAV:   3    -0.928733375510E+03    0.25212E-05   -0.13088E-05  2208   0.848E-03    0.136E-02
DAV:   4    -0.928733371347E+03    0.41633E-05   -0.45018E-06  1860   0.605E-03    0.102E-02
DAV:   5    -0.928733373013E+03   -0.16657E-05   -0.44944E-05  2568   0.676E-03    0.764E-03
DAV:   6    -0.928733371981E+03    0.10319E-05   -0.10690E-05  1980   0.407E-03
  28 F= -.92873337E+03 E0= -.92869555E+03  d E =-.611644E-04
       N       E                     dE             d eps       ncg     rms          rms(c)
DAV:   1    -0.928733370861E+03    0.21524E-05   -0.13098E-05  1908   0.470E-03    0.337E-03
DAV:   2    -0.928733370744E+03    0.11684E-06   -0.24829E-06  1188   0.279E-03    0.119E-03
DAV:   3    -0.928733371421E+03   -0.67768E-06   -0.31432E-06  1272   0.272E-03    0.226E-03
DAV:   4    -0.928733371048E+03    0.37328E-06   -0.41103E-07  1056   0.208E-03    0.167E-03
DAV:   5    -0.928733370951E+03    0.96676E-07   -0.12453E-07  1038   0.896E-04    0.126E-03
DAV:   6    -0.928733370960E+03   -0.86875E-08   -0.15266E-07  1038   0.528E-04
  29 F= -.92873337E+03 E0= -.92869555E+03  d E =-.601435E-04
       N       E                     dE             d eps       ncg     rms          rms(c)
DAV:   1    -0.928733399799E+03   -0.28847E-04   -0.72515E-04  2178   0.348E-02    0.577E-03
DAV:   2    -0.928733402374E+03   -0.25752E-05   -0.32181E-05  2340   0.698E-03    0.322E-03
DAV:   3    -0.928733404469E+03   -0.20952E-05   -0.16554E-06  1644   0.484E-03    0.427E-03
DAV:   4    -0.928733402018E+03    0.24518E-05   -0.70766E-07  1548   0.371E-03    0.200E-03
DAV:   5    -0.928733401992E+03    0.25731E-07   -0.45758E-07  1092   0.153E-03    0.143E-03
DAV:   6    -0.928733402056E+03   -0.64683E-07   -0.53650E-07  1044   0.112E-03
  30 F= -.92873340E+03 E0= -.92869558E+03  d E =-.310964E-04
       N       E                     dE             d eps       ncg     rms          rms(c)
DAV:   1    -0.928733416099E+03   -0.14108E-04   -0.19810E-03  2172   0.575E-02    0.976E-03
DAV:   2    -0.928733423063E+03   -0.69631E-05   -0.87504E-05  2460   0.116E-02    0.513E-03
DAV:   3    -0.928733429484E+03   -0.64214E-05   -0.52112E-06  1740   0.821E-03    0.724E-03
DAV:   4    -0.928733422072E+03    0.74119E-05   -0.19620E-06  1668   0.632E-03    0.323E-03
DAV:   5    -0.928733421953E+03    0.11876E-06   -0.11983E-06  1188   0.247E-03    0.229E-03
DAV:   6    -0.928733421984E+03   -0.30996E-07   -0.13691E-06  1092   0.188E-03
  31 F= -.92873342E+03 E0= -.92869558E+03  d E =-.510242E-04
       N       E                     dE             d eps       ncg     rms          rms(c)
DAV:   1    -0.928733437849E+03   -0.15896E-04   -0.82508E-04  2196   0.374E-02    0.676E-03
DAV:   2    -0.928733440875E+03   -0.30257E-05   -0.35648E-05  2340   0.708E-03    0.345E-03
DAV:   3    -0.928733444185E+03   -0.33107E-05   -0.20234E-06  1644   0.546E-03    0.499E-03
DAV:   4    -0.928733440510E+03    0.36750E-05   -0.67019E-07  1584   0.421E-03    0.211E-03
DAV:   5    -0.928733440681E+03   -0.17041E-06   -0.82654E-07  1104   0.156E-03    0.118E-03
DAV:   6    -0.928733440658E+03    0.22861E-07   -0.60802E-07  1080   0.138E-03
  32 F= -.92873344E+03 E0= -.92869560E+03  d E =-.186737E-04
       N       E                     dE             d eps       ncg     rms          rms(c)
DAV:   1    -0.928733444307E+03   -0.36259E-05   -0.86649E-04  2196   0.384E-02    0.675E-03
DAV:   2    -0.928733447748E+03   -0.34412E-05   -0.37310E-05  2340   0.719E-03    0.353E-03
DAV:   3    -0.928733450957E+03   -0.32095E-05   -0.21120E-06  1644   0.547E-03    0.499E-03
DAV:   4    -0.928733447390E+03    0.35679E-05   -0.68069E-07  1572   0.417E-03    0.220E-03
DAV:   5    -0.928733447575E+03   -0.18497E-06   -0.72800E-07  1128   0.161E-03    0.131E-03
DAV:   6    -0.928733447535E+03    0.39439E-07   -0.62970E-07  1086   0.144E-03
  33 F= -.92873345E+03 E0= -.92869560E+03  d E =-.255509E-04
