 vasp.5.4.4.18Apr17-6-g9f103f2a35 (build May 02 2017 15:33:50) complex          
  
 executed on Intel-16.0.3.210-OMP date 2018.07.08  13:39:14
 running on    6 total cores
 distrk:  each k-point on    6 cores,    1 groups
 distr:  one band on NCORES_PER_BAND=   1 cores,    6 groups


--------------------------------------------------------------------------------------------------------


 INCAR:
 POTCAR:    PAW Al_GW 19Mar2012                   
 POTCAR:    PAW_PBE N 08Apr2002                   

 ----------------------------------------------------------------------------- 
|                                                                             |
|           W    W    AA    RRRRR   N    N  II  N    N   GGGG   !!!           |
|           W    W   A  A   R    R  NN   N  II  NN   N  G    G  !!!           |
|           W    W  A    A  R    R  N N  N  II  N N  N  G       !!!           |
|           W WW W  AAAAAA  RRRRR   N  N N  II  N  N N  G  GGG   !            |
|           WW  WW  A    A  R   R   N   NN  II  N   NN  G    G                |
|           W    W  A    A  R    R  N    N  II  N    N   GGGG   !!!           |
|                                                                             |
|      For optimal performance we recommend to set                            |
|        NCORE= 4 - approx SQRT( number of cores)                             |
|      NCORE specifies how many cores store one orbital (NPAR=cpu/NCORE).     |
|      This setting can  greatly improve the performance of VASP for DFT.     |
|      The default,   NCORE=1            might be grossly inefficient         |
|      on modern multi-core architectures or massively parallel machines.     |
|      Do your own testing !!!!                                               |
|      Unfortunately you need to use the default for GW and RPA calculations. |
|      (for HF NCORE is supported but not extensively tested yet)             |
|                                                                             |
 ----------------------------------------------------------------------------- 

 POTCAR:    PAW Al_GW 19Mar2012                   
   VRHFIN =Al: s2p1                                                             
   LEXCH  = PE                                                                  
   EATOM  =    53.5387 eV,    3.9350 Ry                                         
                                                                                
   TITEL  = PAW Al_GW 19Mar2012                                                 
   LULTRA =        F    use ultrasoft PP ?                                      
   IUNSCR =        1    unscreen: 0-lin 1-nonlin 2-no                           
   RPACOR =    1.500    partial core radius                                     
   POMASS =   26.982; ZVAL   =    3.000    mass and valenz                      
   RCORE  =    2.000    outmost cutoff radius                                   
   RWIGS  =    2.000; RWIGS  =    1.058    wigner-seitz radius (au A)           
   ENMAX  =  240.300; ENMIN  =  180.225 eV                                      
   ICORE  =        3    local potential                                         
   LCOR   =        T    correct aug charges                                     
   LPAW   =        T    paw PP                                                  
   EAUG   =  482.059                                                            
   DEXC   =    0.000                                                            
   RMAX   =    2.051    core radius for proj-oper                               
   RAUG   =    1.300    factor for augmentation sphere                          
   RDEP   =    2.096    radius for radial grids                                 
   RDEPT  =    1.856    core radius for aug-charge                              
                                                                                
   Atomic configuration                                                         
    7 entries                                                                   
     n  l   j            E        occ.                                          
     1  0  0.50     -1511.1048   2.0000                                         
     2  0  0.50      -108.1629   2.0000                                         
     2  1  1.50       -69.6402   6.0000                                         
     3  0  0.50        -7.7528   2.0000                                         
     3  1  1.50        -2.7121   1.0000                                         
     3  2  2.50        -2.7212   0.0000                                         
     4  3  2.50        -2.7212   0.0000                                         
   Description                                                                  
     l       E           TYP  RCUT    TYP  RCUT                                 
     0     -7.7528455     23  1.900                                             
     0     68.0291300     23  1.900                                             
     1     -2.7120682     23  1.900                                             
     1     68.0291300     23  1.900                                             
     2     -1.3605826     23  1.900                                             
     2     81.6349560     23  1.900                                             
     3     74.8320430     23  2.000                                             
  local pseudopotential read in
  partial core-charges read in
  partial kinetic energy density read in
  kinetic energy density of atom read in
  atomic valenz-charges read in
  non local Contribution for L=           0  read in
    real space projection operators read in
  non local Contribution for L=           0  read in
    real space projection operators read in
  non local Contribution for L=           1  read in
    real space projection operators read in
  non local Contribution for L=           1  read in
    real space projection operators read in
  non local Contribution for L=           2  read in
    real space projection operators read in
  non local Contribution for L=           2  read in
    real space projection operators read in
    PAW grid and wavefunctions read in
 
   number of l-projection  operators is LMAX  =           6
   number of lm-projection operators is LMMAX =          18
 
 POTCAR:    PAW_PBE N 08Apr2002                   
   VRHFIN =N: s2p3                                                              
   LEXCH  = PE                                                                  
   EATOM  =   264.5486 eV,   19.4438 Ry                                         
                                                                                
   TITEL  = PAW_PBE N 08Apr2002                                                 
   LULTRA =        F    use ultrasoft PP ?                                      
   IUNSCR =        1    unscreen: 0-lin 1-nonlin 2-no                           
   RPACOR =    1.200    partial core radius                                     
   POMASS =   14.001; ZVAL   =    5.000    mass and valenz                      
   RCORE  =    1.500    outmost cutoff radius                                   
   RWIGS  =    1.400; RWIGS  =    0.741    wigner-seitz radius (au A)           
   ENMAX  =  400.000; ENMIN  =  300.000 eV                                      
   ICORE  =        2    local potential                                         
   LCOR   =        T    correct aug charges                                     
   LPAW   =        T    paw PP                                                  
   EAUG   =  627.112                                                            
   DEXC   =    0.000                                                            
   RMAX   =    1.529    core radius for proj-oper                               
   RAUG   =    1.300    factor for augmentation sphere                          
   RDEP   =    1.514    radius for radial grids                                 
   RDEPT  =    1.338    core radius for aug-charge                              
                                                                                
   Atomic configuration                                                         
    4 entries                                                                   
     n  l   j            E        occ.                                          
     1  0  0.50      -384.7179   2.0000                                         
     2  0  0.50       -18.5828   2.0000                                         
     2  1  0.50        -7.0898   3.0000                                         
     3  2  1.50        -6.8029   0.0000                                         
   Description                                                                  
     l       E           TYP  RCUT    TYP  RCUT                                 
     0    -18.5828119     23  1.200                                             
     0    -13.5018863     23  1.200                                             
     1     -7.0897853     23  1.500                                             
     1      9.5240782     23  1.500                                             
     2     -6.8029130      7  1.500                                             
  local pseudopotential read in
  partial core-charges read in
  partial kinetic energy density read in
  atomic valenz-charges read in
  non local Contribution for L=           0  read in
    real space projection operators read in
  non local Contribution for L=           0  read in
    real space projection operators read in
  non local Contribution for L=           1  read in
    real space projection operators read in
  non local Contribution for L=           1  read in
    real space projection operators read in
    PAW grid and wavefunctions read in
 
   number of l-projection  operators is LMAX  =           4
   number of lm-projection operators is LMMAX =           8
 
 Optimization of the real space projectors (new method)

 maximal supplied QI-value         = 18.90
 optimisation between [QCUT,QGAM] = [  8.69, 17.57] = [ 21.16, 86.49] Ry 
 Optimized for a Real-space Cutoff    1.59 Angstroem

   l    n(q)    QCUT    max X(q) W(low)/X(q) W(high)/X(q)  e(spline) 
   0      8     8.693    11.519    0.12E-03    0.31E-04    0.21E-06
   0      8     8.693     5.834    0.89E-04    0.32E-04    0.16E-06
   1      8     8.693    10.132    0.25E-03    0.39E-03    0.25E-06
   1      8     8.693     3.004    0.16E-03    0.27E-03    0.22E-06
   2      7     8.693     3.169    0.39E-03    0.93E-03    0.44E-06
   2      7     8.693     1.605    0.70E-04    0.91E-04    0.19E-06
 Optimization of the real space projectors (new method)

 maximal supplied QI-value         = 25.13
 optimisation between [QCUT,QGAM] = [  8.80, 17.59] = [ 21.67, 86.68] Ry 
 Optimized for a Real-space Cutoff    2.14 Angstroem

   l    n(q)    QCUT    max X(q) W(low)/X(q) W(high)/X(q)  e(spline) 
   0     11     8.797    79.467    0.70E-04    0.19E-04    0.19E-05
   0     11     8.797    66.151    0.68E-04    0.18E-04    0.19E-05
   1     11     8.797     6.738    0.26E-03    0.11E-02    0.73E-05
   1     11     8.797     5.013    0.25E-03    0.11E-02    0.72E-05
  PAW Al_GW 19Mar2012                   :
 energy of atom  1       EATOM=  -53.5387
 kinetic energy error for atom=    0.0011 (will be added to EATOM!!)
  PAW_PBE N 08Apr2002                   :
 energy of atom  2       EATOM= -264.5486
 kinetic energy error for atom=    0.6882 (will be added to EATOM!!)
 
 
 POSCAR: New structure                           
  positions in direct lattice
  No initial velocities read in
 exchange correlation table for  LEXCH =        8
   RHO(1)=    0.500       N(1)  =     2000
   RHO(2)=  100.500       N(2)  =     4000
 


--------------------------------------------------------------------------------------------------------


 ion  position               nearest neighbor table
   1  0.444  0.444  0.079-
   2  0.444  0.778  0.079-
   3  0.444  0.111  0.079-
   4  0.778  0.444  0.079-
   5  0.778  0.778  0.079-
   6  0.778  0.111  0.079-
   7  0.111  0.444  0.079-
   8  0.111  0.778  0.079-
   9  0.111  0.111  0.079-
  10  0.556  0.556  0.157-
  11  0.556  0.889  0.157-
  12  0.556  0.222  0.157-
  13  0.889  0.556  0.157-
  14  0.889  0.889  0.157-
  15  0.889  0.222  0.157-
  16  0.222  0.556  0.157-
  17  0.222  0.889  0.157-
  18  0.222  0.222  0.157-
  19  0.667  0.667  0.234-
  20  0.667  0.000  0.234-
  21  0.667  0.333  0.234-
  22  0.000  0.667  0.234-
  23  0.000  0.000  0.234-
  24  0.000  0.333  0.234-
  25  0.333  0.667  0.234-
  26  0.333  0.000  0.234-
  27  0.333  0.333  0.234-
  28  0.778  0.778  0.312-
  29  0.778  0.111  0.312-
  30  0.778  0.444  0.312-
  31  0.111  0.778  0.312-
  32  0.111  0.111  0.312-
  33  0.111  0.444  0.312-
  34  0.444  0.778  0.312-
  35  0.444  0.111  0.312-
  36  0.444  0.444  0.312-
  37  0.889  0.889  0.390-
  38  0.889  0.222  0.390-
  39  0.889  0.556  0.390-
  40  0.222  0.889  0.390-
  41  0.222  0.222  0.390-
  42  0.222  0.556  0.390-
  43  0.556  0.889  0.390-
  44  0.556  0.222  0.390-
  45  0.556  0.556  0.390-
  46  0.000  0.000  0.466-
  47  0.000  0.333  0.466-
  48  0.000  0.667  0.466-
  49  0.333  0.000  0.466-
  50  0.333  0.333  0.466-
  51  0.333  0.667  0.466-
  52  0.667  0.000  0.466-
  53  0.667  0.333  0.466-
  54  0.667  0.667  0.466-
  55  0.111  0.111  0.545-
  56  0.111  0.444  0.545-
  57  0.111  0.778  0.545-
  58  0.444  0.111  0.545-
  59  0.444  0.444  0.545- 253 2.14
  60  0.444  0.778  0.545-
  61  0.778  0.111  0.545-
  62  0.778  0.444  0.545-
  63  0.778  0.778  0.545-
  64  0.278  0.278  0.079-
  65  0.278  0.611  0.079-
  66  0.278  0.944  0.079-
  67  0.611  0.278  0.079-
  68  0.611  0.611  0.079-
  69  0.611  0.944  0.079-
  70  0.944  0.278  0.079-
  71  0.944  0.611  0.079-
  72  0.944  0.944  0.079-
  73  0.389  0.389  0.157-
  74  0.389  0.722  0.157-
  75  0.389  0.056  0.157-
  76  0.722  0.389  0.157-
  77  0.722  0.722  0.157-
  78  0.722  0.056  0.157-
  79  0.056  0.389  0.157-
  80  0.056  0.722  0.157-
  81  0.056  0.056  0.157-
  82  0.500  0.500  0.234-
  83  0.500  0.833  0.234-
  84  0.500  0.167  0.234-
  85  0.833  0.500  0.234-
  86  0.833  0.833  0.234-
  87  0.833  0.167  0.234-
  88  0.167  0.500  0.234-
  89  0.167  0.833  0.234-
  90  0.167  0.167  0.234-
  91  0.611  0.611  0.312-
  92  0.611  0.944  0.312-
  93  0.611  0.278  0.312-
  94  0.944  0.611  0.312-
  95  0.944  0.944  0.312-
  96  0.944  0.278  0.312-
  97  0.278  0.611  0.312-
  98  0.278  0.944  0.312-
  99  0.278  0.278  0.312-
 100  0.722  0.722  0.390-
 101  0.722  0.056  0.390-
 102  0.722  0.389  0.390-
 103  0.056  0.722  0.390-
 104  0.056  0.056  0.390-
 105  0.056  0.389  0.390-
 106  0.389  0.722  0.390-
 107  0.389  0.056  0.390-
 108  0.389  0.389  0.390-
 109  0.833  0.833  0.466-
 110  0.833  0.167  0.466-
 111  0.833  0.500  0.466-
 112  0.167  0.833  0.466-
 113  0.167  0.167  0.466-
 114  0.167  0.500  0.466-
 115  0.500  0.833  0.466-
 116  0.500  0.167  0.466-
 117  0.500  0.500  0.466-
 118  0.944  0.944  0.545-
 119  0.944  0.278  0.545-
 120  0.944  0.611  0.545-
 121  0.278  0.944  0.545-
 122  0.278  0.278  0.545-
 123  0.278  0.611  0.545- 253 2.14
 124  0.611  0.944  0.545-
 125  0.611  0.278  0.545-
 126  0.611  0.611  0.545-
 127  0.278  0.444  0.079-
 128  0.278  0.778  0.079-
 129  0.278  0.111  0.079-
 130  0.611  0.444  0.079-
 131  0.611  0.778  0.079-
 132  0.611  0.111  0.079-
 133  0.944  0.444  0.079-
 134  0.944  0.778  0.079-
 135  0.944  0.111  0.079-
 136  0.389  0.556  0.157-
 137  0.389  0.889  0.157-
 138  0.389  0.222  0.157-
 139  0.722  0.556  0.157-
 140  0.722  0.889  0.157-
 141  0.722  0.222  0.157-
 142  0.056  0.556  0.157-
 143  0.056  0.889  0.157-
 144  0.056  0.222  0.157-
 145  0.500  0.667  0.234-
 146  0.500  0.000  0.234-
 147  0.500  0.333  0.234-
 148  0.833  0.667  0.234-
 149  0.833  0.000  0.234-
 150  0.833  0.333  0.234-
 151  0.167  0.667  0.234-
 152  0.167  0.000  0.234-
 153  0.167  0.333  0.234-
 154  0.611  0.778  0.312-
 155  0.611  0.111  0.312-
 156  0.611  0.444  0.312-
 157  0.944  0.778  0.312-
 158  0.944  0.111  0.312-
 159  0.944  0.444  0.312-
 160  0.278  0.778  0.312-
 161  0.278  0.111  0.312-
 162  0.278  0.444  0.312-
 163  0.722  0.889  0.390-
 164  0.722  0.222  0.390-
 165  0.722  0.556  0.390-
 166  0.056  0.889  0.390-
 167  0.056  0.222  0.390-
 168  0.056  0.556  0.390-
 169  0.389  0.889  0.390-
 170  0.389  0.222  0.390-
 171  0.389  0.556  0.390-
 172  0.833  0.000  0.466-
 173  0.833  0.333  0.466-
 174  0.833  0.667  0.466-
 175  0.167  0.000  0.466-
 176  0.167  0.333  0.466-
 177  0.167  0.667  0.466-
 178  0.500  0.000  0.466-
 179  0.500  0.333  0.466-
 180  0.500  0.667  0.466-
 181  0.944  0.111  0.545-
 182  0.944  0.444  0.545-
 183  0.944  0.778  0.545-
 184  0.278  0.111  0.545-
 185  0.278  0.444  0.545-
 186  0.278  0.778  0.545-
 187  0.611  0.111  0.545-
 188  0.611  0.444  0.545-
 189  0.611  0.778  0.545-
 190  0.444  0.278  0.079-
 191  0.444  0.611  0.079-
 192  0.444  0.944  0.079-
 193  0.778  0.278  0.079-
 194  0.778  0.611  0.079-
 195  0.778  0.944  0.079-
 196  0.111  0.278  0.079-
 197  0.111  0.611  0.079-
 198  0.111  0.944  0.079-
 199  0.556  0.389  0.157-
 200  0.556  0.722  0.157-
 201  0.556  0.056  0.157-
 202  0.889  0.389  0.157-
 203  0.889  0.722  0.157-
 204  0.889  0.056  0.157-
 205  0.222  0.389  0.157-
 206  0.222  0.722  0.157-
 207  0.222  0.056  0.157-
 208  0.667  0.500  0.234-
 209  0.667  0.833  0.234-
 210  0.667  0.167  0.234-
 211  0.000  0.500  0.234-
 212  0.000  0.833  0.234-
 213  0.000  0.167  0.234-
 214  0.333  0.500  0.234-
 215  0.333  0.833  0.234-
 216  0.333  0.167  0.234-
 217  0.778  0.611  0.312-
 218  0.778  0.944  0.312-
 219  0.778  0.278  0.312-
 220  0.111  0.611  0.312-
 221  0.111  0.944  0.312-
 222  0.111  0.278  0.312-
 223  0.444  0.611  0.312-
 224  0.444  0.944  0.312-
 225  0.444  0.278  0.312-
 226  0.889  0.722  0.390-
 227  0.889  0.056  0.390-
 228  0.889  0.389  0.390-
 229  0.222  0.722  0.390-
 230  0.222  0.056  0.390-
 231  0.222  0.389  0.390-
 232  0.556  0.722  0.390-
 233  0.556  0.056  0.390-
 234  0.556  0.389  0.390-
 235  0.000  0.833  0.466-
 236  0.000  0.167  0.466-
 237  0.000  0.500  0.466-
 238  0.333  0.833  0.466-
 239  0.333  0.167  0.466-
 240  0.333  0.500  0.466-
 241  0.667  0.833  0.466-
 242  0.667  0.167  0.466-
 243  0.667  0.500  0.466-
 244  0.111  0.944  0.545-
 245  0.111  0.278  0.545-
 246  0.111  0.611  0.545-
 247  0.444  0.944  0.545-
 248  0.444  0.278  0.545-
 249  0.444  0.611  0.545- 253 2.14
 250  0.778  0.944  0.545-
 251  0.778  0.278  0.545-
 252  0.778  0.611  0.545-
 253  0.389  0.556  0.590- 123 2.14  59 2.14 249 2.14
 
  LATTYP: Found a hexagonal cell.
 ALAT       =    17.1805734625
 C/A-ratio  =     1.7461582447
  
  Lattice vectors:
  
 A1 = (   0.0000000000,  -8.5902867312,  14.8788130701)
 A2 = (   0.0000000000,  17.1805734625,   0.0000000000)
 A3 = ( -30.0000000000,   0.0000000000,   0.0000000000)


Analysis of symmetry for initial positions (statically):
=====================================================================
 Subroutine PRICEL returns:
 Original cell was already a primitive cell.
 

 Routine SETGRP: Setting up the symmetry group for a 
 hexagonal supercell.


 Subroutine GETGRP returns: Found  6 space group operations
 (whereof  1 operations were pure point group operations)
 out of a pool of 24 trial point group operations.


The static configuration has the point symmetry C_1 .
 The point group associated with its full space group is C_3v.


Analysis of symmetry for dynamics (positions and initial velocities):
=====================================================================
 Subroutine PRICEL returns:
 Original cell was already a primitive cell.
 

 Routine SETGRP: Setting up the symmetry group for a 
 hexagonal supercell.


 Subroutine GETGRP returns: Found  6 space group operations
 (whereof  1 operations were pure point group operations)
 out of a pool of 24 trial point group operations.


The dynamic configuration has the point symmetry C_1 .
 The point group associated with its full space group is C_3v.


 Subroutine INISYM returns: Found  6 space group operations
 (whereof  1 operations are pure point group operations),
 and found     1 'primitive' translations

 
 
 KPOINTS: Automatic generation                    

Automatic generation of k-mesh.
Space group operators:
 irot       det(A)        alpha          n_x          n_y          n_z        tau_x        tau_y        tau_z
    1     1.000000     0.000000     1.000000     0.000000     0.000000     0.000000     0.000000     0.000000
    2     1.000000   120.000000     1.000000     0.000000     0.000000    -0.166667    -0.500000     0.000000
    3     1.000000   120.000000    -1.000000     0.000000     0.000000     0.333333    -0.833333     0.000000
    4    -1.000000   180.000000     0.000000    -0.500000     0.866025     0.833333    -0.833333     0.000000
    5    -1.000000   180.000000     0.000000     1.000000     0.000000    -0.666667     0.000000     0.000000
    6    -1.000000   180.000000     0.000000     0.500000     0.866025     0.000000    -0.500000     0.000000
 
 Subroutine IBZKPT returns following result:
 ===========================================
 
 Found      2 irreducible k-points:
 
 Following reciprocal coordinates:
            Coordinates               Weight
  0.000000  0.000000  0.000000      1.000000
  0.500000  0.000000  0.000000      3.000000
 
 Following cartesian coordinates:
            Coordinates               Weight
  0.000000  0.000000  0.000000      1.000000
  0.000000 -0.029103  0.016802      3.000000
 


--------------------------------------------------------------------------------------------------------




 Dimension of arrays:
   k-points           NKPTS =      2   k-points in BZ     NKDIM =      2   number of bands    NBANDS=    510
   number of dos      NEDOS =    301   number of ions     NIONS =    253
   non local maximal  LDIM  =      6   non local SUM 2l+1 LMDIM =     18
   total plane-waves  NPLWV = 819200
   max r-space proj   IRMAX =   4449   max aug-charges    IRDMAX=   4357
   dimension x,y,z NGX =    80 NGY =   80 NGZ =  128
   dimension x,y,z NGXF=   160 NGYF=  160 NGZF=  256
   support grid    NGXF=   160 NGYF=  160 NGZF=  256
   ions per type =             252   1
   NGX,Y,Z   is equivalent  to a cutoff of   7.74,  7.74,  7.09 a.u.
   NGXF,Y,Z  is equivalent  to a cutoff of  15.48, 15.48, 14.19 a.u.

 SYSTEM =  NiAl                                    
 POSCAR =  New structure                           

 Startparameter for this run:
   NWRITE =      2    write-flag & timer
   PREC   = normal    normal or accurate (medium, high low for compatibility)
   ISTART =      0    job   : 0-new  1-cont  2-samecut
   ICHARG =      2    charge: 1-file 2-atom 10-const
   ISPIN  =      1    spin polarized calculation?
   LNONCOLLINEAR =      F non collinear calculations
   LSORBIT =      F    spin-orbit coupling
   INIWAV =      1    electr: 0-lowe 1-rand  2-diag
   LASPH  =      F    aspherical Exc in radial PAW
   METAGGA=      F    non-selfconsistent MetaGGA calc.

 Electronic Relaxation 1
   ENCUT  =  300.0 eV  22.05 Ry    4.70 a.u.  24.26 24.26 42.37*2*pi/ulx,y,z
   ENINI  =  300.0     initial cutoff
   ENAUG  =  627.1 eV  augmentation charge cutoff
   NELM   =     60;   NELMIN=  6; NELMDL= -5     # of ELM steps 
   EDIFF  = 0.5E-05   stopping-criterion for ELM
   LREAL  =      T    real-space projection
   NLSPLINE    = F    spline interpolate recip. space projectors
   LCOMPAT=      F    compatible to vasp.4.4
   GGA_COMPAT  = T    GGA compatible to vasp.4.4-vasp.4.6
   LMAXPAW     = -100 max onsite density
   LMAXMIX     =    2 max onsite mixed and CHGCAR
   VOSKOWN=      0    Vosko Wilk Nusair interpolation
   ROPT   =   -0.00050  -0.00050
 Ionic relaxation
   EDIFFG = 0.5E-04   stopping-criterion for IOM
   NSW    =     40    number of steps for IOM
   NBLOCK =      1;   KBLOCK =     40    inner block; outer block 
   IBRION =      2    ionic relax: 0-MD 1-quasi-New 2-CG
   NFREE  =      1    steps in history (QN), initial steepest desc. (CG)
   ISIF   =      1    stress and relaxation
   IWAVPR =     11    prediction:  0-non 1-charg 2-wave 3-comb
   ISYM   =      2    0-nonsym 1-usesym 2-fastsym
   LCORR  =      T    Harris-Foulkes like correction to forces

   POTIM  = 0.2000    time-step for ionic-motion
   TEIN   =    0.0    initial temperature
   TEBEG  =    0.0;   TEEND  =   0.0 temperature during run
   SMASS  =  -3.00    Nose mass-parameter (am)
   estimated Nose-frequenzy (Omega)   =  0.10E-29 period in steps =****** mass=  -0.675E-26a.u.
   SCALEE = 1.0000    scale energy and forces
   NPACO  =    256;   APACO  = 16.0  distance and # of slots for P.C.
   PSTRESS=    0.0 pullay stress

  Mass of Ions in am
   POMASS =  26.98 14.00
  Ionic Valenz
   ZVAL   =   3.00  5.00
  Atomic Wigner-Seitz radii
   RWIGS  =  -1.00 -1.00
  virtual crystal weights 
   VCA    =   1.00  1.00
   NELECT =     761.0000    total number of electrons
   NUPDOWN=      -1.0000    fix difference up-down

 DOS related values:
   EMIN   =  10.00;   EMAX   =-10.00  energy-range for DOS
   EFERMI =   0.00
   ISMEAR =     0;   SIGMA  =   0.05  broadening in eV -4-tet -1-fermi 0-gaus

 Electronic relaxation 2 (details)
   IALGO  =     38    algorithm
   LDIAG  =      T    sub-space diagonalisation (order eigenvalues)
   LSUBROT=      F    optimize rotation matrix (better conditioning)
   TURBO    =      0    0=normal 1=particle mesh
   IRESTART =      0    0=no restart 2=restart with 2 vectors
   NREBOOT  =      0    no. of reboots
   NMIN     =      0    reboot dimension
   EREF     =   0.00    reference energy to select bands
   IMIX   =      4    mixing-type and parameters
     AMIX     =   0.40;   BMIX     =  1.00
     AMIX_MAG =   1.60;   BMIX_MAG =  1.00
     AMIN     =   0.10
     WC   =   100.;   INIMIX=   1;  MIXPRE=   1;  MAXMIX= -45

 Intra band minimization:
   WEIMIN = 0.0010     energy-eigenvalue tresh-hold
   EBREAK =  0.25E-08  absolut break condition
   DEPER  =   0.30     relativ break condition  

   TIME   =   0.40     timestep for ELM

  volume/ion in A,a.u.               =      30.31       204.55
  Fermi-wavevector in a.u.,A,eV,Ry     =   0.757927  1.432274  7.815910  0.574453
  Thomas-Fermi vector in A             =   1.856383
 
 Write flags
   LWAVE        =      F    write WAVECAR
   LDOWNSAMPLE  =      F    k-point downsampling of WAVECAR
   LCHARG       =      F    write CHGCAR
   LVTOT        =      F    write LOCPOT, total local potential
   LVHAR        =      F    write LOCPOT, Hartree potential only
   LELF         =      F    write electronic localiz. function (ELF)
   LORBIT       =      0    0 simple, 1 ext, 2 COOP (PROOUT), +10 PAW based schemes


 Dipole corrections
   LMONO  =      F    monopole corrections only (constant potential shift)
   LDIPOL =      F    correct potential (dipole corrections)
   IDIPOL =      0    1-x, 2-y, 3-z, 4-all directions 
   EPSILON=  1.0000000 bulk dielectric constant

 Exchange correlation treatment:
   GGA     =    --    GGA type
   LEXCH   =     8    internal setting for exchange type
   VOSKOWN=      0    Vosko Wilk Nusair interpolation
   LHFCALC =     F    Hartree Fock is set to
   LHFONE  =     F    Hartree Fock one center treatment
   AEXX    =    0.0000 exact exchange contribution

 Linear response parameters
   LEPSILON=     F    determine dielectric tensor
   LRPA    =     F    only Hartree local field effects (RPA)
   LNABLA  =     F    use nabla operator in PAW spheres
   LVEL    =     F    velocity operator in full k-point grid
   LINTERFAST=   F  fast interpolation
   KINTER  =     0    interpolate to denser k-point grid
   CSHIFT  =0.1000    complex shift for real part using Kramers Kronig
   OMEGAMAX=  -1.0    maximum frequency
   DEG_THRESHOLD= 0.2000000E-02 threshold for treating states as degnerate
   RTIME   =   -0.100 relaxation time in fs
  (WPLASMAI=    0.000 imaginary part of plasma frequency in eV, 0.658/RTIME)
   DFIELD  = 0.0000000 0.0000000 0.0000000 field for delta impulse in time
 
 Orbital magnetization related:
   ORBITALMAG=     F  switch on orbital magnetization
   LCHIMAG   =     F  perturbation theory with respect to B field
   DQ        =  0.001000  dq finite difference perturbation B field
   LLRAUG    =     F  two centre corrections for induced B field



--------------------------------------------------------------------------------------------------------


 conjugate gradient relaxation of ions
 charge density and potential will be updated during run
 non-spin polarized calculation
 Variant of blocked Davidson
 Davidson routine will perform the subspace rotation
 perform sub-space diagonalisation
    after iterative eigenvector-optimisation
 modified Broyden-mixing scheme, WC =      100.0
 initial mixing is a Kerker type mixing with AMIX =  0.4000 and BMIX =      1.0000
 Hartree-type preconditioning will be used
 using additional bands          129
 real space projection scheme for non local part
 use partial core corrections
 calculate Harris-corrections to forces 
   (improved forces if not selfconsistent)
 use gradient corrections 
 use of overlap-Matrix (Vanderbilt PP)
 Gauss-broadening in eV      SIGMA  =   0.05


--------------------------------------------------------------------------------------------------------


  energy-cutoff  :      300.00
  volume of cell :     7668.80
      direct lattice vectors                 reciprocal lattice vectors
     0.000000000-17.180573462  0.000000000     0.000000000 -0.058205275  0.033604831
     0.000000000 -8.590286731-14.878813070     0.000000000  0.000000000 -0.067209662
    30.000000000  0.000000000  0.000000000     0.033333333  0.000000000  0.000000000

  length of vectors
    17.180573462 17.180573462 30.000000000     0.067209662  0.067209662  0.033333333


 
 k-points in units of 2pi/SCALE and weight: Automatic generation                    
   0.00000000  0.00000000  0.00000000       0.250
   0.00000000 -0.02910264  0.01680242       0.750
 
 k-points in reciprocal lattice and weights: Automatic generation                    
   0.00000000  0.00000000  0.00000000       0.250
   0.50000000  0.00000000  0.00000000       0.750
 
 position of ions in fractional coordinates (direct lattice) 
   0.44444444  0.44444444  0.07873473
   0.44444444  0.77777778  0.07873473
   0.44444444  0.11111111  0.07873473
   0.77777778  0.44444444  0.07873473
   0.77777778  0.77777778  0.07873473
   0.77777778  0.11111111  0.07873473
   0.11111111  0.44444444  0.07873473
   0.11111111  0.77777778  0.07873473
   0.11111111  0.11111111  0.07873473
   0.55555556  0.55555556  0.15702584
   0.55555556  0.88888889  0.15702584
   0.55555556  0.22222222  0.15702584
   0.88888889  0.55555556  0.15702584
   0.88888889  0.88888889  0.15702584
   0.88888889  0.22222222  0.15702584
   0.22222222  0.55555556  0.15702584
   0.22222222  0.88888889  0.15702584
   0.22222222  0.22222222  0.15702584
   0.66666667  0.66666667  0.23375740
   0.66666667  0.00000000  0.23375740
   0.66666667  0.33333333  0.23375740
   0.00000000  0.66666667  0.23375740
   0.00000000  0.00000000  0.23375740
   0.00000000  0.33333333  0.23375740
   0.33333333  0.66666667  0.23375740
   0.33333333  0.00000000  0.23375740
   0.33333333  0.33333333  0.23375740
   0.77777778  0.77777778  0.31173066
   0.77777778  0.11111111  0.31173066
   0.77777778  0.44444444  0.31173066
   0.11111111  0.77777778  0.31173066
   0.11111111  0.11111111  0.31173066
   0.11111111  0.44444444  0.31173066
   0.44444444  0.77777778  0.31173066
   0.44444444  0.11111111  0.31173066
   0.44444444  0.44444444  0.31173066
   0.88888889  0.88888889  0.38970391
   0.88888889  0.22222222  0.38970391
   0.88888889  0.55555556  0.38970391
   0.22222222  0.88888889  0.38970391
   0.22222222  0.22222222  0.38970391
   0.22222222  0.55555556  0.38970391
   0.55555556  0.88888889  0.38970391
   0.55555556  0.22222222  0.38970391
   0.55555556  0.55555556  0.38970391
   0.00000000  0.00000000  0.46643547
   0.00000000  0.33333333  0.46643547
   0.00000000  0.66666667  0.46643547
   0.33333333  0.00000000  0.46643547
   0.33333333  0.33333333  0.46643547
   0.33333333  0.66666667  0.46643547
   0.66666667  0.00000000  0.46643547
   0.66666667  0.33333333  0.46643547
   0.66666667  0.66666667  0.46643547
   0.11111111  0.11111111  0.54472658
   0.11111111  0.44444444  0.54472658
   0.11111111  0.77777778  0.54472658
   0.44444444  0.11111111  0.54472658
   0.44444444  0.44444444  0.54472658
   0.44444444  0.77777778  0.54472658
   0.77777778  0.11111111  0.54472658
   0.77777778  0.44444444  0.54472658
   0.77777778  0.77777778  0.54472658
   0.27777778  0.27777778  0.07873473
   0.27777778  0.61111111  0.07873473
   0.27777778  0.94444444  0.07873473
   0.61111111  0.27777778  0.07873473
   0.61111111  0.61111111  0.07873473
   0.61111111  0.94444444  0.07873473
   0.94444444  0.27777778  0.07873473
   0.94444444  0.61111111  0.07873473
   0.94444444  0.94444444  0.07873473
   0.38888889  0.38888889  0.15702584
   0.38888889  0.72222222  0.15702584
   0.38888889  0.05555556  0.15702584
   0.72222222  0.38888889  0.15702584
   0.72222222  0.72222222  0.15702584
   0.72222222  0.05555556  0.15702584
   0.05555556  0.38888889  0.15702584
   0.05555556  0.72222222  0.15702584
   0.05555556  0.05555556  0.15702584
   0.50000000  0.50000000  0.23375740
   0.50000000  0.83333333  0.23375740
   0.50000000  0.16666667  0.23375740
   0.83333333  0.50000000  0.23375740
   0.83333333  0.83333333  0.23375740
   0.83333333  0.16666667  0.23375740
   0.16666667  0.50000000  0.23375740
   0.16666667  0.83333333  0.23375740
   0.16666667  0.16666667  0.23375740
   0.61111111  0.61111111  0.31173066
   0.61111111  0.94444444  0.31173066
   0.61111111  0.27777778  0.31173066
   0.94444444  0.61111111  0.31173066
   0.94444444  0.94444444  0.31173066
   0.94444444  0.27777778  0.31173066
   0.27777778  0.61111111  0.31173066
   0.27777778  0.94444444  0.31173066
   0.27777778  0.27777778  0.31173066
   0.72222222  0.72222222  0.38970391
   0.72222222  0.05555556  0.38970391
   0.72222222  0.38888889  0.38970391
   0.05555556  0.72222222  0.38970391
   0.05555556  0.05555556  0.38970391
   0.05555556  0.38888889  0.38970391
   0.38888889  0.72222222  0.38970391
   0.38888889  0.05555556  0.38970391
   0.38888889  0.38888889  0.38970391
   0.83333333  0.83333333  0.46643547
   0.83333333  0.16666667  0.46643547
   0.83333333  0.50000000  0.46643547
   0.16666667  0.83333333  0.46643547
   0.16666667  0.16666667  0.46643547
   0.16666667  0.50000000  0.46643547
   0.50000000  0.83333333  0.46643547
   0.50000000  0.16666667  0.46643547
   0.50000000  0.50000000  0.46643547
   0.94444444  0.94444444  0.54472658
   0.94444444  0.27777778  0.54472658
   0.94444444  0.61111111  0.54472658
   0.27777778  0.94444444  0.54472658
   0.27777778  0.27777778  0.54472658
   0.27777778  0.61111111  0.54472658
   0.61111111  0.94444444  0.54472658
   0.61111111  0.27777778  0.54472658
   0.61111111  0.61111111  0.54472658
   0.27777778  0.44444444  0.07873473
   0.27777778  0.77777778  0.07873473
   0.27777778  0.11111111  0.07873473
   0.61111111  0.44444444  0.07873473
   0.61111111  0.77777778  0.07873473
   0.61111111  0.11111111  0.07873473
   0.94444444  0.44444444  0.07873473
   0.94444444  0.77777778  0.07873473
   0.94444444  0.11111111  0.07873473
   0.38888889  0.55555556  0.15702584
   0.38888889  0.88888889  0.15702584
   0.38888889  0.22222222  0.15702584
   0.72222222  0.55555556  0.15702584
   0.72222222  0.88888889  0.15702584
   0.72222222  0.22222222  0.15702584
   0.05555556  0.55555556  0.15702584
   0.05555556  0.88888889  0.15702584
   0.05555556  0.22222222  0.15702584
   0.50000000  0.66666667  0.23375740
   0.50000000  0.00000000  0.23375740
   0.50000000  0.33333333  0.23375740
   0.83333333  0.66666667  0.23375740
   0.83333333  0.00000000  0.23375740
   0.83333333  0.33333333  0.23375740
   0.16666667  0.66666667  0.23375740
   0.16666667  0.00000000  0.23375740
   0.16666667  0.33333333  0.23375740
   0.61111111  0.77777778  0.31173066
   0.61111111  0.11111111  0.31173066
   0.61111111  0.44444444  0.31173066
   0.94444444  0.77777778  0.31173066
   0.94444444  0.11111111  0.31173066
   0.94444444  0.44444444  0.31173066
   0.27777778  0.77777778  0.31173066
   0.27777778  0.11111111  0.31173066
   0.27777778  0.44444444  0.31173066
   0.72222222  0.88888889  0.38970391
   0.72222222  0.22222222  0.38970391
   0.72222222  0.55555556  0.38970391
   0.05555556  0.88888889  0.38970391
   0.05555556  0.22222222  0.38970391
   0.05555556  0.55555556  0.38970391
   0.38888889  0.88888889  0.38970391
   0.38888889  0.22222222  0.38970391
   0.38888889  0.55555556  0.38970391
   0.83333333  0.00000000  0.46643547
   0.83333333  0.33333333  0.46643547
   0.83333333  0.66666667  0.46643547
   0.16666667  0.00000000  0.46643547
   0.16666667  0.33333333  0.46643547
   0.16666667  0.66666667  0.46643547
   0.50000000  0.00000000  0.46643547
   0.50000000  0.33333333  0.46643547
   0.50000000  0.66666667  0.46643547
   0.94444444  0.11111111  0.54472658
   0.94444444  0.44444444  0.54472658
   0.94444444  0.77777778  0.54472658
   0.27777778  0.11111111  0.54472658
   0.27777778  0.44444444  0.54472658
   0.27777778  0.77777778  0.54472658
   0.61111111  0.11111111  0.54472658
   0.61111111  0.44444444  0.54472658
   0.61111111  0.77777778  0.54472658
   0.44444444  0.27777778  0.07873473
   0.44444444  0.61111111  0.07873473
   0.44444444  0.94444444  0.07873473
   0.77777778  0.27777778  0.07873473
   0.77777778  0.61111111  0.07873473
   0.77777778  0.94444444  0.07873473
   0.11111111  0.27777778  0.07873473
   0.11111111  0.61111111  0.07873473
   0.11111111  0.94444444  0.07873473
   0.55555556  0.38888889  0.15702584
   0.55555556  0.72222222  0.15702584
   0.55555556  0.05555556  0.15702584
   0.88888889  0.38888889  0.15702584
   0.88888889  0.72222222  0.15702584
   0.88888889  0.05555556  0.15702584
   0.22222222  0.38888889  0.15702584
   0.22222222  0.72222222  0.15702584
   0.22222222  0.05555556  0.15702584
   0.66666667  0.50000000  0.23375740
   0.66666667  0.83333333  0.23375740
   0.66666667  0.16666667  0.23375740
   0.00000000  0.50000000  0.23375740
   0.00000000  0.83333333  0.23375740
   0.00000000  0.16666667  0.23375740
   0.33333333  0.50000000  0.23375740
   0.33333333  0.83333333  0.23375740
   0.33333333  0.16666667  0.23375740
   0.77777778  0.61111111  0.31173066
   0.77777778  0.94444444  0.31173066
   0.77777778  0.27777778  0.31173066
   0.11111111  0.61111111  0.31173066
   0.11111111  0.94444444  0.31173066
   0.11111111  0.27777778  0.31173066
   0.44444444  0.61111111  0.31173066
   0.44444444  0.94444444  0.31173066
   0.44444444  0.27777778  0.31173066
   0.88888889  0.72222222  0.38970391
   0.88888889  0.05555556  0.38970391
   0.88888889  0.38888889  0.38970391
   0.22222222  0.72222222  0.38970391
   0.22222222  0.05555556  0.38970391
   0.22222222  0.38888889  0.38970391
   0.55555556  0.72222222  0.38970391
   0.55555556  0.05555556  0.38970391
   0.55555556  0.38888889  0.38970391
   0.00000000  0.83333333  0.46643547
   0.00000000  0.16666667  0.46643547
   0.00000000  0.50000000  0.46643547
   0.33333333  0.83333333  0.46643547
   0.33333333  0.16666667  0.46643547
   0.33333333  0.50000000  0.46643547
   0.66666667  0.83333333  0.46643547
   0.66666667  0.16666667  0.46643547
   0.66666667  0.50000000  0.46643547
   0.11111111  0.94444444  0.54472658
   0.11111111  0.27777778  0.54472658
   0.11111111  0.61111111  0.54472658
   0.44444444  0.94444444  0.54472658
   0.44444444  0.27777778  0.54472658
   0.44444444  0.61111111  0.54472658
   0.77777778  0.94444444  0.54472658
   0.77777778  0.27777778  0.54472658
   0.77777778  0.61111111  0.54472658
   0.38888889  0.55555556  0.59000000
 
 position of ions in cartesian coordinates  (Angst):
   2.36204189-11.45371564 -6.61280581
   2.36204189-14.31714455-11.57241017
   2.36204189 -8.59028673 -1.65320145
   2.36204189-17.18057346 -6.61280581
   2.36204189-20.04400237-11.57241017
   2.36204189-14.31714455 -1.65320145
   2.36204189 -5.72685782 -6.61280581
   2.36204189 -8.59028673-11.57241017
   2.36204189 -2.86342891 -1.65320145
   4.71077531-14.31714455 -8.26600726
   4.71077531-17.18057346-13.22561162
   4.71077531-11.45371564 -3.30640290
   4.71077531-20.04400237 -8.26600726
   4.71077531-22.90743128-13.22561162
   4.71077531-17.18057346 -3.30640290
   4.71077531 -8.59028673 -8.26600726
   4.71077531-11.45371564-13.22561162
   4.71077531 -5.72685782 -3.30640290
   7.01272198-17.18057346 -9.91920871
   7.01272198-11.45371564  0.00000000
   7.01272198-14.31714455 -4.95960436
   7.01272198 -5.72685782 -9.91920871
   7.01272198  0.00000000  0.00000000
   7.01272198 -2.86342891 -4.95960436
   7.01272198-11.45371564 -9.91920871
   7.01272198 -5.72685782  0.00000000
   7.01272198 -8.59028673 -4.95960436
   9.35191966-20.04400237-11.57241017
   9.35191966-14.31714455 -1.65320145
   9.35191966-17.18057346 -6.61280581
   9.35191966 -8.59028673-11.57241017
   9.35191966 -2.86342891 -1.65320145
   9.35191966 -5.72685782 -6.61280581
   9.35191966-14.31714455-11.57241017
   9.35191966 -8.59028673 -1.65320145
   9.35191966-11.45371564 -6.61280581
  11.69111734-22.90743128-13.22561162
  11.69111734-17.18057346 -3.30640290
  11.69111734-20.04400237 -8.26600726
  11.69111734-11.45371564-13.22561162
  11.69111734 -5.72685782 -3.30640290
  11.69111734 -8.59028673 -8.26600726
  11.69111734-17.18057346-13.22561162
  11.69111734-11.45371564 -3.30640290
  11.69111734-14.31714455 -8.26600726
  13.99306401  0.00000000  0.00000000
  13.99306401 -2.86342891 -4.95960436
  13.99306401 -5.72685782 -9.91920871
  13.99306401 -5.72685782  0.00000000
  13.99306401 -8.59028673 -4.95960436
  13.99306401-11.45371564 -9.91920871
  13.99306401-11.45371564  0.00000000
  13.99306401-14.31714455 -4.95960436
  13.99306401-17.18057346 -9.91920871
  16.34179743 -2.86342891 -1.65320145
  16.34179743 -5.72685782 -6.61280581
  16.34179743 -8.59028673-11.57241017
  16.34179743 -8.59028673 -1.65320145
  16.34179743-11.45371564 -6.61280581
  16.34179743-14.31714455-11.57241017
  16.34179743-14.31714455 -1.65320145
  16.34179743-17.18057346 -6.61280581
  16.34179743-20.04400237-11.57241017
   2.36204189 -7.15857228 -4.13300363
   2.36204189-10.02200119 -9.09260799
   2.36204189-12.88543010-14.05221234
   2.36204189-12.88543010 -4.13300363
   2.36204189-15.74885901 -9.09260799
   2.36204189-18.61228792-14.05221234
   2.36204189-18.61228792 -4.13300363
   2.36204189-21.47571683 -9.09260799
   2.36204189-24.33914574-14.05221234
   4.71077531-10.02200119 -5.78620508
   4.71077531-12.88543010-10.74580944
   4.71077531 -7.15857228 -0.82660073
   4.71077531-15.74885901 -5.78620508
   4.71077531-18.61228792-10.74580944
   4.71077531-12.88543010 -0.82660073
   4.71077531 -4.29514337 -5.78620508
   4.71077531 -7.15857228-10.74580944
   4.71077531 -1.43171446 -0.82660073
   7.01272198-12.88543010 -7.43940654
   7.01272198-15.74885901-12.39901089
   7.01272198-10.02200119 -2.47980218
   7.01272198-18.61228792 -7.43940654
   7.01272198-21.47571683-12.39901089
   7.01272198-15.74885901 -2.47980218
   7.01272198 -7.15857228 -7.43940654
   7.01272198-10.02200119-12.39901089
   7.01272198 -4.29514337 -2.47980218
   9.35191966-15.74885901 -9.09260799
   9.35191966-18.61228792-14.05221234
   9.35191966-12.88543010 -4.13300363
   9.35191966-21.47571683 -9.09260799
   9.35191966-24.33914574-14.05221234
   9.35191966-18.61228792 -4.13300363
   9.35191966-10.02200119 -9.09260799
   9.35191966-12.88543010-14.05221234
   9.35191966 -7.15857228 -4.13300363
  11.69111734-18.61228792-10.74580944
  11.69111734-12.88543010 -0.82660073
  11.69111734-15.74885901 -5.78620508
  11.69111734 -7.15857228-10.74580944
  11.69111734 -1.43171446 -0.82660073
  11.69111734 -4.29514337 -5.78620508
  11.69111734-12.88543010-10.74580944
  11.69111734 -7.15857228 -0.82660073
  11.69111734-10.02200119 -5.78620508
  13.99306401-21.47571683-12.39901089
  13.99306401-15.74885901 -2.47980218
  13.99306401-18.61228792 -7.43940654
  13.99306401-10.02200119-12.39901089
  13.99306401 -4.29514337 -2.47980218
  13.99306401 -7.15857228 -7.43940654
  13.99306401-15.74885901-12.39901089
  13.99306401-10.02200119 -2.47980218
  13.99306401-12.88543010 -7.43940654
  16.34179743-24.33914574-14.05221234
  16.34179743-18.61228792 -4.13300363
  16.34179743-21.47571683 -9.09260799
  16.34179743-12.88543010-14.05221234
  16.34179743 -7.15857228 -4.13300363
  16.34179743-10.02200119 -9.09260799
  16.34179743-18.61228792-14.05221234
  16.34179743-12.88543010 -4.13300363
  16.34179743-15.74885901 -9.09260799
   2.36204189 -8.59028673 -6.61280581
   2.36204189-11.45371564-11.57241017
   2.36204189 -5.72685782 -1.65320145
   2.36204189-14.31714455 -6.61280581
   2.36204189-17.18057346-11.57241017
   2.36204189-11.45371564 -1.65320145
   2.36204189-20.04400237 -6.61280581
   2.36204189-22.90743128-11.57241017
   2.36204189-17.18057346 -1.65320145
   4.71077531-11.45371564 -8.26600726
   4.71077531-14.31714455-13.22561162
   4.71077531 -8.59028673 -3.30640290
   4.71077531-17.18057346 -8.26600726
   4.71077531-20.04400237-13.22561162
   4.71077531-14.31714455 -3.30640290
   4.71077531 -5.72685782 -8.26600726
   4.71077531 -8.59028673-13.22561162
   4.71077531 -2.86342891 -3.30640290
   7.01272198-14.31714455 -9.91920871
   7.01272198 -8.59028673  0.00000000
   7.01272198-11.45371564 -4.95960436
   7.01272198-20.04400237 -9.91920871
   7.01272198-14.31714455  0.00000000
   7.01272198-17.18057346 -4.95960436
   7.01272198 -8.59028673 -9.91920871
   7.01272198 -2.86342891  0.00000000
   7.01272198 -5.72685782 -4.95960436
   9.35191966-17.18057346-11.57241017
   9.35191966-11.45371564 -1.65320145
   9.35191966-14.31714455 -6.61280581
   9.35191966-22.90743128-11.57241017
   9.35191966-17.18057346 -1.65320145
   9.35191966-20.04400237 -6.61280581
   9.35191966-11.45371564-11.57241017
   9.35191966 -5.72685782 -1.65320145
   9.35191966 -8.59028673 -6.61280581
  11.69111734-20.04400237-13.22561162
  11.69111734-14.31714455 -3.30640290
  11.69111734-17.18057346 -8.26600726
  11.69111734 -8.59028673-13.22561162
  11.69111734 -2.86342891 -3.30640290
  11.69111734 -5.72685782 -8.26600726
  11.69111734-14.31714455-13.22561162
  11.69111734 -8.59028673 -3.30640290
  11.69111734-11.45371564 -8.26600726
  13.99306401-14.31714455  0.00000000
  13.99306401-17.18057346 -4.95960436
  13.99306401-20.04400237 -9.91920871
  13.99306401 -2.86342891  0.00000000
  13.99306401 -5.72685782 -4.95960436
  13.99306401 -8.59028673 -9.91920871
  13.99306401 -8.59028673  0.00000000
  13.99306401-11.45371564 -4.95960436
  13.99306401-14.31714455 -9.91920871
  16.34179743-17.18057346 -1.65320145
  16.34179743-20.04400237 -6.61280581
  16.34179743-22.90743128-11.57241017
  16.34179743 -5.72685782 -1.65320145
  16.34179743 -8.59028673 -6.61280581
  16.34179743-11.45371564-11.57241017
  16.34179743-11.45371564 -1.65320145
  16.34179743-14.31714455 -6.61280581
  16.34179743-17.18057346-11.57241017
   2.36204189-10.02200119 -4.13300363
   2.36204189-12.88543010 -9.09260799
   2.36204189-15.74885901-14.05221234
   2.36204189-15.74885901 -4.13300363
   2.36204189-18.61228792 -9.09260799
   2.36204189-21.47571683-14.05221234
   2.36204189 -4.29514337 -4.13300363
   2.36204189 -7.15857228 -9.09260799
   2.36204189-10.02200119-14.05221234
   4.71077531-12.88543010 -5.78620508
   4.71077531-15.74885901-10.74580944
   4.71077531-10.02200119 -0.82660073
   4.71077531-18.61228792 -5.78620508
   4.71077531-21.47571683-10.74580944
   4.71077531-15.74885901 -0.82660073
   4.71077531 -7.15857228 -5.78620508
   4.71077531-10.02200119-10.74580944
   4.71077531 -4.29514337 -0.82660073
   7.01272198-15.74885901 -7.43940654
   7.01272198-18.61228792-12.39901089
   7.01272198-12.88543010 -2.47980218
   7.01272198 -4.29514337 -7.43940654
   7.01272198 -7.15857228-12.39901089
   7.01272198 -1.43171446 -2.47980218
   7.01272198-10.02200119 -7.43940654
   7.01272198-12.88543010-12.39901089
   7.01272198 -7.15857228 -2.47980218
   9.35191966-18.61228792 -9.09260799
   9.35191966-21.47571683-14.05221234
   9.35191966-15.74885901 -4.13300363
   9.35191966 -7.15857228 -9.09260799
   9.35191966-10.02200119-14.05221234
   9.35191966 -4.29514337 -4.13300363
   9.35191966-12.88543010 -9.09260799
   9.35191966-15.74885901-14.05221234
   9.35191966-10.02200119 -4.13300363
  11.69111734-21.47571683-10.74580944
  11.69111734-15.74885901 -0.82660073
  11.69111734-18.61228792 -5.78620508
  11.69111734-10.02200119-10.74580944
  11.69111734 -4.29514337 -0.82660073
  11.69111734 -7.15857228 -5.78620508
  11.69111734-15.74885901-10.74580944
  11.69111734-10.02200119 -0.82660073
  11.69111734-12.88543010 -5.78620508
  13.99306401 -7.15857228-12.39901089
  13.99306401 -1.43171446 -2.47980218
  13.99306401 -4.29514337 -7.43940654
  13.99306401-12.88543010-12.39901089
  13.99306401 -7.15857228 -2.47980218
  13.99306401-10.02200119 -7.43940654
  13.99306401-18.61228792-12.39901089
  13.99306401-12.88543010 -2.47980218
  13.99306401-15.74885901 -7.43940654
  16.34179743-10.02200119-14.05221234
  16.34179743 -4.29514337 -4.13300363
  16.34179743 -7.15857228 -9.09260799
  16.34179743-15.74885901-14.05221234
  16.34179743-10.02200119 -4.13300363
  16.34179743-12.88543010 -9.09260799
  16.34179743-21.47571683-14.05221234
  16.34179743-15.74885901 -4.13300363
  16.34179743-18.61228792 -9.09260799
  17.70000000-11.45371564 -8.26600726
 


--------------------------------------------------------------------------------------------------------


 k-point  1 :   0.0000 0.0000 0.0000  plane waves:   90499
 k-point  2 :   0.5000 0.0000 0.0000  plane waves:   90530

 maximum and minimum number of plane-waves per node :     90530    90499

 maximum number of plane-waves:     90530
 maximum index in each direction: 
   IXMAX=   24   IYMAX=   24   IZMAX=   42
   IXMIN=  -24   IYMIN=  -24   IZMIN=  -42


 serial   3D FFT for wavefunctions
 parallel 3D FFT for charge:
    minimum data exchange during FFTs selected (reduces bandwidth)


 total amount of memory used by VASP MPI-rank0   517828. kBytes
=======================================================================

   base      :      30000. kBytes
   nonlr-proj:      89523. kBytes
   fftplans  :      40601. kBytes
   grid      :      95147. kBytes
   one-center:       3934. kBytes
   wavefun   :     258623. kBytes
 
     INWAV:  cpu time    0.0001: real time    0.0002
 Broyden mixing: mesh for mixing (old mesh)
   NGX = 49   NGY = 49   NGZ = 85
  (NGX  =160   NGY  =160   NGZ  =256)
  gives a total of 204085 points

 initial charge density was supplied:
 charge density of overlapping atoms calculated
 number of electron     761.0000000 magnetization 
 keeping initial charge density in first step


--------------------------------------------------------------------------------------------------------


 Maximum index for non-local projection operator         4270
 Maximum index for augmentation-charges          758 (set IRDMAX)


--------------------------------------------------------------------------------------------------------


 First call to EWALD:  gamma=   0.090
 Maximum number of real-space cells 3x 3x 2
 Maximum number of reciprocal cells 2x 2x 4

    FEWALD:  cpu time    0.0371: real time    0.0373


----------------------------------------- Iteration    1(   1)  ---------------------------------------


    POTLOK:  cpu time    0.9686: real time    0.9721
    SETDIJ:  cpu time    0.1104: real time    0.1108
     EDDAV:  cpu time   12.9886: real time   15.2074
       DOS:  cpu time    0.0026: real time    0.0029
    --------------------------------------------
      LOOP:  cpu time   14.0724: real time   16.2964

 eigenvalue-minimisations  :  2040
 total energy-change (2. order) : 0.2148769E+04  (-0.1821285E+05)
 number of electron     761.0000000 magnetization 
 augmentation part      761.0000000 magnetization 

 Free energy of the ion-electron system (eV)
  ---------------------------------------------------
  alpha Z        PSCENC =       499.79343438
  Ewald energy   TEWEN  =     89161.49539983
  -Hartree energ DENC   =   -102968.34024544
  -exchange      EXHF   =         0.00000000
  -V(xc)+E(xc)   XCENC  =     -6624.77106523
  PAW double counting   =     16887.37234019    -8836.02014662
  entropy T*S    EENTRO =        -0.07281343
  eigenvalues    EBANDS =       273.97095753
  atomic energy  EATOM  =     13755.34161216
  Solvation  Ediel_sol  =         0.00000000
  ---------------------------------------------------
  free energy    TOTEN  =      2148.76947338 eV

  energy without entropy =     2148.84228681  energy(sigma->0) =     2148.80588009


--------------------------------------------------------------------------------------------------------




----------------------------------------- Iteration    1(   2)  ---------------------------------------


     EDDAV:  cpu time   16.3514: real time   19.0663
       DOS:  cpu time    0.0010: real time    0.0011
    --------------------------------------------
      LOOP:  cpu time   16.3540: real time   19.0708

 eigenvalue-minimisations  :  2796
 total energy-change (2. order) :-0.2886901E+04  (-0.2726093E+04)
 number of electron     761.0000000 magnetization 
 augmentation part      761.0000000 magnetization 

 Free energy of the ion-electron system (eV)
  ---------------------------------------------------
  alpha Z        PSCENC =       499.79343438
  Ewald energy   TEWEN  =     89161.49539983
  -Hartree energ DENC   =   -102968.34024544
  -exchange      EXHF   =         0.00000000
  -V(xc)+E(xc)   XCENC  =     -6624.77106523
  PAW double counting   =     16887.37234019    -8836.02014662
  entropy T*S    EENTRO =        -0.10900835
  eigenvalues    EBANDS =     -2612.89360484
  atomic energy  EATOM  =     13755.34161216
  Solvation  Ediel_sol  =         0.00000000
  ---------------------------------------------------
  free energy    TOTEN  =      -738.13128392 eV

  energy without entropy =     -738.02227557  energy(sigma->0) =     -738.07677974


--------------------------------------------------------------------------------------------------------




----------------------------------------- Iteration    1(   3)  ---------------------------------------


     EDDAV:  cpu time   17.0352: real time   19.8899
       DOS:  cpu time    0.0023: real time    0.0023
    --------------------------------------------
      LOOP:  cpu time   17.0393: real time   19.8961

 eigenvalue-minimisations  :  2964
 total energy-change (2. order) :-0.2088481E+03  (-0.1997255E+03)
 number of electron     761.0000000 magnetization 
 augmentation part      761.0000000 magnetization 

 Free energy of the ion-electron system (eV)
  ---------------------------------------------------
  alpha Z        PSCENC =       499.79343438
  Ewald energy   TEWEN  =     89161.49539983
  -Hartree energ DENC   =   -102968.34024544
  -exchange      EXHF   =         0.00000000
  -V(xc)+E(xc)   XCENC  =     -6624.77106523
  PAW double counting   =     16887.37234019    -8836.02014662
  entropy T*S    EENTRO =        -0.20834941
  eigenvalues    EBANDS =     -2821.64236486
  atomic energy  EATOM  =     13755.34161216
  Solvation  Ediel_sol  =         0.00000000
  ---------------------------------------------------
  free energy    TOTEN  =      -946.97938500 eV

  energy without entropy =     -946.77103559  energy(sigma->0) =     -946.87521029


--------------------------------------------------------------------------------------------------------




----------------------------------------- Iteration    1(   4)  ---------------------------------------


     EDDAV:  cpu time   18.1360: real time   21.1383
       DOS:  cpu time    0.0050: real time    0.0050
    --------------------------------------------
      LOOP:  cpu time   18.1425: real time   21.1465

 eigenvalue-minimisations  :  3204
 total energy-change (2. order) :-0.8736947E+01  (-0.8525330E+01)
 number of electron     761.0000000 magnetization 
 augmentation part      761.0000000 magnetization 

 Free energy of the ion-electron system (eV)
  ---------------------------------------------------
  alpha Z        PSCENC =       499.79343438
  Ewald energy   TEWEN  =     89161.49539983
  -Hartree energ DENC   =   -102968.34024544
  -exchange      EXHF   =         0.00000000
  -V(xc)+E(xc)   XCENC  =     -6624.77106523
  PAW double counting   =     16887.37234019    -8836.02014662
  entropy T*S    EENTRO =        -0.22806998
  eigenvalues    EBANDS =     -2830.35959094
  atomic energy  EATOM  =     13755.34161216
  Solvation  Ediel_sol  =         0.00000000
  ---------------------------------------------------
  free energy    TOTEN  =      -955.71633165 eV

  energy without entropy =     -955.48826166  energy(sigma->0) =     -955.60229666


--------------------------------------------------------------------------------------------------------




----------------------------------------- Iteration    1(   5)  ---------------------------------------


     EDDAV:  cpu time   17.3910: real time   20.2503
       DOS:  cpu time    0.0029: real time    0.0029
    CHARGE:  cpu time    1.4879: real time    1.5512
    MIXING:  cpu time    0.0260: real time    0.0260
    --------------------------------------------
      LOOP:  cpu time   18.9096: real time   21.8341

 eigenvalue-minimisations  :  3024
 total energy-change (2. order) :-0.3210674E+00  (-0.3190880E+00)
 number of electron     760.9999985 magnetization 
 augmentation part       -9.9846887 magnetization 

 Broyden mixing:
  rms(total) = 0.19100E+01    rms(broyden)= 0.19099E+01
  rms(prec ) = 0.26218E+01
  weight for this iteration     100.00

 Free energy of the ion-electron system (eV)
  ---------------------------------------------------
  alpha Z        PSCENC =       499.79343438
  Ewald energy   TEWEN  =     89161.49539983
  -Hartree energ DENC   =   -102968.34024544
  -exchange      EXHF   =         0.00000000
  -V(xc)+E(xc)   XCENC  =     -6624.77106523
  PAW double counting   =     16887.37234019    -8836.02014662
  entropy T*S    EENTRO =        -0.22917485
  eigenvalues    EBANDS =     -2830.67955345
  atomic energy  EATOM  =     13755.34161216
  Solvation  Ediel_sol  =         0.00000000
  ---------------------------------------------------
  free energy    TOTEN  =      -956.03739902 eV

  energy without entropy =     -955.80822418  energy(sigma->0) =     -955.92281160


--------------------------------------------------------------------------------------------------------




----------------------------------------- Iteration    1(   6)  ---------------------------------------


    POTLOK:  cpu time    0.9210: real time    0.9240
    SETDIJ:  cpu time    0.1107: real time    0.1111
     EDDAV:  cpu time   16.7986: real time   19.5535
       DOS:  cpu time    0.0031: real time    0.0031
    CHARGE:  cpu time    1.4871: real time    1.5212
    MIXING:  cpu time    0.0298: real time    0.0300
    --------------------------------------------
      LOOP:  cpu time   19.3521: real time   22.1459

 eigenvalue-minimisations  :  2898
 total energy-change (2. order) :-0.9575602E+01  (-0.1872910E+02)
 number of electron     760.9999991 magnetization 
 augmentation part      -10.0757794 magnetization 

 Broyden mixing:
  rms(total) = 0.17841E+01    rms(broyden)= 0.17839E+01
  rms(prec ) = 0.39589E+01
  weight for this iteration     100.00

 eigenvalues of (default mixing * dielectric matrix)
  average eigenvalue GAMMA=   0.7416
  0.7416

 Free energy of the ion-electron system (eV)
  ---------------------------------------------------
  alpha Z        PSCENC =       499.79343438
  Ewald energy   TEWEN  =     89161.49539983
  -Hartree energ DENC   =   -103871.20646566
  -exchange      EXHF   =         0.00000000
  -V(xc)+E(xc)   XCENC  =     -6613.88135749
  PAW double counting   =     18765.52298211   -10715.54758665
  entropy T*S    EENTRO =        -0.12387399
  eigenvalues    EBANDS =     -1947.00714525
  atomic energy  EATOM  =     13755.34161216
  Solvation  Ediel_sol  =         0.00000000
  ---------------------------------------------------
  free energy    TOTEN  =      -965.61300057 eV

  energy without entropy =     -965.48912658  energy(sigma->0) =     -965.55106357


--------------------------------------------------------------------------------------------------------




----------------------------------------- Iteration    1(   7)  ---------------------------------------


    POTLOK:  cpu time    0.9598: real time    0.9629
    SETDIJ:  cpu time    0.1114: real time    0.1124
     EDDAV:  cpu time   15.3737: real time   17.9371
       DOS:  cpu time    0.0028: real time    0.0028
    CHARGE:  cpu time    1.4622: real time    1.4963
    MIXING:  cpu time    0.0316: real time    0.0318
    --------------------------------------------
      LOOP:  cpu time   17.9433: real time   20.5460

 eigenvalue-minimisations  :  2568
 total energy-change (2. order) : 0.3364048E+02  (-0.1234520E+02)
 number of electron     760.9999989 magnetization 
 augmentation part      -10.1929762 magnetization 

 Broyden mixing:
  rms(total) = 0.10690E+01    rms(broyden)= 0.10689E+01
  rms(prec ) = 0.16588E+01
  weight for this iteration     100.00

 eigenvalues of (default mixing * dielectric matrix)
  average eigenvalue GAMMA=   0.6794
  1.0502  0.3086

 Free energy of the ion-electron system (eV)
  ---------------------------------------------------
  alpha Z        PSCENC =       499.79343438
  Ewald energy   TEWEN  =     89161.49539983
  -Hartree energ DENC   =   -103356.35367075
  -exchange      EXHF   =         0.00000000
  -V(xc)+E(xc)   XCENC  =     -6611.80687868
  PAW double counting   =     19142.31047474   -11092.44974383
  entropy T*S    EENTRO =        -0.06824645
  eigenvalues    EBANDS =     -2430.23490534
  atomic energy  EATOM  =     13755.34161216
  Solvation  Ediel_sol  =         0.00000000
  ---------------------------------------------------
  free energy    TOTEN  =      -931.97252395 eV

  energy without entropy =     -931.90427750  energy(sigma->0) =     -931.93840072


--------------------------------------------------------------------------------------------------------




----------------------------------------- Iteration    1(   8)  ---------------------------------------


    POTLOK:  cpu time    0.9324: real time    0.9350
    SETDIJ:  cpu time    0.1102: real time    0.1104
     EDDAV:  cpu time   16.4193: real time   19.1473
       DOS:  cpu time    0.0091: real time    0.0091
    CHARGE:  cpu time    1.5025: real time    1.5382
    MIXING:  cpu time    0.0319: real time    0.0319
    --------------------------------------------
      LOOP:  cpu time   19.0074: real time   21.7749

 eigenvalue-minimisations  :  2820
 total energy-change (2. order) :-0.8610707E+01  (-0.3898993E+01)
 number of electron     760.9999995 magnetization 
 augmentation part      -10.1949471 magnetization 

 Broyden mixing:
  rms(total) = 0.98856E+00    rms(broyden)= 0.98852E+00
  rms(prec ) = 0.28610E+01
  weight for this iteration     100.00

 eigenvalues of (default mixing * dielectric matrix)
  average eigenvalue GAMMA=   0.7872
  1.5390  0.5521  0.2707

 Free energy of the ion-electron system (eV)
  ---------------------------------------------------
  alpha Z        PSCENC =       499.79343438
  Ewald energy   TEWEN  =     89161.49539983
  -Hartree energ DENC   =   -103453.33222920
  -exchange      EXHF   =         0.00000000
  -V(xc)+E(xc)   XCENC  =     -6607.74485330
  PAW double counting   =     19841.92455068   -11792.42819894
  entropy T*S    EENTRO =        -0.10276951
  eigenvalues    EBANDS =     -2345.53017704
  atomic energy  EATOM  =     13755.34161216
  Solvation  Ediel_sol  =         0.00000000
  ---------------------------------------------------
  free energy    TOTEN  =      -940.58323094 eV

  energy without entropy =     -940.48046143  energy(sigma->0) =     -940.53184618


--------------------------------------------------------------------------------------------------------




----------------------------------------- Iteration    1(   9)  ---------------------------------------


    POTLOK:  cpu time    0.9493: real time    0.9520
    SETDIJ:  cpu time    0.1103: real time    0.1103
     EDDAV:  cpu time   15.5422: real time   18.2099
       DOS:  cpu time    0.0010: real time    0.0010
    CHARGE:  cpu time    1.4794: real time    1.5137
    MIXING:  cpu time    0.0374: real time    0.0374
    --------------------------------------------
      LOOP:  cpu time   18.1216: real time   20.8273

 eigenvalue-minimisations  :  2628
 total energy-change (2. order) : 0.1073529E+02  (-0.1113629E+01)
 number of electron     760.9999988 magnetization 
 augmentation part      -10.2213039 magnetization 

 Broyden mixing:
  rms(total) = 0.55321E+00    rms(broyden)= 0.55314E+00
  rms(prec ) = 0.98570E+00
  weight for this iteration     100.00

 eigenvalues of (default mixing * dielectric matrix)
  average eigenvalue GAMMA=   0.8988
  2.4853  0.6697  0.2975  0.1427

 Free energy of the ion-electron system (eV)
  ---------------------------------------------------
  alpha Z        PSCENC =       499.79343438
  Ewald energy   TEWEN  =     89161.49539983
  -Hartree energ DENC   =   -103543.62945337
  -exchange      EXHF   =         0.00000000
  -V(xc)+E(xc)   XCENC  =     -6604.72348780
  PAW double counting   =     20337.37433598   -12288.17036300
  entropy T*S    EENTRO =        -0.08043182
  eigenvalues    EBANDS =     -2247.24898537
  atomic energy  EATOM  =     13755.34161216
  Solvation  Ediel_sol  =         0.00000000
  ---------------------------------------------------
  free energy    TOTEN  =      -929.84793902 eV

  energy without entropy =     -929.76750720  energy(sigma->0) =     -929.80772311


--------------------------------------------------------------------------------------------------------




----------------------------------------- Iteration    1(  10)  ---------------------------------------


    POTLOK:  cpu time    0.9237: real time    0.9263
    SETDIJ:  cpu time    0.1102: real time    0.1104
     EDDAV:  cpu time   14.9121: real time   17.4616
       DOS:  cpu time    0.0083: real time    0.0083
    CHARGE:  cpu time    1.4371: real time    1.4708
    MIXING:  cpu time    0.0345: real time    0.0347
    --------------------------------------------
      LOOP:  cpu time   17.4281: real time   20.0154

 eigenvalue-minimisations  :  2484
 total energy-change (2. order) : 0.2234208E+01  (-0.9936528E+00)
 number of electron     760.9999990 magnetization 
 augmentation part      -10.2615426 magnetization 

 Broyden mixing:
  rms(total) = 0.30158E+00    rms(broyden)= 0.30148E+00
  rms(prec ) = 0.34358E+00
  weight for this iteration     100.00

 eigenvalues of (default mixing * dielectric matrix)
  average eigenvalue GAMMA=   0.8310
  2.5056  0.6011  0.6011  0.3049  0.1425

 Free energy of the ion-electron system (eV)
  ---------------------------------------------------
  alpha Z        PSCENC =       499.79343438
  Ewald energy   TEWEN  =     89161.49539983
  -Hartree energ DENC   =   -103710.43132794
  -exchange      EXHF   =         0.00000000
  -V(xc)+E(xc)   XCENC  =     -6595.62446315
  PAW double counting   =     21683.79874468   -13635.58168082
  entropy T*S    EENTRO =        -0.06439279
  eigenvalues    EBANDS =     -2086.34105781
  atomic energy  EATOM  =     13755.34161216
  Solvation  Ediel_sol  =         0.00000000
  ---------------------------------------------------
  free energy    TOTEN  =      -927.61373146 eV

  energy without entropy =     -927.54933868  energy(sigma->0) =     -927.58153507


--------------------------------------------------------------------------------------------------------




----------------------------------------- Iteration    1(  11)  ---------------------------------------


    POTLOK:  cpu time    0.9507: real time    0.9537
    SETDIJ:  cpu time    0.1088: real time    0.1090
     EDDAV:  cpu time   16.4097: real time   19.1367
       DOS:  cpu time    0.0010: real time    0.0010
    CHARGE:  cpu time    1.4892: real time    1.5234
    MIXING:  cpu time    0.0370: real time    0.0370
    --------------------------------------------
      LOOP:  cpu time   18.9984: real time   21.7637

 eigenvalue-minimisations  :  2808
 total energy-change (2. order) : 0.1627143E+00  (-0.1906107E+00)
 number of electron     760.9999990 magnetization 
 augmentation part      -10.3410776 magnetization 

 Broyden mixing:
  rms(total) = 0.13306E+00    rms(broyden)= 0.13298E+00
  rms(prec ) = 0.15920E+00
  weight for this iteration     100.00

 eigenvalues of (default mixing * dielectric matrix)
  average eigenvalue GAMMA=   0.8692
  2.4241  0.8825  0.7341  0.7341  0.2982  0.1422

 Free energy of the ion-electron system (eV)
  ---------------------------------------------------
  alpha Z        PSCENC =       499.79343438
  Ewald energy   TEWEN  =     89161.49539983
  -Hartree energ DENC   =   -103735.39853408
  -exchange      EXHF   =         0.00000000
  -V(xc)+E(xc)   XCENC  =     -6594.62807404
  PAW double counting   =     21759.57958207   -13711.55097463
  entropy T*S    EENTRO =        -0.06288647
  eigenvalues    EBANDS =     -2062.02057637
  atomic energy  EATOM  =     13755.34161216
  Solvation  Ediel_sol  =         0.00000000
  ---------------------------------------------------
  free energy    TOTEN  =      -927.45101716 eV

  energy without entropy =     -927.38813069  energy(sigma->0) =     -927.41957392


--------------------------------------------------------------------------------------------------------




----------------------------------------- Iteration    1(  12)  ---------------------------------------


    POTLOK:  cpu time    0.9691: real time    0.9720
    SETDIJ:  cpu time    0.1078: real time    0.1080
     EDDAV:  cpu time   15.3721: real time   18.0268
       DOS:  cpu time    0.0018: real time    0.0018
    CHARGE:  cpu time    1.4631: real time    1.4971
    MIXING:  cpu time    0.0388: real time    0.0389
    --------------------------------------------
      LOOP:  cpu time   17.9548: real time   20.6476

 eigenvalue-minimisations  :  2592
 total energy-change (2. order) : 0.4717580E-02  (-0.7830690E-01)
 number of electron     760.9999990 magnetization 
 augmentation part      -10.3728870 magnetization 

 Broyden mixing:
  rms(total) = 0.92355E-01    rms(broyden)= 0.92206E-01
  rms(prec ) = 0.11428E+00
  weight for this iteration     100.00

 eigenvalues of (default mixing * dielectric matrix)
  average eigenvalue GAMMA=   0.9846
  2.2361  2.2361  0.6832  0.6832  0.6122  0.2992  0.1422

 Free energy of the ion-electron system (eV)
  ---------------------------------------------------
  alpha Z        PSCENC =       499.79343438
  Ewald energy   TEWEN  =     89161.49539983
  -Hartree energ DENC   =   -103769.53790331
  -exchange      EXHF   =         0.00000000
  -V(xc)+E(xc)   XCENC  =     -6594.18467120
  PAW double counting   =     21754.46407181   -13706.70432380
  entropy T*S    EENTRO =        -0.06305506
  eigenvalues    EBANDS =     -2028.05086438
  atomic energy  EATOM  =     13755.34161216
  Solvation  Ediel_sol  =         0.00000000
  ---------------------------------------------------
  free energy    TOTEN  =      -927.44629958 eV

  energy without entropy =     -927.38324451  energy(sigma->0) =     -927.41477205


--------------------------------------------------------------------------------------------------------




----------------------------------------- Iteration    1(  13)  ---------------------------------------


    POTLOK:  cpu time    0.9591: real time    0.9628
    SETDIJ:  cpu time    0.1110: real time    0.1110
     EDDAV:  cpu time   15.1139: real time   17.6408
       DOS:  cpu time    0.0035: real time    0.0035
    CHARGE:  cpu time    1.4578: real time    1.4921
    MIXING:  cpu time    0.0408: real time    0.0408
    --------------------------------------------
      LOOP:  cpu time   17.6882: real time   20.2540

 eigenvalue-minimisations  :  2520
 total energy-change (2. order) : 0.3385289E-01  (-0.9712874E-02)
 number of electron     760.9999990 magnetization 
 augmentation part      -10.3666136 magnetization 

 Broyden mixing:
  rms(total) = 0.63603E-01    rms(broyden)= 0.63594E-01
  rms(prec ) = 0.86987E-01
  weight for this iteration     100.00

 eigenvalues of (default mixing * dielectric matrix)
  average eigenvalue GAMMA=   1.0047
  2.4648  2.4648  0.7064  0.7064  0.1422  0.2990  0.6271  0.6271

 Free energy of the ion-electron system (eV)
  ---------------------------------------------------
  alpha Z        PSCENC =       499.79343438
  Ewald energy   TEWEN  =     89161.49539983
  -Hartree energ DENC   =   -103804.92428483
  -exchange      EXHF   =         0.00000000
  -V(xc)+E(xc)   XCENC  =     -6593.68015772
  PAW double counting   =     21772.29538262   -13724.74765082
  entropy T*S    EENTRO =        -0.06319413
  eigenvalues    EBANDS =     -1992.92298817
  atomic energy  EATOM  =     13755.34161216
  Solvation  Ediel_sol  =         0.00000000
  ---------------------------------------------------
  free energy    TOTEN  =      -927.41244669 eV

  energy without entropy =     -927.34925255  energy(sigma->0) =     -927.38084962


--------------------------------------------------------------------------------------------------------




----------------------------------------- Iteration    1(  14)  ---------------------------------------


    POTLOK:  cpu time    0.9523: real time    0.9542
    SETDIJ:  cpu time    0.1082: real time    0.1086
     EDDAV:  cpu time   14.5206: real time   17.0519
       DOS:  cpu time    0.0014: real time    0.0014
    CHARGE:  cpu time    1.4710: real time    1.5064
    MIXING:  cpu time    0.0374: real time    0.0376
    --------------------------------------------
      LOOP:  cpu time   17.0926: real time   19.6628

 eigenvalue-minimisations  :  2400
 total energy-change (2. order) : 0.2600533E-01  (-0.6958616E-02)
 number of electron     760.9999990 magnetization 
 augmentation part      -10.3582028 magnetization 

 Broyden mixing:
  rms(total) = 0.29936E-01    rms(broyden)= 0.29922E-01
  rms(prec ) = 0.47335E-01
  weight for this iteration     100.00

 eigenvalues of (default mixing * dielectric matrix)
  average eigenvalue GAMMA=   1.0343
  2.6289  2.6289  0.7407  0.7407  0.8580  0.7727  0.1422  0.2991  0.4976

 Free energy of the ion-electron system (eV)
  ---------------------------------------------------
  alpha Z        PSCENC =       499.79343438
  Ewald energy   TEWEN  =     89161.49539983
  -Hartree energ DENC   =   -103834.63031188
  -exchange      EXHF   =         0.00000000
  -V(xc)+E(xc)   XCENC  =     -6593.24651630
  PAW double counting   =     21783.73118264   -13736.32195940
  entropy T*S    EENTRO =        -0.06206898
  eigenvalues    EBANDS =     -1963.48721380
  atomic energy  EATOM  =     13755.34161216
  Solvation  Ediel_sol  =         0.00000000
  ---------------------------------------------------
  free energy    TOTEN  =      -927.38644136 eV

  energy without entropy =     -927.32437238  energy(sigma->0) =     -927.35540687


--------------------------------------------------------------------------------------------------------




----------------------------------------- Iteration    1(  15)  ---------------------------------------


    POTLOK:  cpu time    0.9535: real time    0.9585
    SETDIJ:  cpu time    0.1115: real time    0.1117
     EDDAV:  cpu time   14.6801: real time   17.1601
       DOS:  cpu time    0.0024: real time    0.0024
    CHARGE:  cpu time    1.4852: real time    1.5185
    MIXING:  cpu time    0.0470: real time    0.0477
    --------------------------------------------
      LOOP:  cpu time   17.2815: real time   19.8018

 eigenvalue-minimisations  :  2412
 total energy-change (2. order) : 0.9096073E-02  (-0.2266389E-02)
 number of electron     760.9999990 magnetization 
 augmentation part      -10.3567008 magnetization 

 Broyden mixing:
  rms(total) = 0.18577E-01    rms(broyden)= 0.18575E-01
  rms(prec ) = 0.30066E-01
  weight for this iteration     100.00

 eigenvalues of (default mixing * dielectric matrix)
  average eigenvalue GAMMA=   1.0901
  2.9948  2.5553  1.4894  0.7302  0.7302  0.1422  0.2991  0.8165  0.6536  0.4896

 Free energy of the ion-electron system (eV)
  ---------------------------------------------------
  alpha Z        PSCENC =       499.79343438
  Ewald energy   TEWEN  =     89161.49539983
  -Hartree energ DENC   =   -103862.83754287
  -exchange      EXHF   =         0.00000000
  -V(xc)+E(xc)   XCENC  =     -6592.89004891
  PAW double counting   =     21785.72150792   -13738.37921045
  entropy T*S    EENTRO =        -0.06162910
  eigenvalues    EBANDS =     -1935.56086823
  atomic energy  EATOM  =     13755.34161216
  Solvation  Ediel_sol  =         0.00000000
  ---------------------------------------------------
  free energy    TOTEN  =      -927.37734529 eV

  energy without entropy =     -927.31571619  energy(sigma->0) =     -927.34653074


--------------------------------------------------------------------------------------------------------




----------------------------------------- Iteration    1(  16)  ---------------------------------------


    POTLOK:  cpu time    0.9637: real time    0.9661
    SETDIJ:  cpu time    0.1112: real time    0.1118
     EDDAV:  cpu time   14.7653: real time   17.3410
       DOS:  cpu time    0.0025: real time    0.0025
    CHARGE:  cpu time    1.5069: real time    1.5401
    MIXING:  cpu time    0.0512: real time    0.0518
    --------------------------------------------
      LOOP:  cpu time   17.4029: real time   20.0164

 eigenvalue-minimisations  :  2436
 total energy-change (2. order) :-0.4039255E-02  (-0.1654411E-02)
 number of electron     760.9999990 magnetization 
 augmentation part      -10.3549508 magnetization 

 Broyden mixing:
  rms(total) = 0.11744E-01    rms(broyden)= 0.11743E-01
  rms(prec ) = 0.18278E-01
  weight for this iteration     100.00

 eigenvalues of (default mixing * dielectric matrix)
  average eigenvalue GAMMA=   1.1751
  3.5679  2.6567  1.8270  0.1422  0.2991  0.7281  0.7281  0.9737  0.8082  0.7094
  0.4861

 Free energy of the ion-electron system (eV)
  ---------------------------------------------------
  alpha Z        PSCENC =       499.79343438
  Ewald energy   TEWEN  =     89161.49539983
  -Hartree energ DENC   =   -103888.33908954
  -exchange      EXHF   =         0.00000000
  -V(xc)+E(xc)   XCENC  =     -6592.64766128
  PAW double counting   =     21784.15713223   -13736.79185348
  entropy T*S    EENTRO =        -0.06048972
  eigenvalues    EBANDS =     -1910.32986912
  atomic energy  EATOM  =     13755.34161216
  Solvation  Ediel_sol  =         0.00000000
  ---------------------------------------------------
  free energy    TOTEN  =      -927.38138454 eV

  energy without entropy =     -927.32089482  energy(sigma->0) =     -927.35113968


--------------------------------------------------------------------------------------------------------




----------------------------------------- Iteration    1(  17)  ---------------------------------------


    POTLOK:  cpu time    0.9427: real time    0.9450
    SETDIJ:  cpu time    0.1105: real time    0.1114
     EDDAV:  cpu time   14.8456: real time   17.3358
       DOS:  cpu time    0.0023: real time    0.0023
[...]
     13.99349      0.00424      0.00106        -0.000052      0.000216      0.000190
     13.98641     -2.86343     -4.95853        -0.000151     -0.000000      0.000498
     13.99842     -5.72711     -9.92307         0.000015      0.000147      0.000186
     13.99349     -5.73110      0.00106        -0.000052     -0.000216      0.000190
     13.97946     -8.58174     -4.94393        -0.000744      0.000263      0.000114
     13.99668    -11.45372     -9.92635        -0.000482     -0.000000      0.000612
     13.98733    -11.45372     -0.00224         0.000496     -0.000000      0.000126
     13.97946    -14.32569     -4.94393        -0.000744     -0.000263      0.000114
     13.99842    -17.18032     -9.92307         0.000015     -0.000147      0.000186
     16.33189     -2.86343     -1.65698        -0.000140     -0.000000     -0.000150
     16.33731     -5.70214     -6.60938        -0.000210     -0.000060      0.000130
     16.35677     -8.60435    -11.58006        -0.000166     -0.000214      0.000775
     16.34315     -8.59475     -1.65180        -0.000030     -0.000124     -0.000369
     16.44395    -11.45372     -6.55252         0.000298     -0.000000      0.000361
     16.35677    -14.30308    -11.58006        -0.000166      0.000214      0.000775
     16.34315    -14.31268     -1.65180        -0.000030      0.000124     -0.000369
     16.33731    -17.20529     -6.60938        -0.000210      0.000060      0.000130
     16.32711    -20.04400    -11.57196         0.000933      0.000000      0.000120
      2.36887     -7.15656     -4.13240        -0.000120     -0.000007      0.000209
      2.35478    -10.02604     -9.09028         0.000120     -0.000106      0.000061
      2.36887    -12.88494    -14.05426        -0.000120     -0.000184     -0.000098
      2.37468    -12.88805     -4.13670        -0.000403     -0.000134     -0.000064
      2.37468    -15.74697     -9.08849        -0.000403     -0.000011      0.000148
      2.35502    -18.60894    -14.05414         0.000361     -0.000036      0.000021
      2.35908    -18.61117     -4.13365         0.000186      0.000267     -0.000154
      2.37218    -21.47592     -9.09513         0.000042     -0.000080      0.000185
      2.37218    -24.33706    -14.05077         0.000042     -0.000200     -0.000023
      4.71094    -10.02487     -5.79213        -0.000122      0.000387      0.000259
      4.71094    -12.88174    -10.74036        -0.000122     -0.000030     -0.000465
      4.71707     -7.15629     -0.82792         0.000290      0.000257     -0.000148
      4.71456    -15.74610     -5.78780         0.000138      0.000229     -0.000132
      4.71038    -18.61137    -10.74816         0.000396      0.000198      0.000042
      4.71038    -12.88294     -0.82622         0.000396      0.000063     -0.000192
      4.71342     -4.29582     -5.78356         0.000147      0.000242     -0.000151
      4.71908     -7.16056    -10.74466         0.000443      0.000400     -0.000231
      4.71342     -1.43434     -0.82734         0.000147      0.000252     -0.000134
      7.01772    -12.88208     -7.44134        -0.000648      0.000400     -0.000231
      7.02108    -15.74989    -12.39786         0.000056     -0.000176     -0.000018
      7.02108    -10.02351     -2.47949         0.000056     -0.000072      0.000162
      7.01824    -18.61148     -7.43795         0.000135     -0.000300      0.000115
      7.01515    -21.47285    -12.40066         0.000229      0.000093     -0.000054
      7.01824    -15.74972     -2.48123         0.000135     -0.000250      0.000203
      7.01748     -7.16661     -7.44076        -0.000295      0.000037      0.000138
      7.01748    -10.02485    -12.39137        -0.000295     -0.000101     -0.000101
      7.01864     -4.29217     -2.48152         0.000027     -0.000023      0.000013
      9.35269    -15.74183     -9.09202        -0.000503      0.000022     -0.000211
      9.35383    -18.61355    -14.05148         0.000781     -0.000499      0.000288
      9.35269    -12.88243     -4.13939        -0.000503      0.000194      0.000087
      9.35110    -21.47618     -9.08855         0.000108     -0.000080     -0.000146
      9.35110    -24.34290    -14.05384         0.000108      0.000086      0.000143
      9.35817    -18.61198     -4.13318         0.000413     -0.000251      0.000145
      9.36066    -10.02223     -9.09248        -0.000423      0.000076     -0.000044
      9.35138    -12.88463    -14.04800        -0.000192     -0.000057     -0.000263
      9.35138     -7.16182     -4.13580        -0.000192      0.000199      0.000181
     11.69113    -18.60872    -10.74308         0.000088      0.000130      0.000184
     11.69113    -12.88601     -0.83105         0.000088     -0.000094     -0.000204
     11.68636    -15.74903     -5.78611        -0.000071      0.000033     -0.000019
     11.69807     -7.16492    -10.74214         0.000454      0.000631     -0.000364
     11.68836     -1.43014     -0.82405        -0.000175      0.000151      0.000236
     11.68836     -4.29657     -5.78884        -0.000175     -0.000129     -0.000248
     11.69973    -12.88134    -10.73921        -0.000214      0.000041      0.000045
     11.68788     -7.15944     -0.82610         0.000372     -0.000223      0.000129
     11.69973    -10.02567     -5.79305        -0.000214     -0.000019     -0.000058
     13.98733    -21.47765    -12.39789         0.000496      0.000109     -0.000063
     13.99349    -15.74582     -2.47666        -0.000052      0.000272      0.000092
     13.99349    -18.61349     -7.44361        -0.000052      0.000057     -0.000282
     13.97946    -10.01270    -12.41425        -0.000744     -0.000033     -0.000285
     13.98641     -4.29422     -2.48034        -0.000151      0.000432     -0.000249
     13.97946     -7.14073     -7.43984        -0.000744      0.000230      0.000171
     13.99842    -15.75208    -12.39686         0.000015      0.000087     -0.000220
     13.99842    -10.02547     -2.47809         0.000015      0.000234      0.000034
     13.99668    -12.89162     -7.43583        -0.000482      0.000530     -0.000306
     16.34315    -24.33570    -14.04905        -0.000030     -0.000258      0.000292
     16.33189    -18.61556     -4.13111        -0.000140     -0.000130      0.000075
     16.34315    -21.47674     -9.09717        -0.000030     -0.000382      0.000077
     16.33731    -12.89482    -14.07533        -0.000210      0.000142     -0.000013
     16.33731     -7.14325     -4.11331        -0.000210      0.000082     -0.000117
     16.44395     -9.96979     -9.12275         0.000298      0.000313     -0.000181
     16.32711    -18.61190    -14.05244         0.000933      0.000104     -0.000060
     16.35677    -12.89909     -4.14136        -0.000166      0.000565     -0.000573
     16.35677    -15.74845     -9.07660        -0.000166      0.000778     -0.000203
      2.35466     -8.58956     -6.61239        -0.000164      0.000034      0.000020
      2.35466    -11.45372    -11.57325        -0.000164      0.000000     -0.000040
      2.36663     -5.72727     -1.65296         0.000300     -0.000260      0.000150
      2.35466    -14.31787     -6.61239        -0.000164     -0.000034      0.000020
      2.36762    -17.17823    -11.57105         0.000165     -0.000207     -0.000120
      2.36762    -11.45372     -1.65591         0.000165     -0.000000      0.000239
      2.36663    -20.04400     -6.61329         0.000300      0.000000     -0.000300
      2.36762    -22.90978    -11.57105         0.000165      0.000207     -0.000120
      2.36663    -17.18016     -1.65296         0.000300      0.000260      0.000150
      4.70695    -11.45372     -8.26601        -0.000466      0.000000      0.000000
      4.71727    -14.31571    -13.22543         0.000548     -0.000051     -0.000040
      4.71727     -8.58972     -3.30774         0.000548      0.000009      0.000064
      4.71727    -17.17970     -8.26485         0.000548     -0.000061     -0.000024
      4.70238    -20.04400    -13.22561         0.001039      0.000000      0.000000
      4.71727    -14.31771     -3.30774         0.000548     -0.000009      0.000064
      4.71727     -5.72773     -8.26485         0.000548      0.000061     -0.000024
      4.71727     -8.59172    -13.22543         0.000548      0.000051     -0.000040
      4.70758     -2.86343     -3.30640         0.000263      0.000000      0.000000
      7.01268    -14.31047     -9.91535        -0.000359      0.000094      0.000055
      7.01658     -8.59610      0.00336        -0.000178      0.000103     -0.000059
      7.01268    -11.45372     -4.96731        -0.000359     -0.000000     -0.000109
      7.01658    -20.04400     -9.92592        -0.000178      0.000000      0.000119
      7.01658    -14.31133      0.00336        -0.000178     -0.000103     -0.000059
      7.01684    -17.18081     -4.95947         0.000028     -0.000133      0.000077
      7.01268     -8.59696     -9.91535        -0.000359     -0.000094      0.000055
      7.01684     -2.86343     -0.00027         0.000028      0.000000     -0.000153
      7.01684     -5.72662     -4.95947         0.000028      0.000133      0.000077
      9.35289    -17.18157    -11.57298         0.000864      0.000493      0.000285
      9.35289    -11.45372     -1.65205         0.000864      0.000000     -0.000570
      9.35929    -14.30997     -6.61695        -0.000735      0.000020     -0.000012
      9.35289    -22.90644    -11.57298         0.000864     -0.000493      0.000285
      9.35517    -17.18337     -1.65482         0.000389      0.000257      0.000148
      9.35517    -20.04400     -6.60957         0.000389     -0.000000     -0.000297
      9.35929    -11.45372    -11.56412        -0.000735      0.000000      0.000023
      9.35517     -5.72406     -1.65482         0.000389     -0.000257      0.000148
      9.35929     -8.59746     -6.61695        -0.000735     -0.000020     -0.000012
     11.69670    -20.04400    -13.22561         0.000663      0.000000      0.000000
     11.68673    -14.31230     -3.30915         0.000327     -0.000322     -0.000235
     11.68673    -17.17577     -8.26882         0.000327      0.000042      0.000396
     11.68673     -8.59025    -13.22004         0.000327     -0.000364     -0.000162
     11.68499     -2.86343     -3.30640         0.000572      0.000000      0.000000
     11.68673     -5.73166     -8.26882         0.000327     -0.000042      0.000396
     11.68673    -14.31718    -13.22004         0.000327      0.000364     -0.000162
     11.68673     -8.59513     -3.30915         0.000327      0.000322     -0.000235
     11.67424    -11.45372     -8.26601         0.000141     -0.000000      0.000000
     13.98855    -14.31861     -0.00085         0.000215      0.000421      0.000243
     13.98532    -17.19076     -4.95372        -0.000709     -0.000712      0.000411
     13.98855    -20.04400     -9.91752         0.000215      0.000000     -0.000486
     13.98532     -2.86343     -0.01176        -0.000709      0.000000     -0.000822
     13.98532     -5.71667     -4.95372        -0.000709      0.000712      0.000411
     14.01037     -8.60166     -9.91264        -0.000678      0.000456     -0.000264
     13.98855     -8.58882     -0.00085         0.000215     -0.000421      0.000243
     14.01037    -11.45372     -4.97273        -0.000678     -0.000000      0.000527
     14.01037    -14.30577     -9.91264        -0.000678     -0.000456     -0.000264
     16.33671    -17.18104     -1.65347         0.000211     -0.000020     -0.000012
     16.33671    -20.04400     -6.61227         0.000211     -0.000000      0.000023
     16.35154    -22.91893    -11.56577        -0.000235     -0.000046      0.000026
     16.33671     -5.72639     -1.65347         0.000211      0.000020     -0.000012
     16.28221     -8.51744     -6.57075        -0.000316      0.000119      0.000069
     16.28221    -11.45372    -11.65653        -0.000316     -0.000000     -0.000137
     16.35154    -11.45372     -1.66648        -0.000235      0.000000     -0.000053
     16.28221    -14.38999     -6.57075        -0.000316     -0.000119      0.000069
     16.35154    -17.16908    -11.56577        -0.000235      0.000046      0.000026
      2.37468    -10.01938     -4.13670        -0.000403      0.000134     -0.000064
      2.35478    -12.88139     -9.09028         0.000120      0.000106      0.000061
      2.37218    -15.75094    -14.05077         0.000042      0.000200     -0.000023
      2.36887    -15.75087     -4.13240        -0.000120      0.000007      0.000209
      2.37218    -18.61208     -9.09513         0.000042      0.000080      0.000185
      2.35502    -21.47906    -14.05414         0.000361      0.000036      0.000021
      2.35908     -4.29626     -4.13365         0.000186     -0.000267     -0.000154
      2.37468     -7.16046     -9.08849        -0.000403      0.000011      0.000148
      2.36887    -10.02249    -14.05426        -0.000120      0.000184     -0.000098
      4.71094    -12.88256     -5.79213        -0.000122     -0.000387      0.000259
      4.71908    -15.74687    -10.74466         0.000443     -0.000400     -0.000231
      4.71038    -10.02450     -0.82622         0.000396     -0.000063     -0.000192
      4.71342    -18.61161     -5.78356         0.000147     -0.000242     -0.000151
      4.71038    -21.47663    -10.74816         0.000396     -0.000198      0.000042
      4.71707    -15.75114     -0.82792         0.000290     -0.000257     -0.000148
      4.71456     -7.16133     -5.78780         0.000138     -0.000229     -0.000132
      4.71094    -10.02570    -10.74036        -0.000122      0.000030     -0.000465
      4.71342     -4.29251     -0.82734         0.000147     -0.000252     -0.000134
      7.01748    -15.74082     -7.44076        -0.000295     -0.000037      0.000138
      7.01515    -18.61515    -12.40066         0.000229     -0.000093     -0.000054
      7.02108    -12.88392     -2.47949         0.000056      0.000072      0.000162
      7.01824     -4.29595     -7.43795         0.000135      0.000300      0.000115
      7.02108     -7.15755    -12.39786         0.000056      0.000176     -0.000018
      7.01864     -1.43469     -2.48152         0.000027      0.000023      0.000013
      7.01772    -10.02535     -7.44134        -0.000648     -0.000400     -0.000231
      7.01748    -12.88258    -12.39137        -0.000295      0.000101     -0.000101
      7.01824     -7.15772     -2.48123         0.000135      0.000250      0.000203
      9.35110    -18.61182     -9.08855         0.000108      0.000080     -0.000146
      9.35383    -21.47445    -14.05148         0.000781      0.000499      0.000288
      9.35138    -15.74561     -4.13580        -0.000192     -0.000199      0.000181
      9.35269     -7.16560     -9.09202        -0.000503     -0.000022     -0.000211
      9.35138    -10.02280    -14.04800        -0.000192      0.000057     -0.000263
      9.35817     -4.29545     -4.13318         0.000413      0.000251      0.000145
      9.36066    -12.88520     -9.09248        -0.000423     -0.000076     -0.000044
      9.35110    -15.74511    -14.05384         0.000108     -0.000086      0.000143
      9.35269    -10.02500     -4.13939        -0.000503     -0.000194      0.000087
     11.69113    -21.47928    -10.74308         0.000088     -0.000130      0.000184
     11.68788    -15.74799     -0.82610         0.000372      0.000223      0.000129
     11.68836    -18.61087     -5.78884        -0.000175      0.000129     -0.000248
     11.69973    -10.02609    -10.73921        -0.000214     -0.000041      0.000045
     11.68836     -4.29672     -0.82405        -0.000175     -0.000151      0.000236
     11.68636     -7.15841     -5.78611        -0.000071     -0.000033     -0.000019
     11.69807    -15.74251    -10.74214         0.000454     -0.000631     -0.000364
     11.69113    -10.02142     -0.83105         0.000088      0.000094     -0.000204
     11.69973    -12.88176     -5.79305        -0.000214      0.000019     -0.000058
     13.99842     -7.15535    -12.39686         0.000015     -0.000087     -0.000220
     13.98641     -1.43264     -2.48034        -0.000151     -0.000432     -0.000249
     13.99349     -4.29394     -7.44361        -0.000052     -0.000057     -0.000282
     13.97946    -12.89473    -12.41425        -0.000744      0.000033     -0.000285
     13.99349     -7.16161     -2.47666        -0.000052     -0.000272      0.000092
     13.99668    -10.01581     -7.43583        -0.000482     -0.000530     -0.000306
     13.98733    -18.61035    -12.39789         0.000496     -0.000109     -0.000063
     13.99842    -12.88196     -2.47809         0.000015     -0.000234      0.000034
     13.97946    -15.76670     -7.43984        -0.000744     -0.000230      0.000171
     16.33731    -10.01261    -14.07533        -0.000210     -0.000142     -0.000013
     16.33189     -4.29187     -4.13111        -0.000140      0.000130      0.000075
     16.35677     -7.15898     -9.07660        -0.000166     -0.000778     -0.000203
     16.34315    -15.75230    -14.04905        -0.000030      0.000258      0.000292
     16.35677    -10.00835     -4.14136        -0.000166     -0.000565     -0.000573
     16.44395    -12.93764     -9.12275         0.000298     -0.000313     -0.000181
     16.32711    -21.47611    -14.05244         0.000933     -0.000104     -0.000060
     16.33731    -15.76418     -4.11331        -0.000210     -0.000082     -0.000117
     16.34315    -18.61127     -9.09717        -0.000030      0.000382      0.000077
     17.14580    -11.45372     -8.26601        -0.001309     -0.000000      0.000000
 -----------------------------------------------------------------------------------
    total drift:                                0.013380      0.000552     -0.000299


--------------------------------------------------------------------------------------------------------



  FREE ENERGIE OF THE ION-ELECTRON SYSTEM (eV)
  ---------------------------------------------------
  free  energy   TOTEN  =      -928.73344754 eV

  energy  without entropy=     -928.65774868  energy(sigma->0) =     -928.69559811
 
 d Force = 0.6248470E-05[ 0.104E-06, 0.124E-04]  d Energy = 0.6877137E-05-0.629E-06
 d Force =-0.1536318E+01[-0.154E+01,-0.154E+01]  d Ewald  =-0.1536318E+01-0.611E-09


--------------------------------------------------------------------------------------------------------


    POTLOK:  cpu time    1.0915: real time    1.0956


--------------------------------------------------------------------------------------------------------




--------------------------------------------------------------------------------------------------------


  
 reached required accuracy - stopping structural energy minimisation
     LOOP+:  cpu time   92.7534: real time  105.8292
    4ORBIT:  cpu time    0.0000: real time    0.0000

 total amount of memory used by VASP MPI-rank0   517828. kBytes
=======================================================================

   base      :      30000. kBytes
   nonlr-proj:      89523. kBytes
   fftplans  :      40601. kBytes
   grid      :      95147. kBytes
   one-center:       3934. kBytes
   wavefun   :     258623. kBytes
 
  
  
 General timing and accounting informations for this job:
 ========================================================
  
                  Total CPU time used (sec):     5364.973
                            User time (sec):     2234.843
                          System time (sec):     3130.130
                         Elapsed time (sec):     6148.090
  
                   Maximum memory used (kb):      869864.
                   Average memory used (kb):           0.
  
                          Minor page faults:    177306083
                          Major page faults:           63
                 Voluntary context switches:       122376
