NiAl                                    
           1
     0.000000  -17.180573    0.000000
     0.000000   -8.590287  -14.878813
    30.000000    0.000000    0.000000
   Al   N 
 252   1
Direct configuration=     1
   0.44444444  0.44444444  0.07873473
   0.44444444  0.77777778  0.07873473
   0.44444444  0.11111111  0.07873473
   0.77777778  0.44444444  0.07873473
   0.77777778  0.77777778  0.07873473
   0.77777778  0.11111111  0.07873473
   0.11111111  0.44444444  0.07873473
   0.11111111  0.77777778  0.07873473
   0.11111111  0.11111111  0.07873473
   0.55555556  0.55555556  0.15702584
   0.55555556  0.88888889  0.15702584
   0.55555556  0.22222222  0.15702584
   0.88888889  0.55555556  0.15702584
   0.88888889  0.88888889  0.15702584
   0.88888889  0.22222222  0.15702584
   0.22222222  0.55555556  0.15702584
   0.22222222  0.88888889  0.15702584
   0.22222222  0.22222222  0.15702584
   0.66666667  0.66666667  0.23375740
   0.66666667  0.00000000  0.23375740
   0.66666667  0.33333333  0.23375740
   0.00000000  0.66666667  0.23375740
   0.00000000  0.00000000  0.23375740
   0.00000000  0.33333333  0.23375740
   0.33333333  0.66666667  0.23375740
   0.33333333  0.00000000  0.23375740
   0.33333333  0.33333333  0.23375740
   0.77777778  0.77777778  0.31173066
   0.77777778  0.11111111  0.31173066
   0.77777778  0.44444444  0.31173066
   0.11111111  0.77777778  0.31173066
   0.11111111  0.11111111  0.31173066
   0.11111111  0.44444444  0.31173066
   0.44444444  0.77777778  0.31173066
   0.44444444  0.11111111  0.31173066
   0.44444444  0.44444444  0.31173066
   0.88888889  0.88888889  0.38970391
   0.88888889  0.22222222  0.38970391
   0.88888889  0.55555556  0.38970391
   0.22222222  0.88888889  0.38970391
   0.22222222  0.22222222  0.38970391
   0.22222222  0.55555556  0.38970391
   0.55555556  0.88888889  0.38970391
   0.55555556  0.22222222  0.38970391
   0.55555556  0.55555556  0.38970391
   0.00000000  0.00000000  0.46643547
   0.00000000  0.33333333  0.46643547
   0.00000000  0.66666667  0.46643547
   0.33333333  0.00000000  0.46643547
   0.33333333  0.33333333  0.46643547
   0.33333333  0.66666667  0.46643547
   0.66666667  0.00000000  0.46643547
   0.66666667  0.33333333  0.46643547
   0.66666667  0.66666667  0.46643547
   0.11111111  0.11111111  0.54472658
   0.11111111  0.44444444  0.54472658
   0.11111111  0.77777778  0.54472658
   0.44444444  0.11111111  0.54472658
   0.44444444  0.44444444  0.54472658
   0.44444444  0.77777778  0.54472658
   0.77777778  0.11111111  0.54472658
   0.77777778  0.44444444  0.54472658
   0.77777778  0.77777778  0.54472658
   0.27777778  0.27777778  0.07873473
   0.27777778  0.61111111  0.07873473
   0.27777778  0.94444444  0.07873473
   0.61111111  0.27777778  0.07873473
   0.61111111  0.61111111  0.07873473
   0.61111111  0.94444444  0.07873473
   0.94444444  0.27777778  0.07873473
   0.94444444  0.61111111  0.07873473
   0.94444444  0.94444444  0.07873473
   0.38888889  0.38888889  0.15702584
   0.38888889  0.72222222  0.15702584
   0.38888889  0.05555556  0.15702584
   0.72222222  0.38888889  0.15702584
   0.72222222  0.72222222  0.15702584
   0.72222222  0.05555556  0.15702584
   0.05555556  0.38888889  0.15702584
   0.05555556  0.72222222  0.15702584
   0.05555556  0.05555556  0.15702584
   0.50000000  0.50000000  0.23375740
   0.50000000  0.83333333  0.23375740
   0.50000000  0.16666667  0.23375740
   0.83333333  0.50000000  0.23375740
   0.83333333  0.83333333  0.23375740
   0.83333333  0.16666667  0.23375740
   0.16666667  0.50000000  0.23375740
   0.16666667  0.83333333  0.23375740
   0.16666667  0.16666667  0.23375740
   0.61111111  0.61111111  0.31173066
   0.61111111  0.94444444  0.31173066
   0.61111111  0.27777778  0.31173066
   0.94444444  0.61111111  0.31173066
   0.94444444  0.94444444  0.31173066
   0.94444444  0.27777778  0.31173066
   0.27777778  0.61111111  0.31173066
   0.27777778  0.94444444  0.31173066
   0.27777778  0.27777778  0.31173066
   0.72222222  0.72222222  0.38970391
   0.72222222  0.05555556  0.38970391
   0.72222222  0.38888889  0.38970391
   0.05555556  0.72222222  0.38970391
   0.05555556  0.05555556  0.38970391
   0.05555556  0.38888889  0.38970391
   0.38888889  0.72222222  0.38970391
   0.38888889  0.05555556  0.38970391
   0.38888889  0.38888889  0.38970391
   0.83333333  0.83333333  0.46643547
   0.83333333  0.16666667  0.46643547
   0.83333333  0.50000000  0.46643547
   0.16666667  0.83333333  0.46643547
   0.16666667  0.16666667  0.46643547
   0.16666667  0.50000000  0.46643547
   0.50000000  0.83333333  0.46643547
   0.50000000  0.16666667  0.46643547
   0.50000000  0.50000000  0.46643547
   0.94444444  0.94444444  0.54472658
   0.94444444  0.27777778  0.54472658
   0.94444444  0.61111111  0.54472658
   0.27777778  0.94444444  0.54472658
   0.27777778  0.27777778  0.54472658
   0.27777778  0.61111111  0.54472658
   0.61111111  0.94444444  0.54472658
   0.61111111  0.27777778  0.54472658
   0.61111111  0.61111111  0.54472658
   0.27777778  0.44444444  0.07873473
   0.27777778  0.77777778  0.07873473
   0.27777778  0.11111111  0.07873473
   0.61111111  0.44444444  0.07873473
   0.61111111  0.77777778  0.07873473
   0.61111111  0.11111111  0.07873473
   0.94444444  0.44444444  0.07873473
   0.94444444  0.77777778  0.07873473
   0.94444444  0.11111111  0.07873473
   0.38888889  0.55555556  0.15702584
   0.38888889  0.88888889  0.15702584
   0.38888889  0.22222222  0.15702584
   0.72222222  0.55555556  0.15702584
   0.72222222  0.88888889  0.15702584
   0.72222222  0.22222222  0.15702584
   0.05555556  0.55555556  0.15702584
   0.05555556  0.88888889  0.15702584
   0.05555556  0.22222222  0.15702584
   0.50000000  0.66666667  0.23375740
   0.50000000  0.00000000  0.23375740
   0.50000000  0.33333333  0.23375740
   0.83333333  0.66666667  0.23375740
   0.83333333  0.00000000  0.23375740
   0.83333333  0.33333333  0.23375740
   0.16666667  0.66666667  0.23375740
   0.16666667  0.00000000  0.23375740
   0.16666667  0.33333333  0.23375740
   0.61111111  0.77777778  0.31173066
   0.61111111  0.11111111  0.31173066
   0.61111111  0.44444444  0.31173066
   0.94444444  0.77777778  0.31173066
   0.94444444  0.11111111  0.31173066
   0.94444444  0.44444444  0.31173066
   0.27777778  0.77777778  0.31173066
   0.27777778  0.11111111  0.31173066
   0.27777778  0.44444444  0.31173066
   0.72222222  0.88888889  0.38970391
   0.72222222  0.22222222  0.38970391
   0.72222222  0.55555556  0.38970391
   0.05555556  0.88888889  0.38970391
   0.05555556  0.22222222  0.38970391
   0.05555556  0.55555556  0.38970391
   0.38888889  0.88888889  0.38970391
   0.38888889  0.22222222  0.38970391
   0.38888889  0.55555556  0.38970391
   0.83333333  0.00000000  0.46643547
   0.83333333  0.33333333  0.46643547
   0.83333333  0.66666667  0.46643547
   0.16666667  0.00000000  0.46643547
   0.16666667  0.33333333  0.46643547
   0.16666667  0.66666667  0.46643547
   0.50000000  0.00000000  0.46643547
   0.50000000  0.33333333  0.46643547
   0.50000000  0.66666667  0.46643547
   0.94444444  0.11111111  0.54472658
   0.94444444  0.44444444  0.54472658
   0.94444444  0.77777778  0.54472658
   0.27777778  0.11111111  0.54472658
   0.27777778  0.44444444  0.54472658
   0.27777778  0.77777778  0.54472658
   0.61111111  0.11111111  0.54472658
   0.61111111  0.44444444  0.54472658
   0.61111111  0.77777778  0.54472658
   0.44444444  0.27777778  0.07873473
   0.44444444  0.61111111  0.07873473
   0.44444444  0.94444444  0.07873473
   0.77777778  0.27777778  0.07873473
   0.77777778  0.61111111  0.07873473
   0.77777778  0.94444444  0.07873473
   0.11111111  0.27777778  0.07873473
   0.11111111  0.61111111  0.07873473
   0.11111111  0.94444444  0.07873473
   0.55555556  0.38888889  0.15702584
   0.55555556  0.72222222  0.15702584
   0.55555556  0.05555556  0.15702584
   0.88888889  0.38888889  0.15702584
   0.88888889  0.72222222  0.15702584
   0.88888889  0.05555556  0.15702584
   0.22222222  0.38888889  0.15702584
   0.22222222  0.72222222  0.15702584
   0.22222222  0.05555556  0.15702584
   0.66666667  0.50000000  0.23375740
   0.66666667  0.83333333  0.23375740
   0.66666667  0.16666667  0.23375740
   0.00000000  0.50000000  0.23375740
   0.00000000  0.83333333  0.23375740
   0.00000000  0.16666667  0.23375740
   0.33333333  0.50000000  0.23375740
   0.33333333  0.83333333  0.23375740
   0.33333333  0.16666667  0.23375740
   0.77777778  0.61111111  0.31173066
   0.77777778  0.94444444  0.31173066
   0.77777778  0.27777778  0.31173066
   0.11111111  0.61111111  0.31173066
   0.11111111  0.94444444  0.31173066
   0.11111111  0.27777778  0.31173066
   0.44444444  0.61111111  0.31173066
   0.44444444  0.94444444  0.31173066
   0.44444444  0.27777778  0.31173066
   0.88888889  0.72222222  0.38970391
   0.88888889  0.05555556  0.38970391
   0.88888889  0.38888889  0.38970391
   0.22222222  0.72222222  0.38970391
   0.22222222  0.05555556  0.38970391
   0.22222222  0.38888889  0.38970391
   0.55555556  0.72222222  0.38970391
   0.55555556  0.05555556  0.38970391
   0.55555556  0.38888889  0.38970391
   0.00000000  0.83333333  0.46643547
   0.00000000  0.16666667  0.46643547
   0.00000000  0.50000000  0.46643547
   0.33333333  0.83333333  0.46643547
   0.33333333  0.16666667  0.46643547
   0.33333333  0.50000000  0.46643547
   0.66666667  0.83333333  0.46643547
   0.66666667  0.16666667  0.46643547
   0.66666667  0.50000000  0.46643547
   0.11111111  0.94444444  0.54472658
   0.11111111  0.27777778  0.54472658
   0.11111111  0.61111111  0.54472658
   0.44444444  0.94444444  0.54472658
   0.44444444  0.27777778  0.54472658
   0.44444444  0.61111111  0.54472658
   0.77777778  0.94444444  0.54472658
   0.77777778  0.27777778  0.54472658
   0.77777778  0.61111111  0.54472658
   0.38888889  0.55555556  0.59000000
Direct configuration=     2
   0.44443718  0.44445897  0.07875268
   0.44444764  0.77778801  0.07874097
   0.44446199  0.11110094  0.07873414
   0.77779601  0.44442888  0.07873258
   0.77778940  0.77775454  0.07873620
   0.77777040  0.11110094  0.07873414
   0.11110845  0.44442888  0.07873258
   0.11109769  0.77778801  0.07874097
   0.11111826  0.11109680  0.07873333
   0.55553645  0.55556572  0.15703369
   0.55555379  0.88887705  0.15701640
   0.55555970  0.22221393  0.15702072
   0.88888966  0.55555401  0.15702368
   0.88890249  0.88887705  0.15701640
   0.88888448  0.22223714  0.15701989
   0.22223116  0.55556572  0.15703369
   0.22221623  0.88890087  0.15702491
   0.22221171  0.22223714  0.15701989
   0.66664875  0.66667970  0.23376465
   0.66668009 -0.00002686  0.23376749
   0.66664985  0.33335027  0.23376840
   0.00000488  0.66667970  0.23376465
   0.00000906 -0.00000009  0.23376156
   0.00001496  0.33330341  0.23376265
   0.33333634  0.66666066  0.23375538
   0.33332436 -0.00000009  0.23376156
   0.33333322  0.33335027  0.23376840
   0.77776700  0.77779932  0.31172096
   0.77777813  0.11112861  0.31172893
   0.77775599  0.44445521  0.31173313
   0.11112254  0.77778113  0.31173091
   0.11110113  0.11113107  0.31173572
   0.11112213  0.44445521  0.31173313
   0.44442966  0.77778113  0.31173091
   0.44442660  0.11112861  0.31172893
   0.44443223  0.44446888  0.31174209
   0.88888858  0.88889992  0.38970417
   0.88888732  0.22221896  0.38970078
   0.88888735  0.55555863  0.38970424
   0.22223058  0.88887217  0.38970608
   0.22222705  0.22221896  0.38970078
   0.22224484  0.55555502  0.38970226
   0.55554484  0.88889992  0.38970417
   0.55554134  0.22225064  0.38971335
   0.55553348  0.55555502  0.38970226
  -0.00000295 -0.00000294  0.46644867
   0.00001376  0.33330582  0.46643546
  -0.00000981  0.66668377  0.46644051
   0.33333923 -0.00000294  0.46644867
   0.33331405  0.33332996  0.46642690
   0.33332447  0.66668439  0.46644942
   0.66667162 -0.00000991  0.46643074
   0.66668933  0.33332996  0.46642690
   0.66665938  0.66668377  0.46644051
   0.11111362  0.11110608  0.54472592
   0.11110808  0.44443999  0.54472854
   0.11115179  0.77776990  0.54472773
   0.44444786  0.11111723  0.54472375
   0.44382176  0.44568981  0.54564141
   0.44441164  0.77776990  0.54472773
   0.77776825  0.11111723  0.54472375
   0.77778527  0.44443999  0.54472854
   0.77777977  0.77777380  0.54472263
   0.27776221  0.27777512  0.07873258
   0.27779230  0.61110385  0.07875268
   0.27776221  0.94446268  0.07873258
   0.61112134  0.27776435  0.07874097
   0.61112134  0.61111430  0.07874097
   0.61108787  0.94445607  0.07873620
   0.94443014  0.27778493  0.07873333
   0.94443428  0.61112866  0.07873414
   0.94443428  0.94443707  0.07873414
   0.38889905  0.38889783  0.15703369
   0.38889905  0.72220312  0.15703369
   0.38888734  0.05555633  0.15702368
   0.72223420  0.38888290  0.15702491
   0.72221039  0.72222045  0.15701640
   0.72221039  0.05556916  0.15701640
   0.05557047  0.38887838  0.15701989
   0.05554727  0.72222637  0.15702072
   0.05557047  0.05555115  0.15701989
   0.49999399  0.50000300  0.23375538
   0.50001303  0.83331542  0.23376465
   0.50001303  0.16667155  0.23376465
   0.83333324  0.49999103  0.23376156
   0.83330648  0.83334676  0.23376749
   0.83333324  0.16667573  0.23376156
   0.16668360  0.49999989  0.23376840
   0.16668360  0.83331651  0.23376840
   0.16663675  0.16668163  0.23376265
   0.61111447  0.61109633  0.31173091
   0.61113266  0.94443367  0.31172096
   0.61111447  0.27778920  0.31173091
   0.94446194  0.61109327  0.31172893
   0.94446194  0.94444479  0.31172893
   0.94446441  0.27776780  0.31173572
   0.27780222  0.61109889  0.31174209
   0.27778855  0.94442266  0.31173313
   0.27778855  0.27778880  0.31173313
   0.72223325  0.72221151  0.38970417
   0.72223325  0.05555524  0.38970417
   0.72220550  0.38889725  0.38970608
   0.05558398  0.72220801  0.38971335
   0.05555229  0.05555399  0.38970078
   0.05555229  0.38889372  0.38970078
   0.38888835  0.72220014  0.38970226
   0.38889197  0.05555402  0.38970424
   0.38888835  0.38891150  0.38970226
   0.83332343  0.83333829  0.46643074
   0.83333039  0.16666371  0.46644867
   0.83333039  0.50000590  0.46644867
   0.16666329  0.83335599  0.46642690
   0.16663915  0.16668043  0.46643546
   0.16666329  0.49998071  0.46642690
   0.50001710  0.83332604  0.46644051
   0.50001710  0.16665686  0.46644051
   0.50001772  0.49999114  0.46644942
   0.94445056  0.94443491  0.54472375
   0.94443942  0.27778029  0.54472592
   0.94445056  0.61111452  0.54472375
   0.27777332  0.94445193  0.54472854
   0.27777332  0.27777475  0.54472854
   0.27902314  0.61048843  0.54564141
   0.61110714  0.94444643  0.54472263
   0.61110324  0.27781846  0.54472773
   0.61110324  0.61107830  0.54472773
   0.27776398  0.44443064  0.07872429
   0.27776398  0.77780538  0.07872429
   0.27777687  0.11111157  0.07873013
   0.61113871  0.44443064  0.07872429
   0.61110801  0.77777467  0.07873747
   0.61110801  0.11111732  0.07873747
   0.94444490  0.44444353  0.07873013
   0.94445066  0.77777467  0.07873747
   0.94444490  0.11111157  0.07873013
   0.38888889  0.55555556  0.15702436
   0.38889535  0.88889546  0.15702001
   0.38889535  0.22220919  0.15702001
   0.72222879  0.55556202  0.15702001
   0.72222222  0.88888889  0.15701261
   0.72222879  0.22220919  0.15702001
   0.05554252  0.55556202  0.15702001
   0.05554252  0.88889546  0.15702001
   0.05555556  0.22222222  0.15702750
   0.49999710  0.66666376  0.23375746
   0.50003524 -0.00001762  0.23376423
   0.49999710  0.33333914  0.23375746
   0.83331571  0.66670190  0.23376423
   0.83331571 -0.00001762  0.23376423
   0.83334183  0.33332908  0.23375938
   0.16667248  0.66666376  0.23375746
   0.16666242  0.00000850  0.23375938
   0.16666242  0.33332908  0.23375938
   0.61111477  0.77778144  0.31172220
   0.61111477  0.11110380  0.31172220
   0.61109938  0.44445031  0.31172218
   0.94443713  0.77778144  0.31172220
   0.94444943  0.11111610  0.31173856
   0.94444943  0.44443446  0.31173856
   0.27778364  0.77776605  0.31172218
   0.27776780  0.11111610  0.31173856
   0.27778364  0.44445031  0.31172218
   0.72222222  0.88888889  0.38973086
   0.72218810  0.22226120  0.38969978
   0.72218810  0.55555070  0.38969978
   0.05559453  0.88885477  0.38969978
   0.05555556  0.22222222  0.38970157
   0.05559453  0.55555070  0.38969978
   0.38888403  0.88885477  0.38969978
   0.38888403  0.22226120  0.38969978
   0.38888889  0.55555556  0.38969308
   0.83333844  0.00000511  0.46643379
   0.83337160  0.33331420  0.46643008
   0.83333844  0.66665645  0.46643379
   0.16664753  0.00003826  0.46643008
   0.16664753  0.33331420  0.46643008
   0.16662244  0.66668878  0.46639926
   0.49998979  0.00000511  0.46643379
   0.50002211  0.33328910  0.46639926
   0.50002211  0.66668878  0.46639926
   0.94444629  0.11111296  0.54472752
   0.94444629  0.44444075  0.54472752
   0.94446032  0.77776984  0.54473315
   0.27777409  0.11111296  0.54472752
   0.27764337  0.44431004  0.54464575
   0.27764337  0.77804659  0.54464575
   0.61110318  0.11112698  0.54473315
   0.61137992  0.44431004  0.54464575
   0.61110318  0.77776984  0.54473315
   0.44444764  0.27776435  0.07874097
   0.44443718  0.61110385  0.07875268
   0.44446199  0.94443707  0.07873414
   0.77779601  0.27777512  0.07873258
   0.77777040  0.61112866  0.07873414
   0.77778940  0.94445607  0.07873620
   0.11111826  0.27778493  0.07873333
   0.11109769  0.61111430  0.07874097
   0.11110845  0.94446268  0.07873258
   0.55553645  0.38889783  0.15703369
   0.55555970  0.72222637  0.15702072
   0.55555379  0.05556916  0.15701640
   0.88888448  0.38887838  0.15701989
   0.88890249  0.72222045  0.15701640
   0.88888966  0.05555633  0.15702368
   0.22221623  0.38888290  0.15702491
   0.22223116  0.72220312  0.15703369
   0.22221171  0.05555115  0.15701989
   0.66664985  0.49999989  0.23376840
   0.66668009  0.83334676  0.23376749
   0.66664875  0.16667155  0.23376465
   0.00000906  0.49999103  0.23376156
   0.00000488  0.83331542  0.23376465
   0.00001496  0.16668163  0.23376265
   0.33333634  0.50000300  0.23375538
   0.33333322  0.83331651  0.23376840
   0.33332436  0.16667573  0.23376156
   0.77777813  0.61109327  0.31172893
   0.77776700  0.94443367  0.31172096
   0.77775599  0.27778880  0.31173313
   0.11112254  0.61109633  0.31173091
   0.11112213  0.94442266  0.31173313
   0.11110113  0.27776780  0.31173572
   0.44443223  0.61109889  0.31174209
   0.44442660  0.94444479  0.31172893
   0.44442966  0.27778920  0.31173091
   0.88888858  0.72221151  0.38970417
   0.88888735  0.05555402  0.38970424
   0.88888732  0.38889372  0.38970078
   0.22224484  0.72220014  0.38970226
   0.22222705  0.05555399  0.38970078
   0.22223058  0.38889725  0.38970608
   0.55554134  0.72220801  0.38971335
   0.55554484  0.05555524  0.38970417
   0.55553348  0.38891150  0.38970226
  -0.00000981  0.83332604  0.46644051
   0.00001376  0.16668043  0.46643546
  -0.00000295  0.50000590  0.46644867
   0.33331405  0.83335599  0.46642690
   0.33333923  0.16666371  0.46644867
   0.33332447  0.49999114  0.46644942
   0.66667162  0.83333829  0.46643074
   0.66665938  0.16665686  0.46644051
   0.66668933  0.49998071  0.46642690
   0.11110808  0.94445193  0.54472854
   0.11111362  0.27778029  0.54472592
   0.11115179  0.61107830  0.54472773
   0.44444786  0.94443491  0.54472375
   0.44441164  0.27781846  0.54472773
   0.44382176  0.61048843  0.54564141
   0.77777977  0.94444643  0.54472263
   0.77778527  0.27777475  0.54472854
   0.77776825  0.61111452  0.54472375
   0.38888889  0.55555556  0.58741350
Direct configuration=     3
   0.44441894  0.44449545  0.07879779
   0.44445566  0.77781372  0.07875665
   0.44450608  0.11107539  0.07873265
   0.77784181  0.44438976  0.07872716
   0.77781860  0.77769614  0.07873990
   0.77775186  0.11107539  0.07873265
   0.11110176  0.44438976  0.07872716
   0.11106396  0.77781372  0.07875665
   0.11113624  0.11106086  0.07872980
   0.55548845  0.55559126  0.15705342
   0.55554934  0.88884732  0.15699267
   0.55557011  0.22219310  0.15700786
   0.88889161  0.55555012  0.15701825
   0.88893667  0.88884732  0.15699267
   0.88887342  0.22227461  0.15700492
   0.22225363  0.55559126  0.15705342
   0.22220119  0.88893096  0.15702257
   0.22218530  0.22227461  0.15700492
   0.66660374  0.66671244  0.23378287
   0.66671383 -0.00009433  0.23379286
   0.66660759  0.33339281  0.23379604
   0.00001716  0.66671244  0.23378287
   0.00003183 -0.00000031  0.23377201
   0.00005255  0.33322824  0.23377585
   0.33334388  0.66664557  0.23375030
   0.33330182 -0.00000031  0.23377201
   0.33333294  0.33339281  0.23379604
   0.77773994  0.77785346  0.31169661
   0.77777900  0.11117256  0.31172458
   0.77770125  0.44448227  0.31173936
   0.11115125  0.77778956  0.31173155
   0.11107605  0.11118123  0.31174846
   0.11114981  0.44448227  0.31173936
   0.44439252  0.77778956  0.31173155
   0.44438177  0.11117256  0.31172458
   0.44440153  0.44453028  0.31177082
   0.88888779  0.88892762  0.38970483
   0.88888339  0.22221076  0.38969293
   0.88888349  0.55556636  0.38970507
   0.22225159  0.88883015  0.38971152
   0.22223918  0.22221076  0.38969293
   0.22230166  0.55555367  0.38969812
   0.55551792  0.88892762  0.38970483
   0.55550564  0.22232205  0.38973707
   0.55547801  0.55555367  0.38969812
  -0.00001037 -0.00001034  0.46648183
   0.00004833  0.33323668  0.46643545
  -0.00003446  0.66672674  0.46645317
   0.33335404 -0.00001034  0.46648183
   0.33326558  0.33332149  0.46640537
   0.33330221  0.66672891  0.46648449
   0.66668406 -0.00003479  0.46641886
   0.66674626  0.33332149  0.46640537
   0.66664106  0.66672674  0.46645317
   0.11111994  0.11109345  0.54472427
   0.11110046  0.44442879  0.54473346
   0.11125401  0.77775011  0.54473062
   0.44445643  0.11113260  0.54471664
   0.44225727  0.44881879  0.54793992
   0.44432921  0.77775011  0.54473062
   0.77774430  0.11113260  0.54471664
   0.77780408  0.44442879  0.54473346
   0.77778476  0.77776382  0.54471272
   0.27772309  0.27776843  0.07872716
   0.27782878  0.61108561  0.07879779
   0.27772309  0.94450848  0.07872716
   0.61114705  0.27773063  0.07875665
   0.61114705  0.61112233  0.07875665
   0.61102947  0.94448526  0.07873990
   0.94439419  0.27780290  0.07872980
   0.94440873  0.61117274  0.07873265
   0.94440873  0.94441853  0.07873265
   0.38892459  0.38892029  0.15705342
   0.38892459  0.72215512  0.15705342
   0.38888345  0.05555827  0.15701825
   0.72226430  0.38886785  0.15702257
   0.72218065  0.72221601  0.15699267
   0.72218065  0.05560334  0.15699267
   0.05560794  0.38885197  0.15700492
   0.05552644  0.72223678  0.15700786
   0.05560794  0.05554009  0.15700492
   0.49997890  0.50001055  0.23375030
   0.50004577  0.83327040  0.23378287
   0.50004577  0.16668382  0.23378287
   0.83333302  0.49996849  0.23377201
   0.83323900  0.83338050  0.23379286
   0.83333302  0.16669849  0.23377201
   0.16672614  0.49999961  0.23379604
   0.16672614  0.83327425  0.23379604
   0.16656157  0.16671921  0.23377585
   0.61112289  0.61105919  0.31173155
   0.61118679  0.94440660  0.31169661
   0.61112289  0.27781791  0.31173155
   0.94450589  0.61104844  0.31172458
   0.94450589  0.94444567  0.31172458
   0.94451456  0.27774272  0.31174846
   0.27786362  0.61106819  0.31177082
   0.27781560  0.94436792  0.31173936
   0.27781560  0.27781648  0.31173936
   0.72226095  0.72218459  0.38970483
   0.72226095  0.05555446  0.38970483
   0.72216349  0.38891826  0.38971152
   0.05565538  0.72217231  0.38973707
   0.05554409  0.05555006  0.38969293
   0.05554409  0.38890585  0.38969293
   0.38888701  0.72214467  0.38969812
   0.38889969  0.05555015  0.38970507
   0.38888701  0.38896832  0.38969812
   0.83329854  0.83335073  0.46641886
   0.83332299  0.16665629  0.46648183
   0.83332299  0.50002071  0.46648183
   0.16665482  0.83341293  0.46640537
   0.16657001  0.16671499  0.46643545
   0.16665482  0.49993225  0.46640537
   0.50006007  0.83330772  0.46645317
   0.50006007  0.16663221  0.46645317
   0.50006224  0.49996888  0.46648449
   0.94446593  0.94441097  0.54471664
   0.94442679  0.27778661  0.54472427
   0.94446593  0.61112310  0.54471664
   0.27776212  0.94447074  0.54473346
   0.27776212  0.27776713  0.54473346
   0.28215212  0.60892394  0.54793992
   0.61109715  0.94445142  0.54471272
   0.61108345  0.27792068  0.54473062
   0.61108345  0.61099588  0.54473062
   0.27772930  0.44439597  0.07869805
   0.27772930  0.77787473  0.07869805
   0.27777458  0.11111271  0.07871859
   0.61120806  0.44439597  0.07869805
   0.61110020  0.77776687  0.07874436
   0.61110020  0.11113293  0.07874436
   0.94444604  0.44444124  0.07871859
   0.94446626  0.77776687  0.07874436
   0.94444604  0.11111271  0.07871859
   0.38888889  0.55555556  0.15702063
   0.38891159  0.88891197  0.15700537
   0.38891159  0.22217644  0.15700537
   0.72224530  0.55557825  0.15700537
   0.72222222  0.88888889  0.15697937
   0.72224530  0.22217644  0.15700537
   0.05550977  0.55557825  0.15700537
   0.05550977  0.88891197  0.15700537
   0.05555556  0.22222222  0.15703166
   0.49998980  0.66665646  0.23375761
   0.50012377 -0.00006189  0.23378139
   0.49998980  0.33335374  0.23375761
   0.83327145  0.66679044  0.23378139
   0.83327145 -0.00006189  0.23378139
   0.83336319  0.33331841  0.23376435
   0.16668707  0.66665646  0.23375761
   0.16665174  0.00002985  0.23376435
   0.16665174  0.33331841  0.23376435
   0.61112396  0.77779063  0.31170095
   0.61112396  0.11108541  0.31170095
   0.61106992  0.44446504  0.31170090
   0.94441875  0.77779063  0.31170095
   0.94446197  0.11112864  0.31175841
   0.94446197  0.44440939  0.31175841
   0.27779837  0.77773658  0.31170090
   0.27774272  0.11112864  0.31175841
   0.27779837  0.44446504  0.31170090
   0.72222222  0.88888889  0.38979856
   0.72210237  0.22235914  0.38968941
   0.72210237  0.55553849  0.38968941
   0.05569247  0.88876904  0.38968941
   0.05555556  0.22222222  0.38969568
   0.05569247  0.55553849  0.38968941
   0.38887183  0.88876904  0.38968941
   0.38887183  0.22235914  0.38968941
   0.38888889  0.55555556  0.38966585
   0.83335127  0.00001794  0.46642957
   0.83346774  0.33326613  0.46641654
   0.83335127  0.66663079  0.46642957
   0.16659946  0.00013440  0.46641654
   0.16659946  0.33326613  0.46641654
   0.16651131  0.66674435  0.46630828
   0.49996412  0.00001794  0.46642957
   0.50007768  0.33317798  0.46630828
   0.50007768  0.66674435  0.46630828
   0.94445093  0.11111760  0.54472989
   0.94445093  0.44443147  0.54472989
   0.94450019  0.77774990  0.54474967
   0.27776481  0.11111760  0.54472989
   0.27730568  0.44397235  0.54444265
   0.27730568  0.77872197  0.54444265
   0.61108324  0.11116686  0.54474967
   0.61205531  0.44397235  0.54444265
   0.61108324  0.77774990  0.54474967
   0.44445566  0.27773063  0.07875665
   0.44441894  0.61108561  0.07879779
   0.44450608  0.94441853  0.07873265
   0.77784181  0.27776843  0.07872716
   0.77775186  0.61117274  0.07873265
   0.77781860  0.94448526  0.07873990
   0.11113624  0.27780290  0.07872980
   0.11106396  0.61112233  0.07875665
   0.11110176  0.94450848  0.07872716
   0.55548845  0.38892029  0.15705342
   0.55557011  0.72223678  0.15700786
   0.55554934  0.05560334  0.15699267
   0.88887342  0.38885197  0.15700492
   0.88893667  0.72221601  0.15699267
   0.88889161  0.05555827  0.15701825
   0.22220119  0.38886785  0.15702257
   0.22225363  0.72215512  0.15705342
   0.22218530  0.05554009  0.15700492
   0.66660759  0.49999961  0.23379604
   0.66671383  0.83338050  0.23379286
   0.66660374  0.16668382  0.23378287
   0.00003183  0.49996849  0.23377201
   0.00001716  0.83327040  0.23378287
   0.00005255  0.16671921  0.23377585
   0.33334388  0.50001055  0.23375030
   0.33333294  0.83327425  0.23379604
   0.33330182  0.16669849  0.23377201
   0.77777900  0.61104844  0.31172458
   0.77773994  0.94440660  0.31169661
   0.77770125  0.27781648  0.31173936
   0.11115125  0.61105919  0.31173155
   0.11114981  0.94436792  0.31173936
   0.11107605  0.27774272  0.31174846
   0.44440153  0.61106819  0.31177082
   0.44438177  0.94444567  0.31172458
   0.44439252  0.27781791  0.31173155
   0.88888779  0.72218459  0.38970483
   0.88888349  0.05555015  0.38970507
   0.88888339  0.38890585  0.38969293
   0.22230166  0.72214467  0.38969812
   0.22223918  0.05555006  0.38969293
   0.22225159  0.38891826  0.38971152
   0.55550564  0.72217231  0.38973707
   0.55551792  0.05555446  0.38970483
   0.55547801  0.38896832  0.38969812
  -0.00003446  0.83330772  0.46645317
   0.00004833  0.16671499  0.46643545
  -0.00001037  0.50002071  0.46648183
   0.33326558  0.83341293  0.46640537
   0.33335404  0.16665629  0.46648183
   0.33330221  0.49996888  0.46648449
   0.66668406  0.83335073  0.46641886
   0.66664106  0.16663221  0.46645317
   0.66674626  0.49993225  0.46640537
   0.11110046  0.94447074  0.54473346
   0.11111994  0.27778661  0.54472427
   0.11125401  0.61099588  0.54473062
   0.44445643  0.94441097  0.54471664
   0.44432921  0.27792068  0.54473062
   0.44225727  0.60892394  0.54793992
   0.77778476  0.94445142  0.54471272
   0.77780408  0.27776713  0.54473346
   0.77774430  0.61112310  0.54471664
   0.38888889  0.55555556  0.58091493
Direct configuration=     4
   0.44441657  0.44450019  0.07880366
   0.44445670  0.77781706  0.07875869
   0.44451181  0.11107207  0.07873245
   0.77784777  0.44438467  0.07872646
   0.77782240  0.77768854  0.07874038
   0.77774945  0.11107207  0.07873245
   0.11110089  0.44438467  0.07872646
   0.11105957  0.77781706  0.07875869
   0.11113858  0.11105618  0.07872934
   0.55548221  0.55559458  0.15705598
   0.55554876  0.88884345  0.15698958
   0.55557147  0.22219039  0.15700619
   0.88889186  0.55554961  0.15701755
   0.88894112  0.88884345  0.15698958
   0.88887198  0.22227948  0.15700297
   0.22225655  0.55559458  0.15705598
   0.22219923  0.88893488  0.15702227
   0.22218187  0.22227948  0.15700297
   0.66659788  0.66671670  0.23378524
   0.66671822 -0.00010311  0.23379616
   0.66660209  0.33339834  0.23379964
   0.00001875  0.66671670  0.23378524