 254 254   0   0
  0.3019211E+02  0.1718057E-08  0.1718057E-08  0.3000000E-08  0.5000000E-15
  1.000000000000000E-004
  CAR 
 NiAl                                    
      5.25059965    -18.48341566  301      1.80867743      1.00000000
    -18.483  0.0000E+00  0.0000E+00
    -18.404  0.0000E+00  0.0000E+00
    -18.325  0.0000E+00  0.0000E+00
    -18.246  0.0000E+00  0.0000E+00
    -18.167  0.0000E+00  0.0000E+00
    -18.088  0.0000E+00  0.0000E+00
    -18.009  0.0000E+00  0.0000E+00
    -17.930  0.0000E+00  0.0000E+00
    -17.851  0.0000E+00  0.0000E+00
    -17.771  0.0000E+00  0.0000E+00
    -17.692  0.5613E-14  0.4441E-15
    -17.613  0.4599E-07  0.3638E-08
    -17.534  0.3161E-02  0.2501E-03
    -17.455  0.1947E+01  0.1543E+00
    -17.376  0.1807E+02  0.1584E+01
    -17.297  0.5231E+01  0.1998E+01
    -17.218  0.2885E-01  0.2000E+01
    -17.138  0.1559E-05  0.2000E+01
    -17.059  0.6596E-12  0.2000E+01
    -16.980  0.0000E+00  0.2000E+01
    -16.901  0.0000E+00  0.2000E+01
    -16.822  0.0000E+00  0.2000E+01
    -16.743  0.0000E+00  0.2000E+01
    -16.664  0.0000E+00  0.2000E+01
    -16.585  0.0000E+00  0.2000E+01
    -16.506  0.0000E+00  0.2000E+01
    -16.426  0.0000E+00  0.2000E+01
    -16.347  0.0000E+00  0.2000E+01
    -16.268  0.0000E+00  0.2000E+01
    -16.189  0.0000E+00  0.2000E+01
    -16.110  0.0000E+00  0.2000E+01
    -16.031  0.0000E+00  0.2000E+01
    -15.952  0.0000E+00  0.2000E+01
    -15.873  0.0000E+00  0.2000E+01
    -15.794  0.0000E+00  0.2000E+01
    -15.714  0.0000E+00  0.2000E+01
    -15.635  0.0000E+00  0.2000E+01
    -15.556  0.0000E+00  0.2000E+01
    -15.477  0.0000E+00  0.2000E+01
    -15.398  0.0000E+00  0.2000E+01
    -15.319  0.0000E+00  0.2000E+01
    -15.240  0.0000E+00  0.2000E+01
    -15.161  0.0000E+00  0.2000E+01
    -15.082  0.0000E+00  0.2000E+01
    -15.002  0.0000E+00  0.2000E+01
    -14.923  0.0000E+00  0.2000E+01
    -14.844  0.0000E+00  0.2000E+01
    -14.765  0.0000E+00  0.2000E+01
    -14.686  0.0000E+00  0.2000E+01
    -14.607  0.0000E+00  0.2000E+01
    -14.528  0.0000E+00  0.2000E+01
    -14.449  0.0000E+00  0.2000E+01
    -14.370  0.0000E+00  0.2000E+01
    -14.290  0.0000E+00  0.2000E+01
    -14.211  0.0000E+00  0.2000E+01
    -14.132  0.0000E+00  0.2000E+01
    -14.053  0.0000E+00  0.2000E+01
    -13.974  0.0000E+00  0.2000E+01
    -13.895  0.0000E+00  0.2000E+01
    -13.816  0.0000E+00  0.2000E+01
    -13.737  0.0000E+00  0.2000E+01
    -13.657  0.0000E+00  0.2000E+01
    -13.578  0.0000E+00  0.2000E+01
    -13.499  0.0000E+00  0.2000E+01
    -13.420  0.0000E+00  0.2000E+01
    -13.341  0.0000E+00  0.2000E+01
    -13.262  0.0000E+00  0.2000E+01
    -13.183  0.0000E+00  0.2000E+01
    -13.104  0.0000E+00  0.2000E+01
    -13.025  0.0000E+00  0.2000E+01
    -12.945  0.0000E+00  0.2000E+01
    -12.866  0.0000E+00  0.2000E+01
    -12.787  0.0000E+00  0.2000E+01
    -12.708  0.0000E+00  0.2000E+01
    -12.629  0.7143E-12  0.2000E+01
    -12.550  0.1648E-05  0.2000E+01
    -12.471  0.2984E-01  0.2002E+01
    -12.392  0.5304E+01  0.2422E+01
    -12.313  0.1803E+02  0.3849E+01
    -12.233  0.1910E+01  0.4000E+01
    -12.154  0.3037E-02  0.4000E+01
    -12.075  0.4323E-07  0.4000E+01
    -11.996  0.5613E-14  0.4000E+01
    -11.917  0.0000E+00  0.4000E+01
    -11.838  0.0000E+00  0.4000E+01
    -11.759  0.0000E+00  0.4000E+01
    -11.680  0.0000E+00  0.4000E+01
    -11.601  0.0000E+00  0.4000E+01
    -11.521  0.0000E+00  0.4000E+01
    -11.442  0.0000E+00  0.4000E+01
    -11.363  0.0000E+00  0.4000E+01
    -11.284  0.0000E+00  0.4000E+01
    -11.205  0.0000E+00  0.4000E+01
    -11.126  0.0000E+00  0.4000E+01
    -11.047  0.0000E+00  0.4000E+01
    -10.968  0.0000E+00  0.4000E+01
    -10.889  0.0000E+00  0.4000E+01
    -10.809  0.0000E+00  0.4000E+01
    -10.730  0.0000E+00  0.4000E+01
    -10.651  0.0000E+00  0.4000E+01
    -10.572  0.0000E+00  0.4000E+01
    -10.493  0.0000E+00  0.4000E+01
    -10.414  0.0000E+00  0.4000E+01
    -10.335  0.0000E+00  0.4000E+01
    -10.256  0.0000E+00  0.4000E+01
    -10.177  0.0000E+00  0.4000E+01
    -10.097  0.0000E+00  0.4000E+01
    -10.018  0.0000E+00  0.4000E+01
     -9.939  0.0000E+00  0.4000E+01
     -9.860  0.0000E+00  0.4000E+01
     -9.781  0.0000E+00  0.4000E+01
     -9.702  0.0000E+00  0.4000E+01
     -9.623  0.0000E+00  0.4000E+01
     -9.544  0.0000E+00  0.4000E+01
     -9.464  0.0000E+00  0.4000E+01
     -9.385  0.2666E-13  0.4000E+01
     -9.306  0.1051E-06  0.4000E+01
     -9.227  0.3214E-02  0.4000E+01
     -9.148  0.9278E+00  0.4074E+01
     -9.069  0.4657E+01  0.4442E+01
     -8.990  0.4445E+01  0.4794E+01
     -8.911  0.2766E+02  0.6982E+01
     -8.832  0.6609E+01  0.7505E+01
     -8.752  0.3258E+01  0.7763E+01
     -8.673  0.4720E+01  0.8136E+01
     -8.594  0.4054E+02  0.1134E+02
     -8.515  0.3361E+02  0.1400E+02
     -8.436  0.2260E+02  0.1579E+02
     -8.357  0.1512E+02  0.1699E+02
     -8.278  0.1049E+02  0.1782E+02
     -8.199  0.2567E+02  0.1985E+02
     -8.120  0.1166E+02  0.2077E+02
     -8.040  0.3148E+02  0.2326E+02
     -7.961  0.3743E+02  0.2622E+02
     -7.882  0.7395E+02  0.3207E+02
     -7.803  0.5384E+01  0.3250E+02
     -7.724  0.9292E-01  0.3251E+02
     -7.645  0.1971E+02  0.3407E+02
     -7.566  0.1077E+03  0.4259E+02
     -7.487  0.2800E+02  0.4480E+02
     -7.408  0.2684E+02  0.4692E+02
     -7.328  0.9528E+01  0.4768E+02
     -7.249  0.2929E+02  0.5000E+02
     -7.170  0.1924E+02  0.5152E+02
     -7.091  0.5427E+02  0.5581E+02
     -7.012  0.2607E+02  0.5787E+02
     -6.933  0.9733E+02  0.6557E+02
     -6.854  0.4696E+02  0.6929E+02
     -6.775  0.4484E+02  0.7284E+02
     -6.696  0.3550E+02  0.7565E+02
     -6.616  0.7240E+02  0.8137E+02
     -6.537  0.6895E+02  0.8683E+02
     -6.458  0.2464E+02  0.8878E+02
     -6.379  0.1607E+02  0.9005E+02
     -6.300  0.2553E+02  0.9207E+02
     -6.221  0.2457E+02  0.9401E+02
     -6.142  0.3240E+02  0.9658E+02
     -6.063  0.1027E+03  0.1047E+03
     -5.984  0.7255E+02  0.1104E+03
     -5.904  0.9462E+02  0.1179E+03
     -5.825  0.3959E+02  0.1211E+03
     -5.746  0.3484E+02  0.1238E+03
     -5.667  0.5241E+02  0.1280E+03
     -5.588  0.1103E+03  0.1367E+03
     -5.509  0.5604E+02  0.1411E+03
     -5.430  0.3941E+02  0.1442E+03
     -5.351  0.2113E+02  0.1459E+03
     -5.271  0.6812E+02  0.1513E+03
     -5.192  0.3427E+02  0.1540E+03
     -5.113  0.6697E+02  0.1593E+03
     -5.034  0.7380E+02  0.1651E+03
     -4.955  0.8900E+02  0.1722E+03
     -4.876  0.4059E+02  0.1754E+03
     -4.797  0.1896E+02  0.1769E+03
     -4.718  0.5107E+02  0.1809E+03
     -4.639  0.1209E+03  0.1905E+03
     -4.559  0.7807E+02  0.1967E+03
     -4.480  0.6539E+02  0.2019E+03
     -4.401  0.3422E+02  0.2046E+03
     -4.322  0.4855E+02  0.2084E+03
     -4.243  0.7297E+02  0.2142E+03
     -4.164  0.9428E+02  0.2216E+03
     -4.085  0.1110E+03  0.2304E+03
     -4.006  0.1010E+03  0.2384E+03
     -3.927  0.5019E+02  0.2424E+03
     -3.847  0.4035E+02  0.2456E+03
     -3.768  0.7565E+02  0.2516E+03
     -3.689  0.8533E+02  0.2583E+03
     -3.610  0.7962E+02  0.2646E+03
     -3.531  0.5392E+02  0.2689E+03
     -3.452  0.5639E+02  0.2733E+03
     -3.373  0.2741E+02  0.2755E+03
     -3.294  0.2127E+02  0.2772E+03
     -3.215  0.6800E+02  0.2826E+03
     -3.135  0.8526E+02  0.2893E+03
     -3.056  0.1006E+03  0.2973E+03
     -2.977  0.1016E+03  0.3053E+03
     -2.898  0.8979E+02  0.3124E+03
     -2.819  0.1292E+03  0.3226E+03
     -2.740  0.1619E+03  0.3354E+03
     -2.661  0.1217E+03  0.3451E+03
     -2.582  0.2855E+02  0.3473E+03
     -2.503  0.1924E+02  0.3489E+03
     -2.423  0.5189E+02  0.3530E+03
     -2.344  0.6367E+02  0.3580E+03
     -2.265  0.1017E+03  0.3660E+03
     -2.186  0.9254E+02  0.3734E+03
     -2.107  0.8937E+02  0.3804E+03
     -2.028  0.9161E+02  0.3877E+03
     -1.949  0.5610E+02  0.3921E+03
     -1.870  0.6789E+02  0.3975E+03
     -1.790  0.1140E+03  0.4065E+03
     -1.711  0.1384E+03  0.4175E+03
     -1.632  0.5984E+02  0.4222E+03
     -1.553  0.4930E+02  0.4261E+03
     -1.474  0.9047E+02  0.4333E+03
     -1.395  0.6184E+02  0.4381E+03
     -1.316  0.1381E+03  0.4491E+03
     -1.237  0.1367E+03  0.4599E+03
     -1.158  0.1215E+03  0.4695E+03
     -1.078  0.8857E+02  0.4765E+03
     -0.999  0.7050E+02  0.4821E+03
     -0.920  0.7684E+02  0.4882E+03
     -0.841  0.1208E+03  0.4977E+03
     -0.762  0.1135E+03  0.5067E+03
     -0.683  0.7719E+02  0.5128E+03
     -0.604  0.5276E+02  0.5170E+03
     -0.525  0.6150E+02  0.5218E+03
     -0.446  0.1169E+03  0.5311E+03
     -0.366  0.1861E+03  0.5458E+03
     -0.287  0.9744E+02  0.5535E+03
     -0.208  0.1293E+03  0.5637E+03
     -0.129  0.7562E+02  0.5697E+03
     -0.050  0.4782E+02  0.5735E+03
      0.029  0.5685E+02  0.5780E+03
      0.108  0.1175E+03  0.5873E+03
      0.187  0.8042E+02  0.5937E+03
      0.266  0.9045E+02  0.6008E+03
      0.346  0.7951E+02  0.6071E+03
      0.425  0.7759E+02  0.6132E+03
      0.504  0.1304E+03  0.6236E+03
      0.583  0.1038E+03  0.6318E+03
      0.662  0.7566E+02  0.6378E+03
      0.741  0.6843E+02  0.6432E+03
      0.820  0.3205E+02  0.6457E+03
      0.899  0.7273E+02  0.6515E+03
      0.978  0.1747E+03  0.6653E+03
      1.058  0.2234E+03  0.6830E+03
      1.137  0.1241E+03  0.6928E+03
      1.216  0.1009E+03  0.7008E+03
      1.295  0.7618E+02  0.7068E+03
      1.374  0.6216E+02  0.7117E+03
      1.453  0.8630E+02  0.7185E+03
      1.532  0.1044E+03  0.7268E+03
      1.611  0.1508E+03  0.7387E+03
      1.690  0.1791E+03  0.7529E+03
      1.770  0.1198E+03  0.7624E+03
      1.849  0.7405E+02  0.7682E+03
      1.928  0.5146E+02  0.7723E+03
      2.007  0.1471E+03  0.7839E+03
      2.086  0.1133E+03  0.7929E+03
      2.165  0.9054E+02  0.8001E+03
      2.244  0.7574E+02  0.8061E+03
      2.323  0.7237E+02  0.8118E+03
      2.403  0.8380E+02  0.8184E+03
      2.482  0.1040E+03  0.8266E+03
      2.561  0.8765E+02  0.8336E+03
      2.640  0.1441E+03  0.8450E+03
      2.719  0.1006E+03  0.8529E+03
      2.798  0.8152E+02  0.8594E+03
      2.877  0.9397E+02  0.8668E+03
      2.956  0.2490E+03  0.8865E+03
      3.035  0.2260E+03  0.9044E+03
      3.115  0.1157E+03  0.9136E+03
      3.194  0.6155E+02  0.9184E+03
      3.273  0.9541E+02  0.9260E+03
      3.352  0.1283E+03  0.9361E+03
      3.431  0.1351E+03  0.9468E+03
      3.510  0.1253E+03  0.9567E+03
      3.589  0.9897E+02  0.9646E+03
      3.668  0.8309E+02  0.9711E+03
      3.747  0.1089E+03  0.9797E+03
      3.827  0.7982E+02  0.9861E+03
      3.906  0.1031E+03  0.9942E+03
      3.985  0.1540E+03  0.1006E+04
      4.064  0.1583E+03  0.1019E+04
      4.143  0.1204E+03  0.1028E+04
      4.222  0.4331E+02  0.1032E+04
      4.301  0.1635E+01  0.1032E+04
      4.380  0.1439E-02  0.1032E+04
      4.459  0.1502E-07  0.1032E+04
      4.539  0.1403E-14  0.1032E+04
      4.618  0.0000E+00  0.1032E+04
      4.697  0.0000E+00  0.1032E+04
      4.776  0.0000E+00  0.1032E+04
      4.855  0.0000E+00  0.1032E+04
      4.934  0.0000E+00  0.1032E+04
      5.013  0.0000E+00  0.1032E+04
      5.092  0.0000E+00  0.1032E+04
      5.171  0.0000E+00  0.1032E+04
      5.251  0.0000E+00  0.1032E+04
