       N       E                     dE             d eps       ncg     rms          rms(c)
DAV:   1     0.216048567230E+04    0.21605E+04   -0.18440E+05  3144   0.734E+02
DAV:   2    -0.731356238947E+03   -0.28918E+04   -0.27271E+04  4200   0.193E+02
DAV:   3    -0.955252201686E+03   -0.22390E+03   -0.21447E+03  4836   0.415E+01
DAV:   4    -0.966048917959E+03   -0.10797E+02   -0.99558E+01  4656   0.859E+00
DAV:   5    -0.966668040317E+03   -0.61912E+00   -0.61095E+00  4860   0.203E+00    0.232E+01
DAV:   6    -0.971120213353E+03   -0.44522E+01   -0.19569E+02  4488   0.185E+01    0.193E+01
DAV:   7    -0.947309225215E+03    0.23811E+02   -0.14033E+02  3984   0.177E+01    0.141E+01
DAV:   8    -0.947555262058E+03   -0.24604E+00   -0.61417E+01  4416   0.131E+01    0.114E+01
DAV:   9    -0.935607494864E+03    0.11948E+02   -0.10554E+01  3900   0.835E+00    0.632E+00
DAV:  10    -0.934666429188E+03    0.94107E+00   -0.16962E+01  3732   0.398E+00    0.388E+00
DAV:  11    -0.933989025256E+03    0.67740E+00   -0.24924E+00  3912   0.216E+00    0.224E+00
DAV:  12    -0.933910128196E+03    0.78897E-01   -0.12734E+00  3864   0.132E+00    0.775E-01
DAV:  13    -0.933892983029E+03    0.17145E-01   -0.45615E-01  3756   0.796E-01    0.888E-01
DAV:  14    -0.933856142241E+03    0.36841E-01   -0.64665E-02  3948   0.353E-01    0.568E-01
DAV:  15    -0.933841294711E+03    0.14848E-01   -0.78571E-02  3876   0.275E-01    0.227E-01
DAV:  16    -0.933842125506E+03   -0.83079E-03   -0.14223E-02  4044   0.134E-01    0.203E-01
DAV:  17    -0.933846910984E+03   -0.47855E-02   -0.70385E-03  3516   0.908E-02    0.124E-01
DAV:  18    -0.933852492594E+03   -0.55816E-02   -0.37211E-03  3720   0.639E-02    0.661E-02
DAV:  19    -0.933857326374E+03   -0.48338E-02   -0.19868E-03  3384   0.474E-02    0.577E-02
DAV:  20    -0.933858664364E+03   -0.13380E-02   -0.30250E-04  3876   0.272E-02    0.448E-02
DAV:  21    -0.933860575943E+03   -0.19116E-02   -0.47622E-04  4032   0.259E-02    0.300E-02
DAV:  22    -0.933861884276E+03   -0.13083E-02   -0.28078E-04  3384   0.177E-02    0.222E-02
DAV:  23    -0.933862638853E+03   -0.75458E-03   -0.20693E-04  3480   0.111E-02    0.149E-02
DAV:  24    -0.933863462763E+03   -0.82391E-03   -0.81652E-05  3456   0.894E-03    0.103E-02
DAV:  25    -0.933864458556E+03   -0.99579E-03   -0.62323E-05  3408   0.724E-03    0.133E-02
DAV:  26    -0.933865066209E+03   -0.60765E-03   -0.21615E-05  2856   0.514E-03    0.802E-03
DAV:  27    -0.933865753189E+03   -0.68698E-03   -0.65039E-05  3396   0.600E-03    0.767E-03
DAV:  28    -0.933866167353E+03   -0.41416E-03   -0.33135E-05  3288   0.383E-03    0.583E-03
DAV:  29    -0.933866284364E+03   -0.11701E-03   -0.11037E-05  3060   0.281E-03    0.263E-03
DAV:  30    -0.933866311538E+03   -0.27174E-04   -0.18515E-06  2172   0.140E-03    0.202E-03
DAV:  31    -0.933866339012E+03   -0.27474E-04   -0.13442E-06  2184   0.898E-04    0.137E-03
DAV:  32    -0.933866348860E+03   -0.98484E-05   -0.57336E-07  2100   0.687E-04    0.595E-04
DAV:  33    -0.933866350738E+03   -0.18776E-05   -0.21578E-07  1836   0.531E-04
   1 F= -.93386635E+03 E0= -.93381950E+03  d E =-.936923E-01
