 vasp.5.4.4.18Apr17-6-g9f103f2a35 (build May 02 2017 15:33:50) complex          
  
 executed on Intel-16.0.3.210-OMP date 2018.08.08  17:44:26
 running on    6 total cores
 distrk:  each k-point on    6 cores,    1 groups
 distr:  one band on NCORES_PER_BAND=   1 cores,    6 groups


--------------------------------------------------------------------------------------------------------


 INCAR:
 POTCAR:    PAW Al_GW 19Mar2012                   
 POTCAR:    PAW_PBE N 08Apr2002                   

 ----------------------------------------------------------------------------- 
|                                                                             |
|           W    W    AA    RRRRR   N    N  II  N    N   GGGG   !!!           |
|           W    W   A  A   R    R  NN   N  II  NN   N  G    G  !!!           |
|           W    W  A    A  R    R  N N  N  II  N N  N  G       !!!           |
|           W WW W  AAAAAA  RRRRR   N  N N  II  N  N N  G  GGG   !            |
|           WW  WW  A    A  R   R   N   NN  II  N   NN  G    G                |
|           W    W  A    A  R    R  N    N  II  N    N   GGGG   !!!           |
|                                                                             |
|      For optimal performance we recommend to set                            |
|        NCORE= 4 - approx SQRT( number of cores)                             |
|      NCORE specifies how many cores store one orbital (NPAR=cpu/NCORE).     |
|      This setting can  greatly improve the performance of VASP for DFT.     |
|      The default,   NCORE=1            might be grossly inefficient         |
|      on modern multi-core architectures or massively parallel machines.     |
|      Do your own testing !!!!                                               |
|      Unfortunately you need to use the default for GW and RPA calculations. |
|      (for HF NCORE is supported but not extensively tested yet)             |
|                                                                             |
 ----------------------------------------------------------------------------- 

 POTCAR:    PAW Al_GW 19Mar2012                   
   VRHFIN =Al: s2p1                                                             
   LEXCH  = PE                                                                  
   EATOM  =    53.5387 eV,    3.9350 Ry                                         
                                                                                
   TITEL  = PAW Al_GW 19Mar2012                                                 
   LULTRA =        F    use ultrasoft PP ?                                      
   IUNSCR =        1    unscreen: 0-lin 1-nonlin 2-no                           
   RPACOR =    1.500    partial core radius                                     
   POMASS =   26.982; ZVAL   =    3.000    mass and valenz                      
   RCORE  =    2.000    outmost cutoff radius                                   
   RWIGS  =    2.000; RWIGS  =    1.058    wigner-seitz radius (au A)           
   ENMAX  =  240.300; ENMIN  =  180.225 eV                                      
   ICORE  =        3    local potential                                         
   LCOR   =        T    correct aug charges                                     
   LPAW   =        T    paw PP                                                  
   EAUG   =  482.059                                                            
   DEXC   =    0.000                                                            
   RMAX   =    2.051    core radius for proj-oper                               
   RAUG   =    1.300    factor for augmentation sphere                          
   RDEP   =    2.096    radius for radial grids                                 
   RDEPT  =    1.856    core radius for aug-charge                              
                                                                                
   Atomic configuration                                                         
    7 entries                                                                   
     n  l   j            E        occ.                                          
     1  0  0.50     -1511.1048   2.0000                                         
     2  0  0.50      -108.1629   2.0000                                         
     2  1  1.50       -69.6402   6.0000                                         
     3  0  0.50        -7.7528   2.0000                                         
     3  1  1.50        -2.7121   1.0000                                         
     3  2  2.50        -2.7212   0.0000                                         
     4  3  2.50        -2.7212   0.0000                                         
   Description                                                                  
     l       E           TYP  RCUT    TYP  RCUT                                 
     0     -7.7528455     23  1.900                                             
     0     68.0291300     23  1.900                                             
     1     -2.7120682     23  1.900                                             
     1     68.0291300     23  1.900                                             
     2     -1.3605826     23  1.900                                             
     2     81.6349560     23  1.900                                             
     3     74.8320430     23  2.000                                             
  local pseudopotential read in
  partial core-charges read in
  partial kinetic energy density read in
  kinetic energy density of atom read in
  atomic valenz-charges read in
  non local Contribution for L=           0  read in
    real space projection operators read in
  non local Contribution for L=           0  read in
    real space projection operators read in
  non local Contribution for L=           1  read in
    real space projection operators read in
  non local Contribution for L=           1  read in
    real space projection operators read in
  non local Contribution for L=           2  read in
    real space projection operators read in
  non local Contribution for L=           2  read in
    real space projection operators read in
    PAW grid and wavefunctions read in
 
   number of l-projection  operators is LMAX  =           6
   number of lm-projection operators is LMMAX =          18
 
 POTCAR:    PAW_PBE N 08Apr2002                   
   VRHFIN =N: s2p3                                                              
   LEXCH  = PE                                                                  
   EATOM  =   264.5486 eV,   19.4438 Ry                                         
                                                                                
   TITEL  = PAW_PBE N 08Apr2002                                                 
   LULTRA =        F    use ultrasoft PP ?                                      
   IUNSCR =        1    unscreen: 0-lin 1-nonlin 2-no                           
   RPACOR =    1.200    partial core radius                                     
   POMASS =   14.001; ZVAL   =    5.000    mass and valenz                      
   RCORE  =    1.500    outmost cutoff radius                                   
   RWIGS  =    1.400; RWIGS  =    0.741    wigner-seitz radius (au A)           
   ENMAX  =  400.000; ENMIN  =  300.000 eV                                      
   ICORE  =        2    local potential                                         
   LCOR   =        T    correct aug charges                                     
   LPAW   =        T    paw PP                                                  
   EAUG   =  627.112                                                            
   DEXC   =    0.000                                                            
   RMAX   =    1.529    core radius for proj-oper                               
   RAUG   =    1.300    factor for augmentation sphere                          
   RDEP   =    1.514    radius for radial grids                                 
   RDEPT  =    1.338    core radius for aug-charge                              
                                                                                
   Atomic configuration                                                         
    4 entries                                                                   
     n  l   j            E        occ.                                          
     1  0  0.50      -384.7179   2.0000                                         
     2  0  0.50       -18.5828   2.0000                                         
     2  1  0.50        -7.0898   3.0000                                         
     3  2  1.50        -6.8029   0.0000                                         
   Description                                                                  
     l       E           TYP  RCUT    TYP  RCUT                                 
     0    -18.5828119     23  1.200                                             
     0    -13.5018863     23  1.200                                             
     1     -7.0897853     23  1.500                                             
     1      9.5240782     23  1.500                                             
     2     -6.8029130      7  1.500                                             
  local pseudopotential read in
  partial core-charges read in
  partial kinetic energy density read in
  atomic valenz-charges read in
  non local Contribution for L=           0  read in
    real space projection operators read in
  non local Contribution for L=           0  read in
    real space projection operators read in
  non local Contribution for L=           1  read in
    real space projection operators read in
  non local Contribution for L=           1  read in
    real space projection operators read in
    PAW grid and wavefunctions read in
 
   number of l-projection  operators is LMAX  =           4
   number of lm-projection operators is LMMAX =           8
 
 Optimization of the real space projectors (new method)

 maximal supplied QI-value         = 18.90
 optimisation between [QCUT,QGAM] = [  8.69, 17.57] = [ 21.16, 86.49] Ry 
 Optimized for a Real-space Cutoff    1.59 Angstroem

   l    n(q)    QCUT    max X(q) W(low)/X(q) W(high)/X(q)  e(spline) 
   0      8     8.693    11.519    0.12E-03    0.31E-04    0.21E-06
   0      8     8.693     5.834    0.89E-04    0.32E-04    0.16E-06
   1      8     8.693    10.132    0.25E-03    0.39E-03    0.25E-06
   1      8     8.693     3.004    0.16E-03    0.27E-03    0.22E-06
   2      7     8.693     3.169    0.39E-03    0.93E-03    0.44E-06
   2      7     8.693     1.605    0.70E-04    0.91E-04    0.19E-06
 Optimization of the real space projectors (new method)

 maximal supplied QI-value         = 25.13
 optimisation between [QCUT,QGAM] = [  8.80, 17.59] = [ 21.67, 86.68] Ry 
 Optimized for a Real-space Cutoff    2.14 Angstroem

   l    n(q)    QCUT    max X(q) W(low)/X(q) W(high)/X(q)  e(spline) 
   0     11     8.797    79.467    0.70E-04    0.19E-04    0.19E-05
   0     11     8.797    66.151    0.68E-04    0.18E-04    0.19E-05
   1     11     8.797     6.738    0.26E-03    0.11E-02    0.73E-05
   1     11     8.797     5.013    0.25E-03    0.11E-02    0.72E-05
  PAW Al_GW 19Mar2012                   :
 energy of atom  1       EATOM=  -53.5387
 kinetic energy error for atom=    0.0011 (will be added to EATOM!!)
  PAW_PBE N 08Apr2002                   :
 energy of atom  2       EATOM= -264.5486
 kinetic energy error for atom=    0.6882 (will be added to EATOM!!)
 
 
 POSCAR: New structure                           
  positions in cartesian coordinates
  No initial velocities read in
 exchange correlation table for  LEXCH =        8
   RHO(1)=    0.500       N(1)  =     2000
   RHO(2)=  100.500       N(2)  =     4000
 


--------------------------------------------------------------------------------------------------------


 ion  position               nearest neighbor table
   1  0.444  0.444  0.079-
   2  0.444  0.778  0.079-
   3  0.444  0.111  0.079-
   4  0.778  0.444  0.079-
   5  0.778  0.778  0.079-
   6  0.778  0.111  0.079-
   7  0.111  0.444  0.079-
   8  0.111  0.778  0.079-
   9  0.111  0.111  0.079-
  10  0.556  0.556  0.157-
  11  0.556  0.889  0.157-
  12  0.556  0.222  0.157-
  13  0.889  0.556  0.157-
  14  0.889  0.889  0.157-
  15  0.889  0.222  0.157-
  16  0.222  0.556  0.157-
  17  0.222  0.889  0.157-
  18  0.222  0.222  0.157-
  19  0.667  0.667  0.234-
  20  0.667  0.000  0.234-
  21  0.667  0.333  0.234-
  22  0.000  0.667  0.234-
  23  0.000  0.000  0.234-
  24  0.000  0.333  0.234-
  25  0.333  0.667  0.234-
  26  0.333  0.000  0.234-
  27  0.333  0.333  0.234-
  28  0.778  0.778  0.312-
  29  0.778  0.111  0.312-
  30  0.778  0.444  0.312-
  31  0.111  0.778  0.312-
  32  0.111  0.111  0.312-
  33  0.111  0.444  0.312-
  34  0.444  0.778  0.312-
  35  0.444  0.111  0.312-
  36  0.444  0.444  0.312-
  37  0.889  0.889  0.390-
  38  0.889  0.222  0.390-
  39  0.889  0.556  0.390-
  40  0.222  0.889  0.390-
  41  0.222  0.222  0.390-
  42  0.222  0.556  0.390-
  43  0.556  0.889  0.390-
  44  0.556  0.222  0.390-
  45  0.556  0.556  0.390-
  46  0.000  0.000  0.466-
  47  0.000  0.333  0.466-
  48  0.000  0.667  0.466-
  49  0.333  0.000  0.466-
  50  0.333  0.333  0.466-
  51  0.333  0.667  0.466-
  52  0.667  0.000  0.466-
  53  0.667  0.333  0.466-
  54  0.667  0.667  0.466-
  55  0.111  0.111  0.545-
  56  0.111  0.444  0.545-
  57  0.111  0.778  0.545-
  58  0.444  0.111  0.545-
  59  0.444  0.444  0.545- 253 1.79 254 1.79
  60  0.444  0.778  0.545-
  61  0.778  0.111  0.545-
  62  0.778  0.444  0.545-
  63  0.778  0.778  0.545-
  64  0.278  0.278  0.079-
  65  0.278  0.611  0.079-
  66  0.278  0.944  0.079-
  67  0.611  0.278  0.079-
  68  0.611  0.611  0.079-
  69  0.611  0.944  0.079-
  70  0.944  0.278  0.079-
  71  0.944  0.611  0.079-
  72  0.944  0.944  0.079-
  73  0.389  0.389  0.157-
  74  0.389  0.722  0.157-
  75  0.389  0.056  0.157-
  76  0.722  0.389  0.157-
  77  0.722  0.722  0.157-
  78  0.722  0.056  0.157-
  79  0.056  0.389  0.157-
  80  0.056  0.722  0.157-
  81  0.056  0.056  0.157-
  82  0.500  0.500  0.234-
  83  0.500  0.833  0.234-
  84  0.500  0.167  0.234-
  85  0.833  0.500  0.234-
  86  0.833  0.833  0.234-
  87  0.833  0.167  0.234-
  88  0.167  0.500  0.234-
  89  0.167  0.833  0.234-
  90  0.167  0.167  0.234-
  91  0.611  0.611  0.312-
  92  0.611  0.944  0.312-
  93  0.611  0.278  0.312-
  94  0.944  0.611  0.312-
  95  0.944  0.944  0.312-
  96  0.944  0.278  0.312-
  97  0.278  0.611  0.312-
  98  0.278  0.944  0.312-
  99  0.278  0.278  0.312-
 100  0.722  0.722  0.390-
 101  0.722  0.056  0.390-
 102  0.722  0.389  0.390-
 103  0.056  0.722  0.390-
 104  0.056  0.056  0.390-
 105  0.056  0.389  0.390-
 106  0.389  0.722  0.390-
 107  0.389  0.056  0.390-
 108  0.389  0.389  0.390-
 109  0.833  0.833  0.466-
 110  0.833  0.167  0.466-
 111  0.833  0.500  0.466-
 112  0.167  0.833  0.466-
 113  0.167  0.167  0.466-
 114  0.167  0.500  0.466-
 115  0.500  0.833  0.466-
 116  0.500  0.167  0.466-
 117  0.500  0.500  0.466-
 118  0.944  0.944  0.545-
 119  0.944  0.278  0.545-
 120  0.944  0.611  0.545-
 121  0.278  0.944  0.545-
 122  0.278  0.278  0.545-
 123  0.278  0.611  0.545- 253 1.79
 124  0.611  0.944  0.545-
 125  0.611  0.278  0.545-
 126  0.611  0.611  0.545-
 127  0.278  0.444  0.079-
 128  0.278  0.778  0.079-
 129  0.278  0.111  0.079-
 130  0.611  0.444  0.079-
 131  0.611  0.778  0.079-
 132  0.611  0.111  0.079-
 133  0.944  0.444  0.079-
 134  0.944  0.778  0.079-
 135  0.944  0.111  0.079-
 136  0.389  0.556  0.157-
 137  0.389  0.889  0.157-
 138  0.389  0.222  0.157-
 139  0.722  0.556  0.157-
 140  0.722  0.889  0.157-
 141  0.722  0.222  0.157-
 142  0.056  0.556  0.157-
 143  0.056  0.889  0.157-
 144  0.056  0.222  0.157-
 145  0.500  0.667  0.234-
 146  0.500  0.000  0.234-
 147  0.500  0.333  0.234-
 148  0.833  0.667  0.234-
 149  0.833  0.000  0.234-
 150  0.833  0.333  0.234-
 151  0.167  0.667  0.234-
 152  0.167  0.000  0.234-
 153  0.167  0.333  0.234-
 154  0.611  0.778  0.312-
 155  0.611  0.111  0.312-
 156  0.611  0.444  0.312-
 157  0.944  0.778  0.312-
 158  0.944  0.111  0.312-
 159  0.944  0.444  0.312-
 160  0.278  0.778  0.312-
 161  0.278  0.111  0.312-
 162  0.278  0.444  0.312-
 163  0.722  0.889  0.390-
 164  0.722  0.222  0.390-
 165  0.722  0.556  0.390-
 166  0.056  0.889  0.390-
 167  0.056  0.222  0.390-
 168  0.056  0.556  0.390-
 169  0.389  0.889  0.390-
 170  0.389  0.222  0.390-
 171  0.389  0.556  0.390-
 172  0.833  0.000  0.466-
 173  0.833  0.333  0.466-
 174  0.833  0.667  0.466-
 175  0.167  0.000  0.466-
 176  0.167  0.333  0.466-
 177  0.167  0.667  0.466-
 178  0.500  0.000  0.466-
 179  0.500  0.333  0.466-
 180  0.500  0.667  0.466-
 181  0.944  0.111  0.545-
 182  0.944  0.444  0.545-
 183  0.944  0.778  0.545-
 184  0.278  0.111  0.545-
 185  0.278  0.444  0.545- 253 1.79 254 1.79
 186  0.278  0.778  0.545-
 187  0.611  0.111  0.545-
 188  0.611  0.444  0.545-
 189  0.611  0.778  0.545-
 190  0.444  0.278  0.079-
 191  0.444  0.611  0.079-
 192  0.444  0.944  0.079-
 193  0.778  0.278  0.079-
 194  0.778  0.611  0.079-
 195  0.778  0.944  0.079-
 196  0.111  0.278  0.079-
 197  0.111  0.611  0.079-
 198  0.111  0.944  0.079-
 199  0.556  0.389  0.157-
 200  0.556  0.722  0.157-
 201  0.556  0.056  0.157-
 202  0.889  0.389  0.157-
 203  0.889  0.722  0.157-
 204  0.889  0.056  0.157-
 205  0.222  0.389  0.157-
 206  0.222  0.722  0.157-
 207  0.222  0.056  0.157-
 208  0.667  0.500  0.234-
 209  0.667  0.833  0.234-
 210  0.667  0.167  0.234-
 211  1.000  0.500  0.234-
 212  1.000  0.833  0.234-
 213  1.000  0.167  0.234-
 214  0.333  0.500  0.234-
 215  0.333  0.833  0.234-
 216  0.333  0.167  0.234-
 217  0.778  0.611  0.312-
 218  0.778  0.944  0.312-
 219  0.778  0.278  0.312-
 220  0.111  0.611  0.312-
 221  0.111  0.944  0.312-
 222  0.111  0.278  0.312-
 223  0.444  0.611  0.312-
 224  0.444  0.944  0.312-
 225  0.444  0.278  0.312-
 226  0.889  0.722  0.390-
 227  0.889  0.056  0.390-
 228  0.889  0.389  0.390-
 229  0.222  0.722  0.390-
 230  0.222  0.056  0.390-
 231  0.222  0.389  0.390-
 232  0.556  0.722  0.390-
 233  0.556  0.056  0.390-
 234  0.556  0.389  0.390-
 235  1.000  0.833  0.466-
 236  1.000  0.167  0.466-
 237  1.000  0.500  0.466-
 238  0.333  0.833  0.466-
 239  0.333  0.167  0.466-
 240  0.333  0.500  0.466-
 241  0.667  0.833  0.466-
 242  0.667  0.167  0.466-
 243  0.667  0.500  0.466-
 244  0.111  0.944  0.545-
 245  0.111  0.278  0.545-
 246  0.111  0.611  0.545-
 247  0.444  0.944  0.545-
 248  0.444  0.278  0.545- 254 1.79
 249  0.444  0.611  0.545-
 250  0.778  0.944  0.545-
 251  0.778  0.278  0.545-
 252  0.778  0.611  0.545-
 253  0.333  0.500  0.568- 254 1.65 185 1.79 123 1.79  59 1.79
 254  0.389  0.389  0.568- 253 1.65 248 1.79 185 1.79  59 1.79
 
  LATTYP: Found a hexagonal cell.
 ALAT       =    17.1805734625
 C/A-ratio  =     1.7461582447
  
  Lattice vectors:
  
 A1 = (   0.0000000000,  -8.5902867312,  14.8788130701)
 A2 = (   0.0000000000,  17.1805734625,   0.0000000000)
 A3 = ( -30.0000000000,   0.0000000000,   0.0000000000)


Analysis of symmetry for initial positions (statically):
=====================================================================
 Subroutine PRICEL returns:
 Original cell was already a primitive cell.
 

 Routine SETGRP: Setting up the symmetry group for a 
 hexagonal supercell.


 Subroutine GETGRP returns: Found  2 space group operations
 (whereof  1 operations were pure point group operations)
 out of a pool of 24 trial point group operations.


The static configuration has the point symmetry C_1 .
 The point group associated with its full space group is C_1h.


Analysis of symmetry for dynamics (positions and initial velocities):
=====================================================================
 Subroutine PRICEL returns:
 Original cell was already a primitive cell.
 

 Routine SETGRP: Setting up the symmetry group for a 
 hexagonal supercell.


 Subroutine GETGRP returns: Found  2 space group operations
 (whereof  1 operations were pure point group operations)
 out of a pool of 24 trial point group operations.


The dynamic configuration has the point symmetry C_1 .
 The point group associated with its full space group is C_1h.


 Subroutine INISYM returns: Found  2 space group operations
 (whereof  1 operations are pure point group operations),
 and found     1 'primitive' translations

 
 
 KPOINTS: Automatic generation                    

Automatic generation of k-mesh.
Space group operators:
 irot       det(A)        alpha          n_x          n_y          n_z        tau_x        tau_y        tau_z
    1     1.000000     0.000000     1.000000     0.000000     0.000000     0.000000     0.000000     0.000000
    2    -1.000000   180.000000     0.000000     1.000000     0.000000    -0.833333     0.000000     0.000000
 
 Subroutine IBZKPT returns following result:
 ===========================================
 
 Found      3 irreducible k-points:
 
 Following reciprocal coordinates:
            Coordinates               Weight
  0.000000  0.000000  0.000000      1.000000
  0.500000  0.000000  0.000000      2.000000
  0.000000  0.500000  0.000000      1.000000
 
 Following cartesian coordinates:
            Coordinates               Weight
  0.000000  0.000000  0.000000      1.000000
  0.000000 -0.029103  0.016802      2.000000
  0.000000  0.000000 -0.033605      1.000000
 


--------------------------------------------------------------------------------------------------------




 Dimension of arrays:
   k-points           NKPTS =      3   k-points in BZ     NKDIM =      3   number of bands    NBANDS=    516
   number of dos      NEDOS =    301   number of ions     NIONS =    254
   non local maximal  LDIM  =      6   non local SUM 2l+1 LMDIM =     18
   total plane-waves  NPLWV = 819200
   max r-space proj   IRMAX =   4449   max aug-charges    IRDMAX=   4357
   dimension x,y,z NGX =    80 NGY =   80 NGZ =  128
   dimension x,y,z NGXF=   160 NGYF=  160 NGZF=  256
   support grid    NGXF=   160 NGYF=  160 NGZF=  256
   ions per type =             252   2
   NGX,Y,Z   is equivalent  to a cutoff of   7.74,  7.74,  7.09 a.u.
   NGXF,Y,Z  is equivalent  to a cutoff of  15.48, 15.48, 14.19 a.u.

 SYSTEM =  NiAl                                    
 POSCAR =  New structure                           

 Startparameter for this run:
   NWRITE =      2    write-flag & timer
   PREC   = normal    normal or accurate (medium, high low for compatibility)
   ISTART =      0    job   : 0-new  1-cont  2-samecut
   ICHARG =      2    charge: 1-file 2-atom 10-const
   ISPIN  =      1    spin polarized calculation?
   LNONCOLLINEAR =      F non collinear calculations
   LSORBIT =      F    spin-orbit coupling
   INIWAV =      1    electr: 0-lowe 1-rand  2-diag
   LASPH  =      F    aspherical Exc in radial PAW
   METAGGA=      F    non-selfconsistent MetaGGA calc.

 Electronic Relaxation 1
   ENCUT  =  300.0 eV  22.05 Ry    4.70 a.u.  24.26 24.26 42.37*2*pi/ulx,y,z
   ENINI  =  300.0     initial cutoff
   ENAUG  =  627.1 eV  augmentation charge cutoff
   NELM   =     60;   NELMIN=  6; NELMDL= -5     # of ELM steps 
   EDIFF  = 0.5E-05   stopping-criterion for ELM
   LREAL  =      T    real-space projection
   NLSPLINE    = F    spline interpolate recip. space projectors
   LCOMPAT=      F    compatible to vasp.4.4
   GGA_COMPAT  = T    GGA compatible to vasp.4.4-vasp.4.6
   LMAXPAW     = -100 max onsite density
   LMAXMIX     =    2 max onsite mixed and CHGCAR
   VOSKOWN=      0    Vosko Wilk Nusair interpolation
   ROPT   =   -0.00050  -0.00050
 Ionic relaxation
   EDIFFG = 0.5E-04   stopping-criterion for IOM
   NSW    =      0    number of steps for IOM
   NBLOCK =      1;   KBLOCK =      1    inner block; outer block 
   IBRION =     -1    ionic relax: 0-MD 1-quasi-New 2-CG
   NFREE  =      0    steps in history (QN), initial steepest desc. (CG)
   ISIF   =      0    stress and relaxation
   IWAVPR =     10    prediction:  0-non 1-charg 2-wave 3-comb
   ISYM   =      2    0-nonsym 1-usesym 2-fastsym
   LCORR  =      T    Harris-Foulkes like correction to forces

   POTIM  = 0.5000    time-step for ionic-motion
   TEIN   =    0.0    initial temperature
   TEBEG  =    0.0;   TEEND  =   0.0 temperature during run
   SMASS  =  -3.00    Nose mass-parameter (am)
   estimated Nose-frequenzy (Omega)   =  0.10E-29 period in steps =****** mass=  -0.675E-26a.u.
   SCALEE = 1.0000    scale energy and forces
   NPACO  =    256;   APACO  = 16.0  distance and # of slots for P.C.
   PSTRESS=    0.0 pullay stress

  Mass of Ions in am
   POMASS =  26.98 14.00
  Ionic Valenz
   ZVAL   =   3.00  5.00
  Atomic Wigner-Seitz radii
   RWIGS  =  -1.00 -1.00
  virtual crystal weights 
   VCA    =   1.00  1.00
   NELECT =     766.0000    total number of electrons
   NUPDOWN=      -1.0000    fix difference up-down

 DOS related values:
   EMIN   =  10.00;   EMAX   =-10.00  energy-range for DOS
   EFERMI =   0.00
   ISMEAR =     0;   SIGMA  =   0.05  broadening in eV -4-tet -1-fermi 0-gaus

 Electronic relaxation 2 (details)
   IALGO  =     38    algorithm
   LDIAG  =      T    sub-space diagonalisation (order eigenvalues)
   LSUBROT=      F    optimize rotation matrix (better conditioning)
   TURBO    =      0    0=normal 1=particle mesh
   IRESTART =      0    0=no restart 2=restart with 2 vectors
   NREBOOT  =      0    no. of reboots
   NMIN     =      0    reboot dimension
   EREF     =   0.00    reference energy to select bands
   IMIX   =      4    mixing-type and parameters
     AMIX     =   0.40;   BMIX     =  1.00
     AMIX_MAG =   1.60;   BMIX_MAG =  1.00
     AMIN     =   0.10
     WC   =   100.;   INIMIX=   1;  MIXPRE=   1;  MAXMIX= -45

 Intra band minimization:
   WEIMIN = 0.0000     energy-eigenvalue tresh-hold
   EBREAK =  0.24E-08  absolut break condition
   DEPER  =   0.30     relativ break condition  

   TIME   =   0.40     timestep for ELM

  volume/ion in A,a.u.               =      30.19       203.75
  Fermi-wavevector in a.u.,A,eV,Ry     =   0.759583  1.435404  7.850108  0.576967
  Thomas-Fermi vector in A             =   1.858410
 
 Write flags
   LWAVE        =      F    write WAVECAR
   LDOWNSAMPLE  =      F    k-point downsampling of WAVECAR
   LCHARG       =      F    write CHGCAR
   LVTOT        =      F    write LOCPOT, total local potential
   LVHAR        =      F    write LOCPOT, Hartree potential only
   LELF         =      F    write electronic localiz. function (ELF)
   LORBIT       =      0    0 simple, 1 ext, 2 COOP (PROOUT), +10 PAW based schemes


 Dipole corrections
   LMONO  =      F    monopole corrections only (constant potential shift)
   LDIPOL =      F    correct potential (dipole corrections)
   IDIPOL =      0    1-x, 2-y, 3-z, 4-all directions 
   EPSILON=  1.0000000 bulk dielectric constant

 Exchange correlation treatment:
   GGA     =    --    GGA type
   LEXCH   =     8    internal setting for exchange type
   VOSKOWN=      0    Vosko Wilk Nusair interpolation
   LHFCALC =     F    Hartree Fock is set to
   LHFONE  =     F    Hartree Fock one center treatment
   AEXX    =    0.0000 exact exchange contribution

 Linear response parameters
   LEPSILON=     F    determine dielectric tensor
   LRPA    =     F    only Hartree local field effects (RPA)
   LNABLA  =     F    use nabla operator in PAW spheres
   LVEL    =     F    velocity operator in full k-point grid
   LINTERFAST=   F  fast interpolation
   KINTER  =     0    interpolate to denser k-point grid
   CSHIFT  =0.1000    complex shift for real part using Kramers Kronig
   OMEGAMAX=  -1.0    maximum frequency
   DEG_THRESHOLD= 0.2000000E-02 threshold for treating states as degnerate
   RTIME   =   -0.100 relaxation time in fs
  (WPLASMAI=    0.000 imaginary part of plasma frequency in eV, 0.658/RTIME)
   DFIELD  = 0.0000000 0.0000000 0.0000000 field for delta impulse in time
 
 Orbital magnetization related:
   ORBITALMAG=     F  switch on orbital magnetization
   LCHIMAG   =     F  perturbation theory with respect to B field
   DQ        =  0.001000  dq finite difference perturbation B field
   LLRAUG    =     F  two centre corrections for induced B field



--------------------------------------------------------------------------------------------------------


 Static calculation
 charge density and potential will be updated during run
 non-spin polarized calculation
 Variant of blocked Davidson
 Davidson routine will perform the subspace rotation
 perform sub-space diagonalisation
    after iterative eigenvector-optimisation
 modified Broyden-mixing scheme, WC =      100.0
 initial mixing is a Kerker type mixing with AMIX =  0.4000 and BMIX =      1.0000
 Hartree-type preconditioning will be used
 using additional bands          133
 real space projection scheme for non local part
 use partial core corrections
 calculate Harris-corrections to forces 
   (improved forces if not selfconsistent)
 use gradient corrections 
 use of overlap-Matrix (Vanderbilt PP)
 Gauss-broadening in eV      SIGMA  =   0.05


--------------------------------------------------------------------------------------------------------


  energy-cutoff  :      300.00
  volume of cell :     7668.80
      direct lattice vectors                 reciprocal lattice vectors
     0.000000000-17.180573462  0.000000000     0.000000000 -0.058205275  0.033604831
     0.000000000 -8.590286731-14.878813070     0.000000000  0.000000000 -0.067209662
    30.000000000  0.000000000  0.000000000     0.033333333  0.000000000  0.000000000

  length of vectors
    17.180573462 17.180573462 30.000000000     0.067209662  0.067209662  0.033333333


 
 k-points in units of 2pi/SCALE and weight: Automatic generation                    
   0.00000000  0.00000000  0.00000000       0.250
   0.00000000 -0.02910264  0.01680242       0.500
   0.00000000  0.00000000 -0.03360483       0.250
 
 k-points in reciprocal lattice and weights: Automatic generation                    
   0.00000000  0.00000000  0.00000000       0.250
   0.50000000  0.00000000  0.00000000       0.500
   0.00000000  0.50000000  0.00000000       0.250
 
 position of ions in fractional coordinates (direct lattice) 
   0.44444456  0.44444473  0.07873467
   0.44444419  0.77777777  0.07873467
   0.44444468  0.11111101  0.07873467
   0.77777744  0.44444473  0.07873467
   0.77777765  0.77777777  0.07873467
   0.77777756  0.11111101  0.07873467
   0.11111110  0.44444473  0.07873467
   0.11111131  0.77777777  0.07873467
   0.11111122  0.11111101  0.07873467
   0.55555520  0.55555574  0.15702600
   0.55555541  0.88888878  0.15702600
   0.55555591  0.22222203  0.15702600
   0.88888866  0.55555574  0.15702600
   0.88888887  0.88888878  0.15702600
   0.88888878  0.22222203  0.15702600
   0.22222232  0.55555574  0.15702600
   0.22222253  0.88888878  0.15702600
   0.22222245  0.22222203  0.15702600
   0.66666642  0.66666675  0.23375733
   0.66666692  0.00000000  0.23375733
   0.66666655  0.33333304  0.23375733
   0.00000008  0.66666675  0.23375733
   0.00000000  0.00000000  0.23375733
   0.00000021  0.33333304  0.23375733
   0.33333354  0.66666675  0.23375733
   0.33333346  0.00000000  0.23375733
   0.33333367  0.33333304  0.23375733
   0.77777765  0.77777777  0.31173067
   0.77777756  0.11111101  0.31173067
   0.77777744  0.44444473  0.31173067
   0.11111131  0.77777777  0.31173067
   0.11111122  0.11111101  0.31173067
   0.11111110  0.44444473  0.31173067
   0.44444419  0.77777777  0.31173067
   0.44444468  0.11111101  0.31173067
   0.44444456  0.44444473  0.31173067
   0.88888887  0.88888878  0.38970400
   0.88888878  0.22222203  0.38970400
   0.88888866  0.55555574  0.38970400
   0.22222253  0.88888878  0.38970400
   0.22222245  0.22222203  0.38970400
   0.22222232  0.55555574  0.38970400
   0.55555541  0.88888878  0.38970400
   0.55555591  0.22222203  0.38970400
   0.55555520  0.55555574  0.38970400
   0.00000000  0.00000000  0.46643533
   0.00000021  0.33333304  0.46643533
   0.00000008  0.66666675  0.46643533
   0.33333346  0.00000000  0.46643533
   0.33333367  0.33333304  0.46643533
   0.33333354  0.66666675  0.46643533
   0.66666692  0.00000000  0.46643533
   0.66666655  0.33333304  0.46643533
   0.66666642  0.66666675  0.46643533
   0.11111122  0.11111101  0.54472667
   0.11111110  0.44444473  0.54472667
   0.11111131  0.77777777  0.54472667
   0.44444468  0.11111101  0.54472667
   0.44444456  0.44444473  0.54472667
   0.44444419  0.77777777  0.54472667
   0.77777756  0.11111101  0.54472667
   0.77777744  0.44444473  0.54472667
   0.77777765  0.77777777  0.54472667
   0.27777777  0.27777753  0.07873467
   0.27777764  0.61111125  0.07873467
   0.27777785  0.94444429  0.07873467
   0.61111123  0.27777753  0.07873467
   0.61111110  0.61111125  0.07873467
   0.61111131  0.94444429  0.07873467
   0.94444469  0.27777753  0.07873467
   0.94444456  0.61111125  0.07873467
   0.94444477  0.94444429  0.07873467
   0.38888865  0.38888922  0.15702600
   0.38888886  0.72222226  0.15702600
   0.38888878  0.05555551  0.15702600
   0.72222211  0.38888922  0.15702600
   0.72222232  0.72222226  0.15702600
   0.72222224  0.05555551  0.15702600
   0.05555519  0.38888922  0.15702600
   0.05555540  0.72222226  0.15702600
   0.05555532  0.05555551  0.15702600
   0.49999988  0.50000023  0.23375733
   0.50000009  0.83333327  0.23375733
   0.50000000  0.16666652  0.23375733
   0.83333334  0.50000023  0.23375733
   0.83333355  0.83333327  0.23375733
   0.83333346  0.16666652  0.23375733
   0.16666642  0.50000023  0.23375733
   0.16666663  0.83333327  0.23375733
   0.16666654  0.16666652  0.23375733
   0.61111110  0.61111125  0.31173067
   0.61111131  0.94444429  0.31173067
   0.61111123  0.27777753  0.31173067
   0.94444456  0.61111125  0.31173067
   0.94444477  0.94444429  0.31173067
   0.94444469  0.27777753  0.31173067
   0.27777764  0.61111125  0.31173067
   0.27777785  0.94444429  0.31173067
   0.27777777  0.27777753  0.31173067
   0.72222232  0.72222226  0.38970400
   0.72222224  0.05555551  0.38970400
   0.72222211  0.38888922  0.38970400
   0.05555540  0.72222226  0.38970400
   0.05555532  0.05555551  0.38970400
   0.05555519  0.38888922  0.38970400
   0.38888886  0.72222226  0.38970400
   0.38888878  0.05555551  0.38970400
   0.38888865  0.38888922  0.38970400
   0.83333355  0.83333327  0.46643533
   0.83333346  0.16666652  0.46643533
   0.83333334  0.50000023  0.46643533
   0.16666663  0.83333327  0.46643533
   0.16666654  0.16666652  0.46643533
   0.16666642  0.50000023  0.46643533
   0.50000009  0.83333327  0.46643533
   0.50000000  0.16666652  0.46643533
   0.49999988  0.50000023  0.46643533
   0.94444477  0.94444429  0.54472667
   0.94444469  0.27777753  0.54472667
   0.94444456  0.61111125  0.54472667
   0.27777785  0.94444429  0.54472667
   0.27777777  0.27777753  0.54472667
   0.27777764  0.61111125  0.54472667
   0.61111131  0.94444429  0.54472667
   0.61111123  0.27777753  0.54472667
   0.61111110  0.61111125  0.54472667
   0.27777783  0.44444473  0.07873467
   0.27777804  0.77777777  0.07873467
   0.27777795  0.11111101  0.07873467
   0.61111071  0.44444473  0.07873467
   0.61111092  0.77777777  0.07873467
   0.61111141  0.11111101  0.07873467
   0.94444417  0.44444473  0.07873467
   0.94444438  0.77777777  0.07873467
   0.94444429  0.11111101  0.07873467
   0.38888905  0.55555574  0.15702600
   0.38888868  0.88888878  0.15702600
   0.38888918  0.22222203  0.15702600
   0.72222193  0.55555574  0.15702600
   0.72222214  0.88888878  0.15702600
   0.72222205  0.22222203  0.15702600
   0.05555559  0.55555574  0.15702600
   0.05555580  0.88888878  0.15702600
   0.05555572  0.22222203  0.15702600
   0.49999969  0.66666675  0.23375733
   0.50000019  0.00000000  0.23375733
   0.50000040  0.33333304  0.23375733
   0.83333315  0.66666675  0.23375733
   0.83333307  0.00000000  0.23375733
   0.83333328  0.33333304  0.23375733
   0.16666681  0.66666675  0.23375733
   0.16666673  0.00000000  0.23375733
   0.16666694  0.33333304  0.23375733
   0.61111092  0.77777777  0.31173067
   0.61111141  0.11111101  0.31173067
   0.61111071  0.44444473  0.31173067
   0.94444438  0.77777777  0.31173067
   0.94444429  0.11111101  0.31173067
   0.94444417  0.44444473  0.31173067
   0.27777804  0.77777777  0.31173067
   0.27777795  0.11111101  0.31173067
   0.27777783  0.44444473  0.31173067
   0.72222214  0.88888878  0.38970400
   0.72222205  0.22222203  0.38970400
   0.72222193  0.55555574  0.38970400
   0.05555580  0.88888878  0.38970400
   0.05555572  0.22222203  0.38970400
   0.05555559  0.55555574  0.38970400
   0.38888868  0.88888878  0.38970400
   0.38888918  0.22222203  0.38970400
   0.38888905  0.55555574  0.38970400
   0.83333307  0.00000000  0.46643533
   0.83333328  0.33333304  0.46643533
   0.83333315  0.66666675  0.46643533
   0.16666673  0.00000000  0.46643533
   0.16666694  0.33333304  0.46643533
   0.16666681  0.66666675  0.46643533
   0.50000019  0.00000000  0.46643533
   0.50000040  0.33333304  0.46643533
   0.49999969  0.66666675  0.46643533
   0.94444429  0.11111101  0.54472667
   0.94444417  0.44444473  0.54472667
   0.94444438  0.77777777  0.54472667
   0.27777795  0.11111101  0.54472667
   0.27777783  0.44444473  0.54472667
   0.27777804  0.77777777  0.54472667
   0.61111141  0.11111101  0.54472667
   0.61111071  0.44444473  0.54472667
   0.61111092  0.77777777  0.54472667
   0.44444450  0.27777753  0.07873467
   0.44444437  0.61111125  0.07873467
   0.44444458  0.94444429  0.07873467
   0.77777796  0.27777753  0.07873467
   0.77777783  0.61111125  0.07873467
   0.77777804  0.94444429  0.07873467
   0.11111104  0.27777753  0.07873467
   0.11111091  0.61111125  0.07873467
   0.11111112  0.94444429  0.07873467
   0.55555538  0.38888922  0.15702600
   0.55555559  0.72222226  0.15702600
   0.55555551  0.05555551  0.15702600
   0.88888884  0.38888922  0.15702600
   0.88888905  0.72222226  0.15702600
   0.88888897  0.05555551  0.15702600
   0.22222192  0.38888922  0.15702600
   0.22222213  0.72222226  0.15702600
   0.22222205  0.05555551  0.15702600
   0.66666661  0.50000023  0.23375733
   0.66666682  0.83333327  0.23375733
   0.66666673  0.16666652  0.23375733
   0.99999969  0.50000023  0.23375733
   0.99999990  0.83333327  0.23375733
   0.99999981  0.16666652  0.23375733
   0.33333315  0.50000023  0.23375733
   0.33333336  0.83333327  0.23375733
   0.33333327  0.16666652  0.23375733
   0.77777783  0.61111125  0.31173067
   0.77777804  0.94444429  0.31173067
   0.77777796  0.27777753  0.31173067
   0.11111091  0.61111125  0.31173067
   0.11111112  0.94444429  0.31173067
   0.11111104  0.27777753  0.31173067
   0.44444437  0.61111125  0.31173067
   0.44444458  0.94444429  0.31173067
   0.44444450  0.27777753  0.31173067
   0.88888905  0.72222226  0.38970400
   0.88888897  0.05555551  0.38970400
   0.88888884  0.38888922  0.38970400
   0.22222213  0.72222226  0.38970400
   0.22222205  0.05555551  0.38970400
   0.22222192  0.38888922  0.38970400
   0.55555559  0.72222226  0.38970400
   0.55555551  0.05555551  0.38970400
   0.55555538  0.38888922  0.38970400
   0.99999990  0.83333327  0.46643533
   0.99999981  0.16666652  0.46643533
   0.99999969  0.50000023  0.46643533
   0.33333336  0.83333327  0.46643533
   0.33333327  0.16666652  0.46643533
   0.33333315  0.50000023  0.46643533
   0.66666682  0.83333327  0.46643533
   0.66666673  0.16666652  0.46643533
   0.66666661  0.50000023  0.46643533
   0.11111112  0.94444429  0.54472667
   0.11111104  0.27777753  0.54472667
   0.11111091  0.61111125  0.54472667
   0.44444458  0.94444429  0.54472667
   0.44444450  0.27777753  0.54472667
   0.44444437  0.61111125  0.54472667
   0.77777804  0.94444429  0.54472667
   0.77777796  0.27777753  0.54472667
   0.77777783  0.61111125  0.54472667
   0.33333315  0.50000023  0.56800000
   0.38888907  0.38888877  0.56800000
 
 position of ions in cartesian coordinates  (Angst):
   2.36204000-11.45372000 -6.61281000
   2.36204000-14.31714000-11.57241000
   2.36204000 -8.59029000 -1.65320000
   2.36204000-17.18057000 -6.61281000
   2.36204000-20.04400000-11.57241000
   2.36204000-14.31714000 -1.65320000
   2.36204000 -5.72686000 -6.61281000
   2.36204000 -8.59029000-11.57241000
   2.36204000 -2.86343000 -1.65320000
   4.71078000-14.31714000 -8.26601000
   4.71078000-17.18057000-13.22561000
   4.71078000-11.45372000 -3.30640000
   4.71078000-20.04400000 -8.26601000
   4.71078000-22.90743000-13.22561000
   4.71078000-17.18057000 -3.30640000
   4.71078000 -8.59029000 -8.26601000
   4.71078000-11.45372000-13.22561000
   4.71078000 -5.72686000 -3.30640000
   7.01272000-17.18057000 -9.91921000
   7.01272000-11.45372000  0.00000000
   7.01272000-14.31714000 -4.95960000
   7.01272000 -5.72686000 -9.91921000
   7.01272000  0.00000000  0.00000000
   7.01272000 -2.86343000 -4.95960000
   7.01272000-11.45372000 -9.91921000
   7.01272000 -5.72686000  0.00000000
   7.01272000 -8.59029000 -4.95960000
   9.35192000-20.04400000-11.57241000
   9.35192000-14.31714000 -1.65320000
   9.35192000-17.18057000 -6.61281000
   9.35192000 -8.59029000-11.57241000
   9.35192000 -2.86343000 -1.65320000
   9.35192000 -5.72686000 -6.61281000
   9.35192000-14.31714000-11.57241000
   9.35192000 -8.59029000 -1.65320000
   9.35192000-11.45372000 -6.61281000
  11.69112000-22.90743000-13.22561000
  11.69112000-17.18057000 -3.30640000
  11.69112000-20.04400000 -8.26601000
  11.69112000-11.45372000-13.22561000
  11.69112000 -5.72686000 -3.30640000
  11.69112000 -8.59029000 -8.26601000
  11.69112000-17.18057000-13.22561000
  11.69112000-11.45372000 -3.30640000
  11.69112000-14.31714000 -8.26601000
  13.99306000  0.00000000  0.00000000
  13.99306000 -2.86343000 -4.95960000
  13.99306000 -5.72686000 -9.91921000
  13.99306000 -5.72686000  0.00000000
  13.99306000 -8.59029000 -4.95960000
  13.99306000-11.45372000 -9.91921000
  13.99306000-11.45372000  0.00000000
  13.99306000-14.31714000 -4.95960000
  13.99306000-17.18057000 -9.91921000
  16.34180000 -2.86343000 -1.65320000
  16.34180000 -5.72686000 -6.61281000
  16.34180000 -8.59029000-11.57241000
  16.34180000 -8.59029000 -1.65320000
  16.34180000-11.45372000 -6.61281000
  16.34180000-14.31714000-11.57241000
  16.34180000-14.31714000 -1.65320000
  16.34180000-17.18057000 -6.61281000
  16.34180000-20.04400000-11.57241000
   2.36204000 -7.15857000 -4.13300000
   2.36204000-10.02200000 -9.09261000
   2.36204000-12.88543000-14.05221000
   2.36204000-12.88543000 -4.13300000
   2.36204000-15.74886000 -9.09261000
   2.36204000-18.61229000-14.05221000
   2.36204000-18.61229000 -4.13300000
   2.36204000-21.47572000 -9.09261000
   2.36204000-24.33915000-14.05221000
   4.71078000-10.02200000 -5.78621000
   4.71078000-12.88543000-10.74581000
   4.71078000 -7.15857000 -0.82660000
   4.71078000-15.74886000 -5.78621000
   4.71078000-18.61229000-10.74581000
   4.71078000-12.88543000 -0.82660000
   4.71078000 -4.29514000 -5.78621000
   4.71078000 -7.15857000-10.74581000
   4.71078000 -1.43171000 -0.82660000
   7.01272000-12.88543000 -7.43941000
   7.01272000-15.74886000-12.39901000
   7.01272000-10.02200000 -2.47980000
   7.01272000-18.61229000 -7.43941000
   7.01272000-21.47572000-12.39901000
   7.01272000-15.74886000 -2.47980000
   7.01272000 -7.15857000 -7.43941000
   7.01272000-10.02200000-12.39901000
   7.01272000 -4.29514000 -2.47980000
   9.35192000-15.74886000 -9.09261000
   9.35192000-18.61229000-14.05221000
   9.35192000-12.88543000 -4.13300000
   9.35192000-21.47572000 -9.09261000
   9.35192000-24.33915000-14.05221000
   9.35192000-18.61229000 -4.13300000
   9.35192000-10.02200000 -9.09261000
   9.35192000-12.88543000-14.05221000
   9.35192000 -7.15857000 -4.13300000
  11.69112000-18.61229000-10.74581000
  11.69112000-12.88543000 -0.82660000
  11.69112000-15.74886000 -5.78621000
  11.69112000 -7.15857000-10.74581000
  11.69112000 -1.43171000 -0.82660000
  11.69112000 -4.29514000 -5.78621000
  11.69112000-12.88543000-10.74581000
  11.69112000 -7.15857000 -0.82660000
  11.69112000-10.02200000 -5.78621000
  13.99306000-21.47572000-12.39901000
  13.99306000-15.74886000 -2.47980000
  13.99306000-18.61229000 -7.43941000
  13.99306000-10.02200000-12.39901000
  13.99306000 -4.29514000 -2.47980000
  13.99306000 -7.15857000 -7.43941000
  13.99306000-15.74886000-12.39901000
  13.99306000-10.02200000 -2.47980000
  13.99306000-12.88543000 -7.43941000
  16.34180000-24.33915000-14.05221000
  16.34180000-18.61229000 -4.13300000
  16.34180000-21.47572000 -9.09261000
  16.34180000-12.88543000-14.05221000
  16.34180000 -7.15857000 -4.13300000
  16.34180000-10.02200000 -9.09261000
  16.34180000-18.61229000-14.05221000
  16.34180000-12.88543000 -4.13300000
  16.34180000-15.74886000 -9.09261000
   2.36204000 -8.59029000 -6.61281000
   2.36204000-11.45372000-11.57241000
   2.36204000 -5.72686000 -1.65320000
   2.36204000-14.31714000 -6.61281000
   2.36204000-17.18057000-11.57241000
   2.36204000-11.45372000 -1.65320000
   2.36204000-20.04400000 -6.61281000
   2.36204000-22.90743000-11.57241000
   2.36204000-17.18057000 -1.65320000
   4.71078000-11.45372000 -8.26601000
   4.71078000-14.31714000-13.22561000
   4.71078000 -8.59029000 -3.30640000
   4.71078000-17.18057000 -8.26601000
   4.71078000-20.04400000-13.22561000
   4.71078000-14.31714000 -3.30640000
   4.71078000 -5.72686000 -8.26601000
   4.71078000 -8.59029000-13.22561000
   4.71078000 -2.86343000 -3.30640000
   7.01272000-14.31714000 -9.91921000
   7.01272000 -8.59029000  0.00000000
   7.01272000-11.45372000 -4.95960000
   7.01272000-20.04400000 -9.91921000
   7.01272000-14.31714000  0.00000000
   7.01272000-17.18057000 -4.95960000
   7.01272000 -8.59029000 -9.91921000
   7.01272000 -2.86343000  0.00000000
   7.01272000 -5.72686000 -4.95960000
   9.35192000-17.18057000-11.57241000
   9.35192000-11.45372000 -1.65320000
   9.35192000-14.31714000 -6.61281000
   9.35192000-22.90743000-11.57241000
   9.35192000-17.18057000 -1.65320000
   9.35192000-20.04400000 -6.61281000
   9.35192000-11.45372000-11.57241000
   9.35192000 -5.72686000 -1.65320000
   9.35192000 -8.59029000 -6.61281000
  11.69112000-20.04400000-13.22561000
  11.69112000-14.31714000 -3.30640000
  11.69112000-17.18057000 -8.26601000
  11.69112000 -8.59029000-13.22561000
  11.69112000 -2.86343000 -3.30640000
  11.69112000 -5.72686000 -8.26601000
  11.69112000-14.31714000-13.22561000
  11.69112000 -8.59029000 -3.30640000
  11.69112000-11.45372000 -8.26601000
  13.99306000-14.31714000  0.00000000
  13.99306000-17.18057000 -4.95960000
  13.99306000-20.04400000 -9.91921000
  13.99306000 -2.86343000  0.00000000
  13.99306000 -5.72686000 -4.95960000
  13.99306000 -8.59029000 -9.91921000
  13.99306000 -8.59029000  0.00000000
  13.99306000-11.45372000 -4.95960000
  13.99306000-14.31714000 -9.91921000
  16.34180000-17.18057000 -1.65320000
  16.34180000-20.04400000 -6.61281000
  16.34180000-22.90743000-11.57241000
  16.34180000 -5.72686000 -1.65320000
  16.34180000 -8.59029000 -6.61281000
  16.34180000-11.45372000-11.57241000
  16.34180000-11.45372000 -1.65320000
  16.34180000-14.31714000 -6.61281000
  16.34180000-17.18057000-11.57241000
   2.36204000-10.02200000 -4.13300000
   2.36204000-12.88543000 -9.09261000
   2.36204000-15.74886000-14.05221000
   2.36204000-15.74886000 -4.13300000
   2.36204000-18.61229000 -9.09261000
   2.36204000-21.47572000-14.05221000
   2.36204000 -4.29514000 -4.13300000
   2.36204000 -7.15857000 -9.09261000
   2.36204000-10.02200000-14.05221000
   4.71078000-12.88543000 -5.78621000
   4.71078000-15.74886000-10.74581000
   4.71078000-10.02200000 -0.82660000
   4.71078000-18.61229000 -5.78621000
   4.71078000-21.47572000-10.74581000
   4.71078000-15.74886000 -0.82660000
   4.71078000 -7.15857000 -5.78621000
   4.71078000-10.02200000-10.74581000
   4.71078000 -4.29514000 -0.82660000
   7.01272000-15.74886000 -7.43941000
   7.01272000-18.61229000-12.39901000
   7.01272000-12.88543000 -2.47980000
   7.01272000-21.47571346 -7.43941000
   7.01272000-24.33914346-12.39901000
   7.01272000-18.61228346 -2.47980000
   7.01272000-10.02200000 -7.43941000
   7.01272000-12.88543000-12.39901000
   7.01272000 -7.15857000 -2.47980000
   9.35192000-18.61229000 -9.09261000
   9.35192000-21.47572000-14.05221000
   9.35192000-15.74886000 -4.13300000
   9.35192000 -7.15857000 -9.09261000
   9.35192000-10.02200000-14.05221000
   9.35192000 -4.29514000 -4.13300000
   9.35192000-12.88543000 -9.09261000
   9.35192000-15.74886000-14.05221000
   9.35192000-10.02200000 -4.13300000
  11.69112000-21.47572000-10.74581000
  11.69112000-15.74886000 -0.82660000
  11.69112000-18.61229000 -5.78621000
  11.69112000-10.02200000-10.74581000
  11.69112000 -4.29514000 -0.82660000
  11.69112000 -7.15857000 -5.78621000
  11.69112000-15.74886000-10.74581000
  11.69112000-10.02200000 -0.82660000
  11.69112000-12.88543000 -5.78621000
  13.99306000-24.33914346-12.39901000
  13.99306000-18.61228346 -2.47980000
  13.99306000-21.47571346 -7.43941000
  13.99306000-12.88543000-12.39901000
  13.99306000 -7.15857000 -2.47980000
  13.99306000-10.02200000 -7.43941000
  13.99306000-18.61229000-12.39901000
  13.99306000-12.88543000 -2.47980000
  13.99306000-15.74886000 -7.43941000
  16.34180000-10.02200000-14.05221000
  16.34180000 -4.29514000 -4.13300000
  16.34180000 -7.15857000 -9.09261000
  16.34180000-15.74886000-14.05221000
  16.34180000-10.02200000 -4.13300000
  16.34180000-12.88543000 -9.09261000
  16.34180000-21.47572000-14.05221000
  16.34180000-15.74886000 -4.13300000
  16.34180000-18.61229000 -9.09261000
  17.04000000-10.02200000 -7.43941000
  17.04000000-10.02200333 -5.78620333
 


--------------------------------------------------------------------------------------------------------


 k-point  1 :   0.0000 0.0000 0.0000  plane waves:   90499
 k-point  2 :   0.5000 0.0000 0.0000  plane waves:   90530
 k-point  3 :   0.0000 0.5000 0.0000  plane waves:   90530

 maximum and minimum number of plane-waves per node :     90530    90499

 maximum number of plane-waves:     90530
 maximum index in each direction: 
   IXMAX=   24   IYMAX=   24   IZMAX=   42
   IXMIN=  -24   IYMIN=  -24   IZMIN=  -42


 serial   3D FFT for wavefunctions
 parallel 3D FFT for charge:
    minimum data exchange during FFTs selected (reduces bandwidth)


 total amount of memory used by VASP MPI-rank0   652154. kBytes
=======================================================================

   base      :      30000. kBytes
   nonlr-proj:      89933. kBytes
   fftplans  :      40601. kBytes
   grid      :      95147. kBytes
   one-center:       3950. kBytes
   wavefun   :     392523. kBytes
 
     INWAV:  cpu time    0.0001: real time    0.0001
 Broyden mixing: mesh for mixing (old mesh)
   NGX = 49   NGY = 49   NGZ = 85
  (NGX  =160   NGY  =160   NGZ  =256)
  gives a total of 204085 points

 initial charge density was supplied:
 charge density of overlapping atoms calculated
 number of electron     766.0000000 magnetization 
 keeping initial charge density in first step


--------------------------------------------------------------------------------------------------------


 Maximum index for non-local projection operator         4278
 Maximum index for augmentation-charges          758 (set IRDMAX)


--------------------------------------------------------------------------------------------------------


 First call to EWALD:  gamma=   0.090
 Maximum number of real-space cells 3x 3x 2
 Maximum number of reciprocal cells 2x 2x 4

    FEWALD:  cpu time    0.0264: real time    0.0264


----------------------------------------- Iteration    1(   1)  ---------------------------------------


    POTLOK:  cpu time    0.7655: real time    0.7934
    SETDIJ:  cpu time    0.0876: real time    0.0877
     EDDAV:  cpu time   18.8029: real time   21.2189
       DOS:  cpu time    0.0277: real time    0.0277
    --------------------------------------------
      LOOP:  cpu time   19.6857: real time   22.1454

 eigenvalue-minimisations  :  3144
 total energy-change (2. order) : 0.2160486E+04  (-0.1843963E+05)
 number of electron     766.0000000 magnetization 
 augmentation part      766.0000000 magnetization 

 Free energy of the ion-electron system (eV)
  ---------------------------------------------------
  alpha Z        PSCENC =       505.22967617
  Ewald energy   TEWEN  =     89676.90077849
  -Hartree energ DENC   =   -103699.24544656
  -exchange      EXHF   =         0.00000000
  -V(xc)+E(xc)   XCENC  =     -6603.02153061
  PAW double counting   =     17092.30507181    -9042.14386232
  entropy T*S    EENTRO =        -0.07011574
  eigenvalues    EBANDS =       211.32912530
  atomic energy  EATOM  =     14019.20197576
  Solvation  Ediel_sol  =         0.00000000
  ---------------------------------------------------
  free energy    TOTEN  =      2160.48567230 eV

  energy without entropy =     2160.55578804  energy(sigma->0) =     2160.52073017


--------------------------------------------------------------------------------------------------------




----------------------------------------- Iteration    1(   2)  ---------------------------------------


     EDDAV:  cpu time   23.4025: real time   26.2044
       DOS:  cpu time    0.0020: real time    0.0020
    --------------------------------------------
      LOOP:  cpu time   23.4058: real time   26.2092

 eigenvalue-minimisations  :  4200
 total energy-change (2. order) :-0.2891842E+04  (-0.2727110E+04)
 number of electron     766.0000000 magnetization 
 augmentation part      766.0000000 magnetization 

 Free energy of the ion-electron system (eV)
  ---------------------------------------------------
  alpha Z        PSCENC =       505.22967617
  Ewald energy   TEWEN  =     89676.90077849
  -Hartree energ DENC   =   -103699.24544656
  -exchange      EXHF   =         0.00000000
  -V(xc)+E(xc)   XCENC  =     -6603.02153061
  PAW double counting   =     17092.30507181    -9042.14386232
  entropy T*S    EENTRO =        -0.12216123
  eigenvalues    EBANDS =     -2680.46074046
  atomic energy  EATOM  =     14019.20197576
  Solvation  Ediel_sol  =         0.00000000
  ---------------------------------------------------
  free energy    TOTEN  =      -731.35623895 eV

  energy without entropy =     -731.23407772  energy(sigma->0) =     -731.29515833


--------------------------------------------------------------------------------------------------------




----------------------------------------- Iteration    1(   3)  ---------------------------------------


     EDDAV:  cpu time   26.1725: real time   29.1714
       DOS:  cpu time    0.0023: real time    0.0023
    --------------------------------------------
      LOOP:  cpu time   26.1761: real time   29.1768

 eigenvalue-minimisations  :  4836
 total energy-change (2. order) :-0.2238960E+03  (-0.2144667E+03)
 number of electron     766.0000000 magnetization 
 augmentation part      766.0000000 magnetization 

 Free energy of the ion-electron system (eV)
  ---------------------------------------------------
  alpha Z        PSCENC =       505.22967617
  Ewald energy   TEWEN  =     89676.90077849
  -Hartree energ DENC   =   -103699.24544656
  -exchange      EXHF   =         0.00000000
  -V(xc)+E(xc)   XCENC  =     -6603.02153061
  PAW double counting   =     17092.30507181    -9042.14386232
  entropy T*S    EENTRO =        -0.20390917
  eigenvalues    EBANDS =     -2904.27495525
  atomic energy  EATOM  =     14019.20197576
  Solvation  Ediel_sol  =         0.00000000
  ---------------------------------------------------
  free energy    TOTEN  =      -955.25220169 eV

  energy without entropy =     -955.04829251  energy(sigma->0) =     -955.15024710


--------------------------------------------------------------------------------------------------------




----------------------------------------- Iteration    1(   4)  ---------------------------------------


     EDDAV:  cpu time   25.5205: real time   28.3930
       DOS:  cpu time    0.0020: real time    0.0020
    --------------------------------------------
      LOOP:  cpu time   25.5238: real time   28.3978

 eigenvalue-minimisations  :  4656
 total energy-change (2. order) :-0.1079672E+02  (-0.9955762E+01)
 number of electron     766.0000000 magnetization 
 augmentation part      766.0000000 magnetization 

 Free energy of the ion-electron system (eV)
  ---------------------------------------------------
  alpha Z        PSCENC =       505.22967617
  Ewald energy   TEWEN  =     89676.90077849
  -Hartree energ DENC   =   -103699.24544656
  -exchange      EXHF   =         0.00000000
  -V(xc)+E(xc)   XCENC  =     -6603.02153061
  PAW double counting   =     17092.30507181    -9042.14386232
  entropy T*S    EENTRO =        -0.20821790
  eigenvalues    EBANDS =     -2915.06736280
  atomic energy  EATOM  =     14019.20197576
  Solvation  Ediel_sol  =         0.00000000
  ---------------------------------------------------
  free energy    TOTEN  =      -966.04891796 eV

  energy without entropy =     -965.84070006  energy(sigma->0) =     -965.94480901


--------------------------------------------------------------------------------------------------------




----------------------------------------- Iteration    1(   5)  ---------------------------------------


     EDDAV:  cpu time   26.3722: real time   29.4341
       DOS:  cpu time    0.0012: real time    0.0012
    CHARGE:  cpu time    1.7384: real time    1.7916
    MIXING:  cpu time    0.0239: real time    0.0239
    --------------------------------------------
      LOOP:  cpu time   28.1370: real time   31.2532

 eigenvalue-minimisations  :  4860
 total energy-change (2. order) :-0.6191224E+00  (-0.6109513E+00)
 number of electron     765.9999975 magnetization 
 augmentation part       -9.5214405 magnetization 

 Broyden mixing:
  rms(total) = 0.23242E+01    rms(broyden)= 0.23238E+01
  rms(prec ) = 0.29655E+01
  weight for this iteration     100.00

 Free energy of the ion-electron system (eV)
  ---------------------------------------------------
  alpha Z        PSCENC =       505.22967617
  Ewald energy   TEWEN  =     89676.90077849
  -Hartree energ DENC   =   -103699.24544656
  -exchange      EXHF   =         0.00000000
  -V(xc)+E(xc)   XCENC  =     -6603.02153061
  PAW double counting   =     17092.30507181    -9042.14386232
  entropy T*S    EENTRO =        -0.20361492
  eigenvalues    EBANDS =     -2915.69108814
  atomic energy  EATOM  =     14019.20197576
  Solvation  Ediel_sol  =         0.00000000
  ---------------------------------------------------
  free energy    TOTEN  =      -966.66804032 eV

  energy without entropy =     -966.46442540  energy(sigma->0) =     -966.56623286


--------------------------------------------------------------------------------------------------------




----------------------------------------- Iteration    1(   6)  ---------------------------------------


    POTLOK:  cpu time    0.7428: real time    0.7437
    SETDIJ:  cpu time    0.0892: real time    0.0893
     EDDAV:  cpu time   24.7643: real time   27.6646
       DOS:  cpu time    0.0023: real time    0.0023
    CHARGE:  cpu time    1.7360: real time    1.7685
    MIXING:  cpu time    0.0250: real time    0.0252
    --------------------------------------------
      LOOP:  cpu time   27.3612: real time   30.2962

 eigenvalue-minimisations  :  4488
 total energy-change (2. order) :-0.4452173E+01  (-0.1956935E+02)
 number of electron     765.9999997 magnetization 
 augmentation part       -9.8966027 magnetization 

 Broyden mixing:
  rms(total) = 0.19294E+01    rms(broyden)= 0.19281E+01
  rms(prec ) = 0.39790E+01
  weight for this iteration     100.00

 eigenvalues of (default mixing * dielectric matrix)
  average eigenvalue GAMMA=   0.6923
  0.6923

 Free energy of the ion-electron system (eV)
  ---------------------------------------------------
  alpha Z        PSCENC =       505.22967617
  Ewald energy   TEWEN  =     89676.90077849
  -Hartree energ DENC   =   -104627.26484407
  -exchange      EXHF   =         0.00000000
  -V(xc)+E(xc)   XCENC  =     -6590.22951722
  PAW double counting   =     19151.66676251   -11103.28083142
  entropy T*S    EENTRO =        -0.15323033
  eigenvalues    EBANDS =     -2003.19098323
  atomic energy  EATOM  =     14019.20197576
  Solvation  Ediel_sol  =         0.00000000
  ---------------------------------------------------
  free energy    TOTEN  =      -971.12021335 eV

  energy without entropy =     -970.96698302  energy(sigma->0) =     -971.04359819


--------------------------------------------------------------------------------------------------------




----------------------------------------- Iteration    1(   7)  ---------------------------------------


    POTLOK:  cpu time    0.7488: real time    0.7496
    SETDIJ:  cpu time    0.0906: real time    0.0907
     EDDAV:  cpu time   22.5931: real time   25.2248
       DOS:  cpu time    0.0020: real time    0.0020
    CHARGE:  cpu time    1.7536: real time    1.7863
    MIXING:  cpu time    0.0273: real time    0.0274
    --------------------------------------------
      LOOP:  cpu time   25.2170: real time   27.8833

 eigenvalue-minimisations  :  3984
 total energy-change (2. order) : 0.2381099E+02  (-0.1403283E+02)
 number of electron     765.9999987 magnetization 
 augmentation part       -9.9557161 magnetization 

 Broyden mixing:
  rms(total) = 0.14095E+01    rms(broyden)= 0.14093E+01
  rms(prec ) = 0.31403E+01
  weight for this iteration     100.00

 eigenvalues of (default mixing * dielectric matrix)
  average eigenvalue GAMMA=   0.5423
  0.7413  0.3432

 Free energy of the ion-electron system (eV)
  ---------------------------------------------------
  alpha Z        PSCENC =       505.22967617
  Ewald energy   TEWEN  =     89676.90077849
  -Hartree energ DENC   =   -104096.23546742
  -exchange      EXHF   =         0.00000000
  -V(xc)+E(xc)   XCENC  =     -6588.34615804
  PAW double counting   =     19596.44154671   -11548.20022820
  entropy T*S    EENTRO =        -0.10647059
  eigenvalues    EBANDS =     -2512.19487809
  atomic energy  EATOM  =     14019.20197576
  Solvation  Ediel_sol  =         0.00000000
  ---------------------------------------------------
  free energy    TOTEN  =      -947.30922521 eV

  energy without entropy =     -947.20275462  energy(sigma->0) =     -947.25598992


--------------------------------------------------------------------------------------------------------




----------------------------------------- Iteration    1(   8)  ---------------------------------------


    POTLOK:  cpu time    0.7538: real time    0.7546
    SETDIJ:  cpu time    0.0887: real time    0.0887
     EDDAV:  cpu time   24.4980: real time   27.3160
       DOS:  cpu time    0.0020: real time    0.0020
    CHARGE:  cpu time    1.7276: real time    1.7605
    MIXING:  cpu time    0.0272: real time    0.0272
    --------------------------------------------
      LOOP:  cpu time   27.0989: real time   29.9517

 eigenvalue-minimisations  :  4416
 total energy-change (2. order) :-0.2460368E+00  (-0.6141718E+01)
 number of electron     765.9999990 magnetization 
 augmentation part       -9.9613022 magnetization 

 Broyden mixing:
  rms(total) = 0.11440E+01    rms(broyden)= 0.11438E+01
  rms(prec ) = 0.28305E+01
  weight for this iteration     100.00

 eigenvalues of (default mixing * dielectric matrix)
  average eigenvalue GAMMA=   0.5889
  0.9310  0.6477  0.1881

 Free energy of the ion-electron system (eV)
  ---------------------------------------------------
  alpha Z        PSCENC =       505.22967617
  Ewald energy   TEWEN  =     89676.90077849
  -Hartree energ DENC   =   -104147.98254574
  -exchange      EXHF   =         0.00000000
  -V(xc)+E(xc)   XCENC  =     -6586.41995036
  PAW double counting   =     19996.72085939   -11948.66075452
  entropy T*S    EENTRO =        -0.08746897
  eigenvalues    EBANDS =     -2462.45783228
  atomic energy  EATOM  =     14019.20197576
  Solvation  Ediel_sol  =         0.00000000
  ---------------------------------------------------
  free energy    TOTEN  =      -947.55526206 eV

  energy without entropy =     -947.46779308  energy(sigma->0) =     -947.51152757


--------------------------------------------------------------------------------------------------------




----------------------------------------- Iteration    1(   9)  ---------------------------------------


    POTLOK:  cpu time    0.7520: real time    0.7528
    SETDIJ:  cpu time    0.0919: real time    0.0920
     EDDAV:  cpu time   22.1874: real time   24.8619
       DOS:  cpu time    0.0017: real time    0.0017
    CHARGE:  cpu time    1.7484: real time    1.7807
    MIXING:  cpu time    0.0295: real time    0.0295
    --------------------------------------------
      LOOP:  cpu time   24.8126: real time   27.5213

 eigenvalue-minimisations  :  3900
 total energy-change (2. order) : 0.1194777E+02  (-0.1055392E+01)
 number of electron     765.9999982 magnetization 
 augmentation part      -10.0027021 magnetization 

 Broyden mixing:
  rms(total) = 0.63185E+00    rms(broyden)= 0.63169E+00
  rms(prec ) = 0.79490E+00
  weight for this iteration     100.00

 eigenvalues of (default mixing * dielectric matrix)
  average eigenvalue GAMMA=   0.8540
  2.2594  0.6916  0.3255  0.1397

 Free energy of the ion-electron system (eV)
  ---------------------------------------------------
  alpha Z        PSCENC =       505.22967617
  Ewald energy   TEWEN  =     89676.90077849
  -Hartree energ DENC   =   -104304.89602932
  -exchange      EXHF   =         0.00000000
  -V(xc)+E(xc)   XCENC  =     -6583.49584873
  PAW double counting   =     20560.96486364   -12513.21650062
  entropy T*S    EENTRO =        -0.09676148
  eigenvalues    EBANDS =     -2296.19964877
  atomic energy  EATOM  =     14019.20197576
  Solvation  Ediel_sol  =         0.00000000
  ---------------------------------------------------
  free energy    TOTEN  =      -935.60749486 eV

  energy without entropy =     -935.51073339  energy(sigma->0) =     -935.55911412


--------------------------------------------------------------------------------------------------------




----------------------------------------- Iteration    1(  10)  ---------------------------------------


    POTLOK:  cpu time    0.7557: real time    0.7564
    SETDIJ:  cpu time    0.0898: real time    0.0898
     EDDAV:  cpu time   21.4292: real time   24.0549
       DOS:  cpu time    0.0017: real time    0.0017
    CHARGE:  cpu time    1.7426: real time    1.7754
    MIXING:  cpu time    0.0319: real time    0.0322
    --------------------------------------------
      LOOP:  cpu time   24.0525: real time   26.7132

 eigenvalue-minimisations  :  3732
 total energy-change (2. order) : 0.9410657E+00  (-0.1696225E+01)
 number of electron     765.9999983 magnetization 
 augmentation part       -9.9995502 magnetization 

 Broyden mixing:
  rms(total) = 0.38751E+00    rms(broyden)= 0.38717E+00
  rms(prec ) = 0.46984E+00
  weight for this iteration     100.00

 eigenvalues of (default mixing * dielectric matrix)
  average eigenvalue GAMMA=   0.8406
  2.4180  0.6605  0.6605  0.3249  0.1393

 Free energy of the ion-electron system (eV)
  ---------------------------------------------------
  alpha Z        PSCENC =       505.22967617
  Ewald energy   TEWEN  =     89676.90077849
  -Hartree energ DENC   =   -104463.43494436
  -exchange      EXHF   =         0.00000000
  -V(xc)+E(xc)   XCENC  =     -6574.85739131
  PAW double counting   =     21997.30466684   -13950.60617366
  entropy T*S    EENTRO =        -0.08969587
  eigenvalues    EBANDS =     -2144.31532124
  atomic energy  EATOM  =     14019.20197576
  Solvation  Ediel_sol  =         0.00000000
  ---------------------------------------------------
  free energy    TOTEN  =      -934.66642919 eV

  energy without entropy =     -934.57673331  energy(sigma->0) =     -934.62158125


--------------------------------------------------------------------------------------------------------




----------------------------------------- Iteration    1(  11)  ---------------------------------------


    POTLOK:  cpu time    0.7558: real time    0.7565
    SETDIJ:  cpu time    0.0876: real time    0.0877
     EDDAV:  cpu time   22.3886: real time   24.8958
       DOS:  cpu time    0.0021: real time    0.0021
    CHARGE:  cpu time    1.7327: real time    1.7651
    MIXING:  cpu time    0.0327: real time    0.0327
    --------------------------------------------
      LOOP:  cpu time   25.0013: real time   27.5542

 eigenvalue-minimisations  :  3912
 total energy-change (2. order) : 0.6774039E+00  (-0.2492369E+00)
 number of electron     765.9999983 magnetization 
 augmentation part      -10.0496548 magnetization 

 Broyden mixing:
  rms(total) = 0.22378E+00    rms(broyden)= 0.22376E+00
  rms(prec ) = 0.25173E+00
  weight for this iteration     100.00

 eigenvalues of (default mixing * dielectric matrix)
  average eigenvalue GAMMA=   0.8893
  2.4048  0.8555  0.8555  0.7625  0.3182  0.1393

 Free energy of the ion-electron system (eV)
  ---------------------------------------------------
  alpha Z        PSCENC =       505.22967617
  Ewald energy   TEWEN  =     89676.90077849
  -Hartree energ DENC   =   -104513.37173985
  -exchange      EXHF   =         0.00000000
  -V(xc)+E(xc)   XCENC  =     -6572.10140205
  PAW double counting   =     22353.43998458   -14307.13675512
  entropy T*S    EENTRO =        -0.09578179
  eigenvalues    EBANDS =     -2096.05576144
  atomic energy  EATOM  =     14019.20197576
  Solvation  Ediel_sol  =         0.00000000
  ---------------------------------------------------
  free energy    TOTEN  =      -933.98902526 eV

  energy without entropy =     -933.89324346  energy(sigma->0) =     -933.94113436


--------------------------------------------------------------------------------------------------------




----------------------------------------- Iteration    1(  12)  ---------------------------------------


    POTLOK:  cpu time    0.7514: real time    0.7524
    SETDIJ:  cpu time    0.0897: real time    0.0898
     EDDAV:  cpu time   22.1240: real time   24.6951
       DOS:  cpu time    0.0024: real time    0.0024
    CHARGE:  cpu time    1.7173: real time    1.7496
    MIXING:  cpu time    0.0340: real time    0.0341
    --------------------------------------------
      LOOP:  cpu time   24.7206: real time   27.3261

 eigenvalue-minimisations  :  3864
 total energy-change (2. order) : 0.7889706E-01  (-0.1273424E+00)
 number of electron     765.9999984 magnetization 
 augmentation part      -10.1005173 magnetization 

 Broyden mixing:
  rms(total) = 0.77489E-01    rms(broyden)= 0.77182E-01
  rms(prec ) = 0.12187E+00
  weight for this iteration     100.00

 eigenvalues of (default mixing * dielectric matrix)
  average eigenvalue GAMMA=   0.9140
  2.3840  1.4521  0.7573  0.7573  0.1393  0.3201  0.5877

 Free energy of the ion-electron system (eV)
  ---------------------------------------------------
  alpha Z        PSCENC =       505.22967617
  Ewald energy   TEWEN  =     89676.90077849
  -Hartree energ DENC   =   -104538.12473458
  -exchange      EXHF   =         0.00000000
  -V(xc)+E(xc)   XCENC  =     -6571.21477359
  PAW double counting   =     22380.93178153   -14334.87115172
  entropy T*S    EENTRO =        -0.08974162
  eigenvalues    EBANDS =     -2071.87393862
  atomic energy  EATOM  =     14019.20197576
  Solvation  Ediel_sol  =         0.00000000
  ---------------------------------------------------
  free energy    TOTEN  =      -933.91012820 eV

  energy without entropy =     -933.82038657  energy(sigma->0) =     -933.86525738


--------------------------------------------------------------------------------------------------------




----------------------------------------- Iteration    1(  13)  ---------------------------------------


    POTLOK:  cpu time    0.7506: real time    0.7517
    SETDIJ:  cpu time    0.0890: real time    0.0891
     EDDAV:  cpu time   21.5096: real time   24.1409
       DOS:  cpu time    0.0016: real time    0.0016
    CHARGE:  cpu time    1.7303: real time    1.7627
    MIXING:  cpu time    0.0348: real time    0.0349
    --------------------------------------------
      LOOP:  cpu time   24.1176: real time   26.7839

 eigenvalue-minimisations  :  3756
 total energy-change (2. order) : 0.1714517E-01  (-0.4561480E-01)
 number of electron     765.9999984 magnetization 
 augmentation part      -10.1136983 magnetization 

 Broyden mixing:
  rms(total) = 0.88790E-01    rms(broyden)= 0.88667E-01
  rms(prec ) = 0.10927E+00
  weight for this iteration     100.00

 eigenvalues of (default mixing * dielectric matrix)
  average eigenvalue GAMMA=   0.9055
  2.3913  1.7578  0.7886  0.7886  0.1393  0.3192  0.5298  0.5298

 Free energy of the ion-electron system (eV)
  ---------------------------------------------------
  alpha Z        PSCENC =       505.22967617
  Ewald energy   TEWEN  =     89676.90077849
  -Hartree energ DENC   =   -104569.93957284
  -exchange      EXHF   =         0.00000000
  -V(xc)+E(xc)   XCENC  =     -6570.59002198
  PAW double counting   =     22412.75775560   -14366.88487431
  entropy T*S    EENTRO =        -0.09482298
  eigenvalues    EBANDS =     -2040.47387693
  atomic energy  EATOM  =     14019.20197576
  Solvation  Ediel_sol  =         0.00000000
  ---------------------------------------------------
  free energy    TOTEN  =      -933.89298303 eV

  energy without entropy =     -933.79816005  energy(sigma->0) =     -933.84557154


--------------------------------------------------------------------------------------------------------




----------------------------------------- Iteration    1(  14)  ---------------------------------------


    POTLOK:  cpu time    0.7557: real time    0.7564
    SETDIJ:  cpu time    0.0912: real time    0.0913
     EDDAV:  cpu time   22.4437: real time   25.0836
       DOS:  cpu time    0.0022: real time    0.0022
    CHARGE:  cpu time    1.7154: real time    1.7476
    MIXING:  cpu time    0.0373: real time    0.0374
    --------------------------------------------
      LOOP:  cpu time   25.0471: real time   27.7211

 eigenvalue-minimisations  :  3948
 total energy-change (2. order) : 0.3684079E-01  (-0.6466450E-02)
 number of electron     765.9999984 magnetization 
 augmentation part      -10.1115392 magnetization 

 Broyden mixing:
  rms(total) = 0.56846E-01    rms(broyden)= 0.56840E-01
  rms(prec ) = 0.70642E-01
  weight for this iteration     100.00

 eigenvalues of (default mixing * dielectric matrix)
  average eigenvalue GAMMA=   1.0203
  2.4722  2.4722  0.9223  0.9223  0.1393  0.7303  0.7303  0.3196  0.4740

 Free energy of the ion-electron system (eV)
  ---------------------------------------------------
  alpha Z        PSCENC =       505.22967617
  Ewald energy   TEWEN  =     89676.90077849
  -Hartree energ DENC   =   -104597.33120573
  -exchange      EXHF   =         0.00000000
  -V(xc)+E(xc)   XCENC  =     -6570.21257892
  PAW double counting   =     22433.74813130   -14387.98697925
  entropy T*S    EENTRO =        -0.09333356
  eigenvalues    EBANDS =     -2013.31260651
  atomic energy  EATOM  =     14019.20197576
  Solvation  Ediel_sol  =         0.00000000
  ---------------------------------------------------
  free energy    TOTEN  =      -933.85614224 eV

  energy without entropy =     -933.76280869  energy(sigma->0) =     -933.80947546


--------------------------------------------------------------------------------------------------------




----------------------------------------- Iteration    1(  15)  ---------------------------------------


    POTLOK:  cpu time    0.7590: real time    0.7597
    SETDIJ:  cpu time    0.0899: real time    0.0899
     EDDAV:  cpu time   22.1922: real time   24.7598
       DOS:  cpu time    0.0014: real time    0.0014
    CHARGE:  cpu time    1.7244: real time    1.7566
    MIXING:  cpu time    0.0383: real time    0.0383
    --------------------------------------------
      LOOP:  cpu time   24.8068: real time   27.4085

 eigenvalue-minimisations  :  3876
 total energy-change (2. order) : 0.1484753E-01  (-0.7857138E-02)
 number of electron     765.9999984 magnetization 
 augmentation part      -10.0984391 magnetization 

 Broyden mixing:
  rms(total) = 0.22698E-01    rms(broyden)= 0.22636E-01
  rms(prec ) = 0.34122E-01
  weight for this iteration     100.00

 eigenvalues of (default mixing * dielectric matrix)
  average eigenvalue GAMMA=   1.0267
  2.5544  2.5544  0.9389  0.9389  0.1393  0.8306  0.8306  0.3195  0.6896  0.4706

 Free energy of the ion-electron system (eV)
  ---------------------------------------------------
  alpha Z        PSCENC =       505.22967617
  Ewald energy   TEWEN  =     89676.90077849
  -Hartree energ DENC   =   -104634.32937751
  -exchange      EXHF   =         0.00000000
  -V(xc)+E(xc)   XCENC  =     -6569.82969810
  PAW double counting   =     22429.63201414   -14383.95985206
  entropy T*S    EENTRO =        -0.09403760
  eigenvalues    EBANDS =     -1976.59277401
  atomic energy  EATOM  =     14019.20197576
  Solvation  Ediel_sol  =         0.00000000
  ---------------------------------------------------
  free energy    TOTEN  =      -933.84129471 eV

  energy without entropy =     -933.74725711  energy(sigma->0) =     -933.79427591


--------------------------------------------------------------------------------------------------------




----------------------------------------- Iteration    1(  16)  ---------------------------------------


    POTLOK:  cpu time    0.7577: real time    0.7587
    SETDIJ:  cpu time    0.0890: real time    0.0890
     EDDAV:  cpu time   22.7105: real time   25.5206
       DOS:  cpu time    0.0037: real time    0.0037
    CHARGE:  cpu time    1.7302: real time    1.7618
    MIXING:  cpu time    0.0405: real time    0.0405
    --------------------------------------------
      LOOP:  cpu time   25.3333: real time   28.1771

 eigenvalue-minimisations  :  4044
 total energy-change (2. order) :-0.8307948E-03  (-0.1422309E-02)
 number of electron     765.9999984 magnetization 
 augmentation part      -10.0960239 magnetization 

 Broyden mixing:
  rms(total) = 0.20347E-01    rms(broyden)= 0.20335E-01
  rms(prec ) = 0.27526E-01
  weight for this iteration     100.00

 eigenvalues of (default mixing * dielectric matrix)
  average eigenvalue GAMMA=   1.0808
  2.8541  2.7196  1.2755  0.9388  0.9388  0.1393  0.3196  0.8310  0.7016  0.7016
  0.4694

 Free energy of the ion-electron system (eV)
  ---------------------------------------------------
  alpha Z        PSCENC =       505.22967617
  Ewald energy   TEWEN  =     89676.90077849
  -Hartree energ DENC   =   -104655.83060066
  -exchange      EXHF   =         0.00000000
  -V(xc)+E(xc)   XCENC  =     -6569.60052134
  PAW double counting   =     22429.38371746   -14383.72260441
  entropy T*S    EENTRO =        -0.09369412
  eigenvalues    EBANDS =     -1955.31085285
  atomic energy  EATOM  =     14019.20197576
  Solvation  Ediel_sol  =         0.00000000
  ---------------------------------------------------
  free energy    TOTEN  =      -933.84212551 eV

  energy without entropy =     -933.74843138  energy(sigma->0) =     -933.79527844


--------------------------------------------------------------------------------------------------------




----------------------------------------- Iteration    1(  17)  ---------------------------------------


    POTLOK:  cpu time    0.7610: real time    0.7615
    SETDIJ:  cpu time    0.0895: real time    0.0895
     EDDAV:  cpu time   20.5651: real time   23.0595
       DOS:  cpu time    0.0112: real time    0.0114
    CHARGE:  cpu time    1.7216: real time    1.7533
[...]
     11.69112     -8.59029     -8.26601        -0.022681      0.000265      0.031285
     11.69112    -17.18057    -13.22561        -0.014517     -0.010559     -0.011591
     11.69112    -11.45372     -3.30640        -0.011469     -0.020877      0.012201
     11.69112    -14.31714     -8.26601         0.009144     -0.008574      0.003814
     13.99306      0.00000      0.00000         0.003819     -0.013777     -0.027111
     13.99306     -2.86343     -4.95960         0.025284     -0.005319     -0.001681
     13.99306     -5.72686     -9.91921         0.012317     -0.020317      0.003808
     13.99306     -5.72686      0.00000         0.014626      0.006699     -0.002742
     13.99306     -8.59029     -4.95960        -0.100829      0.054445      0.021718
     13.99306    -11.45372     -9.91921         0.002718      0.020647      0.036212
     13.99306    -11.45372      0.00000        -0.010034     -0.001382      0.030753
     13.99306    -14.31714     -4.95960         0.006456      0.015906     -0.002180
     13.99306    -17.18057     -9.91921         0.006291     -0.011852     -0.017962
     16.34180     -2.86343     -1.65320        -0.023351      0.000947     -0.016199
     16.34180     -5.72686     -6.61281         0.055273     -0.121577      0.001742
     16.34180     -8.59029    -11.57241         0.037494     -0.013593      0.000781
     16.34180     -8.59029     -1.65320         0.002308     -0.013726     -0.015591
     16.34180    -11.45372     -6.61281        -1.384189     -3.617431      0.166734
     16.34180    -14.31714    -11.57241        -0.004239      0.007029      0.009814
     16.34180    -14.31714     -1.65320        -0.007563      0.009940     -0.021560
     16.34180    -17.18057     -6.61281        -0.010169      0.015417     -0.001986
     16.34180    -20.04400    -11.57241        -0.018379     -0.017380      0.017414
      2.36204     -7.15857     -4.13300        -0.006246      0.005601     -0.003845
      2.36204    -10.02200     -9.09261        -0.016335      0.000000      0.005763
      2.36204    -12.88543    -14.05221         0.017206      0.002656      0.003751
      2.36204    -12.88543     -4.13300        -0.006246     -0.005601     -0.003845
      2.36204    -15.74886     -9.09261         0.019579     -0.002529      0.021706
      2.36204    -18.61229    -14.05221         0.014508      0.000000     -0.010245
      2.36204    -18.61229     -4.13300         0.000415      0.000000     -0.008148
      2.36204    -21.47572     -9.09261         0.019579      0.002529      0.021706
      2.36204    -24.33915    -14.05221         0.017206     -0.002656      0.003751
      4.71078    -10.02200     -5.78621        -0.008099      0.000000     -0.006432
      4.71078    -12.88543    -10.74581        -0.021660      0.004863     -0.002213
      4.71078     -7.15857     -0.82660        -0.022861     -0.004103     -0.000078
      4.71078    -15.74886     -5.78621        -0.014090     -0.001625      0.012116
      4.71078    -18.61229    -10.74581        -0.006691      0.000000     -0.001593
      4.71078    -12.88543     -0.82660        -0.022861      0.004103     -0.000078
      4.71078     -4.29514     -5.78621        -0.014090      0.001625      0.012116
      4.71078     -7.15857    -10.74581        -0.021660     -0.004863     -0.002213
      4.71078     -1.43171     -0.82660        -0.007909      0.000000     -0.008976
      7.01272    -12.88543     -7.43941        -0.005858      0.027775      0.009695
      7.01272    -15.74886    -12.39901         0.004236     -0.016270      0.009079
      7.01272    -10.02200     -2.47980         0.018996      0.000000      0.010133
      7.01272    -18.61229     -7.43941         0.023275      0.000000     -0.022828
      7.01272    -21.47572    -12.39901         0.004236      0.016270      0.009079
      7.01272    -15.74886     -2.47980         0.008254     -0.018441      0.005589
      7.01272     -7.15857     -7.43941        -0.005858     -0.027775      0.009695
      7.01272    -10.02200    -12.39901         0.001236      0.000000      0.006218
      7.01272     -4.29514     -2.47980         0.008254      0.018441      0.005589
      9.35192    -15.74886     -9.09261        -0.031769     -0.002618     -0.014104
      9.35192    -18.61229    -14.05221         0.006997      0.000000      0.034863
      9.35192    -12.88543     -4.13300         0.005396     -0.001888      0.002962
      9.35192    -21.47572     -9.09261        -0.031769      0.002618     -0.014104
      9.35192    -24.33915    -14.05221        -0.006443      0.000019     -0.024427
      9.35192    -18.61229     -4.13300         0.015726      0.000000     -0.022258
      9.35192    -10.02200     -9.09261         0.011570      0.000000      0.011209
      9.35192    -12.88543    -14.05221        -0.006443     -0.000019     -0.024427
      9.35192     -7.15857     -4.13300         0.005396      0.001888      0.002962
     11.69112    -18.61229    -10.74581         0.016836      0.000000      0.007202
     11.69112    -12.88543     -0.82660        -0.017659      0.013986     -0.019479
     11.69112    -15.74886     -5.78621        -0.003221      0.010645     -0.006035
     11.69112     -7.15857    -10.74581         0.006615     -0.004179     -0.003426
     11.69112     -1.43171     -0.82660        -0.003997      0.000000     -0.016430
     11.69112     -4.29514     -5.78621        -0.003221     -0.010645     -0.006035
     11.69112    -12.88543    -10.74581         0.006615      0.004179     -0.003426
     11.69112     -7.15857     -0.82660        -0.017659     -0.013986     -0.019479
     11.69112    -10.02200     -5.78621        -0.066726      0.000000     -0.024581
     13.99306    -21.47572    -12.39901         0.015142     -0.005665      0.015887
     13.99306    -15.74886     -2.47980        -0.004132     -0.034392      0.018613
     13.99306    -18.61229     -7.43941         0.005705      0.000000      0.006326
     13.99306    -10.02200    -12.39901         0.010674      0.000000      0.027734
     13.99306     -4.29514     -2.47980        -0.004132      0.034392      0.018613
     13.99306     -7.15857     -7.43941         0.008105     -0.038215     -0.042656
     13.99306    -15.74886    -12.39901         0.015142      0.005665      0.015887
     13.99306    -10.02200     -2.47980        -0.021019      0.000000     -0.014144
     13.99306    -12.88543     -7.43941         0.008105      0.038215     -0.042656
     16.34180    -24.33915    -14.05221        -0.005847     -0.015651      0.002337
     16.34180    -18.61229     -4.13300        -0.020121      0.000000      0.027476
     16.34180    -21.47572     -9.09261         0.012145      0.004368      0.019354
     16.34180    -12.88543    -14.05221        -0.005847      0.015651      0.002337
     16.34180     -7.15857     -4.13300        -0.142975      0.247373      0.148236
     16.34180    -10.02200     -9.09261        -0.483434     -0.000000     -1.872496
     16.34180    -18.61229    -14.05221        -0.010473      0.000000      0.005931
     16.34180    -12.88543     -4.13300        -0.142975     -0.247373      0.148236
     16.34180    -15.74886     -9.09261         0.012145     -0.004368      0.019354
      2.36204     -8.59029     -6.61281         0.003089     -0.025301      0.002144
      2.36204    -11.45372    -11.57241         0.013558      0.008728      0.000165
      2.36204     -5.72686     -1.65320         0.019017      0.004713     -0.002550
      2.36204    -14.31714     -6.61281         0.017239     -0.001619      0.006323
      2.36204    -17.18057    -11.57241         0.016194      0.009594     -0.002672
      2.36204    -11.45372     -1.65320         0.023342     -0.007450      0.001637
      2.36204    -20.04400     -6.61281         0.007543      0.006031     -0.007927
      2.36204    -22.90743    -11.57241         0.030268      0.006829     -0.004388
      2.36204    -17.18057     -1.65320         0.005615     -0.000795      0.000266
      4.71078    -11.45372     -8.26601         0.004961      0.010447      0.013519
      4.71078    -14.31714    -13.22561        -0.018084      0.001551     -0.006047
      4.71078     -8.59029     -3.30640         0.001444      0.009378     -0.006008
      4.71078    -17.18057     -8.26601        -0.019714      0.004484     -0.009175
      4.71078    -20.04400    -13.22561        -0.001470     -0.003896      0.007960
      4.71078    -14.31714     -3.30640        -0.018066     -0.002775     -0.001778
      4.71078     -5.72686     -8.26601        -0.010919      0.005638     -0.001621
      4.71078     -8.59029    -13.22561        -0.010529      0.004788     -0.006177
      4.71078     -2.86343     -3.30640         0.002577     -0.000481      0.003650
      7.01272    -14.31714     -9.91921         0.026874     -0.003051      0.003097
      7.01272     -8.59029      0.00000         0.020261      0.005247     -0.007867
      7.01272    -11.45372     -4.95960        -0.014553      0.001135     -0.019902
      7.01272    -20.04400     -9.91921         0.033324      0.005101     -0.002605
      7.01272    -14.31714      0.00000         0.026369      0.000382     -0.004610
      7.01272    -17.18057     -4.95960         0.018637      0.000642      0.010251
      7.01272     -8.59029     -9.91921         0.002314     -0.002514      0.009337
      7.01272     -2.86343      0.00000         0.017928      0.003170     -0.008045
      7.01272     -5.72686     -4.95960         0.010489     -0.006847     -0.004277
      9.35192    -17.18057    -11.57241         0.000243     -0.003393      0.001867
      9.35192    -11.45372     -1.65320         0.003428      0.019813     -0.012726
      9.35192    -14.31714     -6.61281        -0.007736      0.005600      0.002899
      9.35192    -22.90743    -11.57241        -0.019619      0.005966     -0.000599
      9.35192    -17.18057     -1.65320         0.012088      0.008798      0.008763
      9.35192    -20.04400     -6.61281        -0.013465      0.010357      0.016496
      9.35192    -11.45372    -11.57241         0.014397      0.005291      0.025015
      9.35192     -5.72686     -1.65320        -0.004187      0.017838      0.009966
      9.35192     -8.59029     -6.61281         0.035793     -0.030942     -0.000314
     11.69112    -20.04400    -13.22561        -0.014517      0.010559     -0.011591
     11.69112    -14.31714     -3.30640        -0.012761      0.009450      0.001526
     11.69112    -17.18057     -8.26601         0.004415      0.014677      0.019457
     11.69112     -8.59029    -13.22561        -0.012822     -0.003384      0.001720
     11.69112     -2.86343     -3.30640        -0.017030      0.004650     -0.003660
     11.69112     -5.72686     -8.26601         0.009144      0.008574      0.003814
     11.69112    -14.31714    -13.22561        -0.006170      0.011551     -0.000072
     11.69112     -8.59029     -3.30640        -0.011469      0.020877      0.012201
     11.69112    -11.45372     -8.26601        -0.022681     -0.000265      0.031285
     13.99306    -14.31714      0.00000         0.014626     -0.006699     -0.002742
     13.99306    -17.18057     -4.95960         0.025284      0.005319     -0.001681
     13.99306    -20.04400     -9.91921         0.006291      0.011852     -0.017962
     13.99306     -2.86343      0.00000         0.003819      0.013777     -0.027111
     13.99306     -5.72686     -4.95960         0.006456     -0.015906     -0.002180
     13.99306     -8.59029     -9.91921         0.002718     -0.020647      0.036212
     13.99306     -8.59029      0.00000        -0.010034      0.001382      0.030753
     13.99306    -11.45372     -4.95960        -0.100829     -0.054445      0.021718
     13.99306    -14.31714     -9.91921         0.012317      0.020317      0.003808
     16.34180    -17.18057     -1.65320        -0.023351     -0.000947     -0.016199
     16.34180    -20.04400     -6.61281        -0.010169     -0.015417     -0.001986
     16.34180    -22.90743    -11.57241        -0.004239     -0.007029      0.009814
     16.34180     -5.72686     -1.65320        -0.007563     -0.009940     -0.021560
     16.34180     -8.59029     -6.61281        -1.384189      3.617431      0.166734
     16.34180    -11.45372    -11.57241         0.037494      0.013593      0.000781
     16.34180    -11.45372     -1.65320         0.002308      0.013726     -0.015591
     16.34180    -14.31714     -6.61281         0.055273      0.121577      0.001742
     16.34180    -17.18057    -11.57241        -0.018379      0.017380      0.017414
      2.36204    -10.02200     -4.13300         0.009128      0.000000     -0.025662
      2.36204    -12.88543     -9.09261         0.003471      0.008320     -0.001792
      2.36204    -15.74886    -14.05221         0.008262     -0.004851     -0.002450
      2.36204    -15.74886     -4.13300         0.007085      0.007160     -0.008213
      2.36204    -18.61229     -9.09261        -0.003926      0.000000      0.018229
      2.36204    -21.47572    -14.05221         0.008262      0.004851     -0.002450
      2.36204     -4.29514     -4.13300         0.007085     -0.007160     -0.008213
      2.36204     -7.15857     -9.09261         0.003471     -0.008320     -0.001792
      2.36204    -10.02200    -14.05221        -0.000950      0.000000      0.002523
      4.71078    -12.88543     -5.78621         0.005898      0.017851     -0.005056
      4.71078    -15.74886    -10.74581        -0.019270      0.001122     -0.000224
      4.71078    -10.02200     -0.82660        -0.018118      0.000000      0.000265
      4.71078    -18.61229     -5.78621        -0.025359      0.000000      0.014302
      4.71078    -21.47572    -10.74581        -0.019270     -0.001122     -0.000224
      4.71078    -15.74886     -0.82660        -0.018112     -0.001705     -0.003625
      4.71078     -7.15857     -5.78621         0.005898     -0.017851     -0.005056
      4.71078    -10.02200    -10.74581        -0.000758      0.000000      0.008394
      4.71078     -4.29514     -0.82660        -0.018112      0.001705     -0.003625
      7.01272    -15.74886     -7.43941         0.038304     -0.004058     -0.015805
      7.01272    -18.61229    -12.39901         0.010333      0.000000      0.024925
      7.01272    -12.88543     -2.47980         0.012087      0.021067      0.001121
      7.01272    -21.47571     -7.43941         0.038304      0.004058     -0.015805
      7.01272    -24.33914    -12.39901         0.022114     -0.003879     -0.004729
      7.01272    -18.61228     -2.47980         0.000947      0.000000      0.019668
      7.01272    -10.02200     -7.43941         0.006356      0.000000      0.015981
      7.01272    -12.88543    -12.39901         0.022114      0.003879     -0.004729
      7.01272     -7.15857     -2.47980         0.012087     -0.021067      0.001121
      9.35192    -18.61229     -9.09261        -0.008374      0.000000     -0.012039
      9.35192    -21.47572    -14.05221        -0.001897      0.007488      0.004964
      9.35192    -15.74886     -4.13300        -0.004179     -0.009608      0.007054
      9.35192     -7.15857     -9.09261        -0.004865     -0.005449     -0.005777
      9.35192    -10.02200    -14.05221         0.008290      0.000000     -0.039172
      9.35192     -4.29514     -4.13300        -0.004179      0.009608      0.007054
      9.35192    -12.88543     -9.09261        -0.004865      0.005449     -0.005777
      9.35192    -15.74886    -14.05221        -0.001897     -0.007488      0.004964
      9.35192    -10.02200     -4.13300        -0.001371      0.000000     -0.011433
     11.69112    -21.47572    -10.74581        -0.012457      0.004273      0.000131
     11.69112    -15.74886     -0.82660        -0.026605     -0.014033     -0.016699
     11.69112    -18.61229     -5.78621        -0.029905      0.000000      0.010575
     11.69112    -10.02200    -10.74581        -0.004730      0.000000     -0.010033
     11.69112     -4.29514     -0.82660        -0.026605      0.014033     -0.016699
     11.69112     -7.15857     -5.78621         0.004106     -0.028849     -0.003762
     11.69112    -15.74886    -10.74581        -0.012457     -0.004273      0.000131
     11.69112    -10.02200     -0.82660        -0.013745      0.000000     -0.020460
     11.69112    -12.88543     -5.78621         0.004106      0.028849     -0.003762
     13.99306    -24.33914    -12.39901         0.006304     -0.002870      0.013287
     13.99306    -18.61228     -2.47980        -0.012751      0.000000      0.003236
     13.99306    -21.47571     -7.43941        -0.015549      0.027472     -0.011527
     13.99306    -12.88543    -12.39901         0.006304      0.002870      0.013287
     13.99306     -7.15857     -2.47980        -0.004071      0.009685      0.004494
     13.99306    -10.02200     -7.43941        -0.671417      0.000000     -0.055819
     13.99306    -18.61229    -12.39901        -0.019997      0.000000      0.010185
     13.99306    -12.88543     -2.47980        -0.004071     -0.009685      0.004494
     13.99306    -15.74886     -7.43941        -0.015549     -0.027472     -0.011527
     16.34180    -10.02200    -14.05221        -0.004692      0.000000     -0.023461
     16.34180     -4.29514     -4.13300         0.000813      0.011322     -0.004153
     16.34180     -7.15857     -9.09261        -0.112005      0.351773     -0.194720
     16.34180    -15.74886    -14.05221        -0.009870     -0.017652     -0.005923
     16.34180    -10.02200     -4.13300        -0.515313     -0.000000      1.689647
     16.34180    -12.88543     -9.09261        -0.112005     -0.351773     -0.194720
     16.34180    -21.47572    -14.05221        -0.009870      0.017652     -0.005923
     16.34180    -15.74886     -4.13300         0.000813     -0.011322     -0.004153
     16.34180    -18.61229     -9.09261        -0.020017      0.000000     -0.009313
     17.04000    -10.02200     -7.43941         2.409689      0.000000     -0.849085
     17.04000    -10.02200     -5.78620         2.533400     -0.000000      0.803088
 -----------------------------------------------------------------------------------
    total drift:                                0.257410      0.001524     -0.000485


--------------------------------------------------------------------------------------------------------



  FREE ENERGIE OF THE ION-ELECTRON SYSTEM (eV)
  ---------------------------------------------------
  free  energy   TOTEN  =      -933.86635074 eV

  energy  without entropy=     -933.77265844  energy(sigma->0) =     -933.81950459
 


--------------------------------------------------------------------------------------------------------


    POTLOK:  cpu time    0.8672: real time    0.8680


--------------------------------------------------------------------------------------------------------


     LOOP+:  cpu time  774.9303: real time  859.6053
    4ORBIT:  cpu time    0.0000: real time    0.0000

 total amount of memory used by VASP MPI-rank0   652154. kBytes
=======================================================================

   base      :      30000. kBytes
   nonlr-proj:      89933. kBytes
   fftplans  :      40601. kBytes
   grid      :      95147. kBytes
   one-center:       3950. kBytes
   wavefun   :     392523. kBytes
 
  
  
 General timing and accounting informations for this job:
 ========================================================
  
                  Total CPU time used (sec):      790.773
                            User time (sec):      151.401
                          System time (sec):      639.373
                         Elapsed time (sec):      878.600
  
                   Maximum memory used (kb):     1006564.
                   Average memory used (kb):           0.
  
                          Minor page faults:     29353938
                          Major page faults:           64
                 Voluntary context switches:        20344
