LAMMPS (24 Mar 2022)
OMP_NUM_THREADS environment is not set. Defaulting to 1 thread. (src/comm.cpp:98)
  using 1 OpenMP thread(s) per MPI task
Reading data file ...
  triclinic box = (0 0 0) to (17.180573 14.878813 30) with tilt (8.5902867 0 0)
  1 by 1 by 1 MPI processor grid
  reading atoms ...
  252 atoms
  read_data CPU = 0.001 seconds
WARNING: Using 'neigh_modify every 1 delay 0 check yes' setting during minimization (src/min.cpp:187)
Neighbor list info ...
  update every 1 steps, delay 0 steps, check yes
  max neighbors/atom: 2000, page size: 100000
  master list distance cutoff = 8.28721
  ghost atom cutoff = 8.28721
  binsize = 4.143605, bins = 7 4 8
  1 neighbor lists, perpetual/occasional/extra = 1 0 0
  (1) pair eam/alloy, perpetual
      attributes: half, newton on
      pair build: half/bin/newton/tri
      stencil: half/bin/3d/tri
      bin: standard
Setting up cg style minimization ...
  Unit style    : metal
  Current step  : 0
Per MPI rank memory allocation (min/avg/max) = 4.505 | 4.505 | 4.505 Mbytes
   Step          Temp          E_pair         E_mol          TotEng         Press     
         0   0             -818.30227      0             -818.30227     -2859.6198    
Loop time of 3.063e-06 on 1 procs for 0 steps with 252 atoms

130.6% CPU use with 1 MPI tasks x 1 OpenMP threads

Minimization stats:
  Stopping criterion = max iterations
  Energy initial, next-to-last, final = 
     -818.302271895155                  0  -818.302271895155
  Force two-norm initial, final = 1.9896402 1.9896402
  Force max component initial, final = 1.193843 1.193843
  Final line search alpha, max atom move = 0 0
  Iterations, force evaluations = 0 0

MPI task timing breakdown:
Section |  min time  |  avg time  |  max time  |%varavg| %total
---------------------------------------------------------------
Pair    | 0          | 0          | 0          |   0.0 |  0.00
Neigh   | 0          | 0          | 0          |   0.0 |  0.00
Comm    | 0          | 0          | 0          |   0.0 |  0.00
Output  | 0          | 0          | 0          |   0.0 |  0.00
Modify  | 0          | 0          | 0          |   0.0 |  0.00
Other   |            | 3.063e-06  |            |       |100.00

Nlocal:            252 ave         252 max         252 min
Histogram: 1 0 0 0 0 0 0 0 0 0
Nghost:           1433 ave        1433 max        1433 min
Histogram: 1 0 0 0 0 0 0 0 0 0
Neighs:          14402 ave       14402 max       14402 min
Histogram: 1 0 0 0 0 0 0 0 0 0

Total # of neighbors = 14402
Ave neighs/atom = 57.150794
Neighbor list builds = 0
Dangerous builds = 0
Setting up Verlet run ...
  Unit style    : metal
  Current step  : 0
  Time step     : 0.01
Per MPI rank memory allocation (min/avg/max) = 4.39 | 4.39 | 4.39 Mbytes
   Step          Temp          E_pair         E_mol          TotEng         Press     
         0   300           -818.30227      0             -808.56898     -1503.9575    
       100   166.40635     -813.76513      0             -808.3662      -1415.4989    
       200   166.90462     -813.78775      0             -808.37265     -2173.2194    
       300   163.28678     -813.67947      0             -808.38175     -3479.362     
       400   169.41867     -813.87246      0             -808.37579     -5432.4392    
       500   151.87616     -813.28391      0             -808.3564      -6194.3614    
       600   145.81619     -813.08407      0             -808.35316     -5601.0635    
       700   151.68234     -813.28602      0             -808.36479     -4910.5754    
       800   153.97049     -813.35663      0             -808.36117     -3790.6073    
       900   155.29156     -813.40273      0             -808.3644      -2685.4707    
      1000   169.61927     -813.88468      0             -808.38151     -1431.5897    
      1100   159.73058     -813.53996      0             -808.35761     -607.49759    
      1200   167.53016     -813.79929      0             -808.36389     -1008.6589    
      1300   166.37584     -813.76912      0             -808.37117     -2296.4704    
      1400   157.74974     -813.47977      0             -808.36169     -3599.4772    
      1500   157.1638      -813.46017      0             -808.3611      -4991.1344    
      1600   161.132       -813.59152      0             -808.36371     -5879.4072    
      1700   169.11103     -813.87008      0             -808.38339     -5712.2591    
      1800   153.75112     -813.34358      0             -808.35523     -4306.4148    
      1900   161.74591     -813.61484      0             -808.36711     -2920.8315    
      2000   152.4722      -813.29355      0             -808.3467      -1873.5964    
      2100   164.13387     -813.69772      0             -808.37251     -694.43343    
      2200   156.28739     -813.42832      0             -808.35769     -441.44321    
      2300   154.43447     -813.36581      0             -808.35529     -1282.7807    
      2400   152.73358     -813.30485      0             -808.34952     -2594.2633    
      2500   155.68217     -813.39698      0             -808.34598     -3701.6682    
      2600   158.51414     -813.50172      0             -808.35884     -4609.4009    
      2700   154.0479      -813.35501      0             -808.35704     -5278.9804    
      2800   168.37719     -813.82928      0             -808.3664      -5378.3582    
      2900   160.66381     -813.56993      0             -808.35731     -4383.0232    
      3000   158.45296     -813.49423      0             -808.35333     -3159.7979    
      3100   160.09107     -813.53488      0             -808.34083     -2184.5553    
      3200   157.47747     -813.45243      0             -808.34318     -1083.2691    
      3300   167.74241     -813.80721      0             -808.36493     -837.31699    
      3400   163.44426     -813.66037      0             -808.35753     -993.2754     
      3500   153.88998     -813.33992      0             -808.34707     -1713.3363    
      3600   168.4898      -813.82854      0             -808.36201     -2847.9562    
      3700   167.07807     -813.77082      0             -808.35009     -3737.6456    
      3800   155.45673     -813.37834      0             -808.33465     -4344.5865    
      3900   163.4119      -813.65863      0             -808.35684     -4579.5614    
      4000   155.1204      -813.36974      0             -808.33696     -4109.1457    
      4100   163.55618     -813.65426      0             -808.34779     -3889.3153    
      4200   155.92045     -813.40002      0             -808.34129     -4107.2205    
      4300   167.0821      -813.7762       0             -808.35534     -3188.2412    
      4400   157.71842     -813.45444      0             -808.33738     -2275.7642    
      4500   169.1415      -813.84015      0             -808.35247     -1749.7384    
      4600   148.80083     -813.15698      0             -808.32924     -1415.5203    
      4700   163.96065     -813.66254      0             -808.34296     -1550.9623    
      4800   151.09105     -813.24655      0             -808.34451     -1930.6226    
      4900   160.56278     -813.5612       0             -808.35185     -2769.8502    
      5000   158.56748     -813.49305      0             -808.34844     -3543.9867    
      5100   157.93006     -813.47079      0             -808.34686     -4278.2784    
      5200   160.04343     -813.53548      0             -808.34298     -4882.8193    
      5300   157.11355     -813.43444      0             -808.337       -4564.5646    
      5400   162.58824     -813.62034      0             -808.34528     -4509.529     
      5500   158.76286     -813.49227      0             -808.34132     -4023.4533    
      5600   169.71219     -813.87561      0             -808.36941     -3872.9805    
      5700   159.10783     -813.50399      0             -808.34185     -2535.6991    
      5800   168.71312     -813.83227      0             -808.35849     -1968.8214    
      5900   160.2064      -813.52577      0             -808.32798     -1216.1272    
      6000   155.79302     -813.39008      0             -808.33549     -540.88975    
      6100   167.303       -813.78226      0             -808.35423     -962.93955    
      6200   152.71869     -813.27809      0             -808.32324     -1773.0836    
      6300   165.53328     -813.7226       0             -808.35199     -2793.3363    
      6400   166.47913     -813.75956      0             -808.35826     -3241.9332    
      6500   157.89495     -813.45555      0             -808.33276     -3486.7491    
      6600   159.94069     -813.53238      0             -808.34321     -4262.8256    
      6700   145.16123     -813.02806      0             -808.3184      -3618.6133    
      6800   166.02503     -813.7388       0             -808.35224     -2714.4716    
      6900   163.90436     -813.67584      0             -808.35808     -2529.1307    
      7000   156.88436     -813.42678      0             -808.33677     -1941.5556    
      7100   162.48705     -813.62531      0             -808.35353     -2366.9295    
      7200   163.97629     -813.67835      0             -808.35825     -2794.0065    
      7300   162.63925     -813.62463      0             -808.34791     -3088.7812    
      7400   161.02736     -813.56642      0             -808.342       -3130.7311    
      7500   161.88907     -813.59909      0             -808.34671     -3799.7455    
      7600   164.47925     -813.68333      0             -808.34691     -4702.4997    
      7700   157.70904     -813.46563      0             -808.34888     -4652.9045    
      7800   151.88773     -813.2645       0             -808.33661     -4618.4604    
      7900   163.86203     -813.66983      0             -808.35344     -3840.6452    
      8000   159.96154     -813.5334       0             -808.34356     -3027.542     
      8100   158.0633      -813.47666      0             -808.3484      -2218.7309    
      8200   173.17326     -813.98388      0             -808.3654      -1867.1332    
      8300   159.11004     -813.5122       0             -808.34999     -1537.4052    
      8400   163.49283     -813.66673      0             -808.36232     -1517.8466    
      8500   166.59568     -813.756        0             -808.35092     -2135.248     
      8600   167.06183     -813.78118      0             -808.36098     -2486.8897    
      8700   161.8108      -813.60684      0             -808.357       -3648.2957    
      8800   167.37578     -813.7941       0             -808.36372     -4258.6449    
      8900   159.35483     -813.51619      0             -808.34603     -4531.1507    
      9000   152.99634     -813.29971      0             -808.33585     -4207.7682    
      9100   156.10114     -813.41349      0             -808.3489      -3679.8838    
      9200   172.63965     -813.97637      0             -808.3752      -3211.8024    
      9300   154.27322     -813.35081      0             -808.34552     -2753.4547    
      9400   160.74919     -813.56278      0             -808.34739     -2325.9305    
      9500   156.01464     -813.40887      0             -808.34709     -2211.662     
      9600   157.8224      -813.471        0             -808.35056     -2357.1836    
      9700   166.0487      -813.74717      0             -808.35983     -3341.8452    
      9800   155.1293      -813.38057      0             -808.34751     -2951.119     
      9900   166.27521     -813.75543      0             -808.36075     -3468.798     
     10000   158.34822     -813.48071      0             -808.34322     -3723.9581    
Loop time of 4.6907 on 1 procs for 10000 steps with 252 atoms

Performance: 1841.941 ns/day, 0.013 hours/ns, 2131.876 timesteps/s
99.9% CPU use with 1 MPI tasks x 1 OpenMP threads

MPI task timing breakdown:
Section |  min time  |  avg time  |  max time  |%varavg| %total
---------------------------------------------------------------
Pair    | 4.4174     | 4.4174     | 4.4174     |   0.0 | 94.17
Neigh   | 0          | 0          | 0          |   0.0 |  0.00
Comm    | 0.05707    | 0.05707    | 0.05707    |   0.0 |  1.22
Output  | 0.17676    | 0.17676    | 0.17676    |   0.0 |  3.77
Modify  | 0.021729   | 0.021729   | 0.021729   |   0.0 |  0.46
Other   |            | 0.0177     |            |       |  0.38

Nlocal:            252 ave         252 max         252 min
Histogram: 1 0 0 0 0 0 0 0 0 0
Nghost:           1433 ave        1433 max        1433 min
Histogram: 1 0 0 0 0 0 0 0 0 0
Neighs:          14402 ave       14402 max       14402 min
Histogram: 1 0 0 0 0 0 0 0 0 0

Total # of neighbors = 14402
Ave neighs/atom = 57.150794
Neighbor list builds = 0
Dangerous builds = 0
System init for write_restart ...
Total wall time: 0:00:04
