 254 254   0   0
  0.3019211E+02  0.1718057E-08  0.1718057E-08  0.3000000E-08  0.5000000E-15
  1.000000000000000E-004
  CAR 
 NiAl                                    
      5.14451611    -16.88214941  301      1.78664697      1.00000000
    -16.882  0.0000E+00  0.0000E+00
    -16.809  0.0000E+00  0.0000E+00
    -16.735  0.0000E+00  0.0000E+00
    -16.662  0.0000E+00  0.0000E+00
    -16.588  0.0000E+00  0.0000E+00
    -16.515  0.0000E+00  0.0000E+00
    -16.442  0.0000E+00  0.0000E+00
    -16.368  0.0000E+00  0.0000E+00
    -16.295  0.0000E+00  0.0000E+00
    -16.221  0.0000E+00  0.0000E+00
    -16.148  0.5829E-12  0.4280E-13
    -16.075  0.5942E-06  0.4363E-07
    -16.001  0.9217E-02  0.6768E-03
    -15.928  0.2526E+01  0.1861E+00
    -15.854  0.1857E+02  0.1549E+01
    -15.781  0.6073E+01  0.1995E+01
    -15.707  0.6313E-01  0.2000E+01
    -15.634  0.1253E-04  0.2000E+01
    -15.561  0.3889E-10  0.2000E+01
    -15.487  0.0000E+00  0.2000E+01
    -15.414  0.0000E+00  0.2000E+01
    -15.340  0.0000E+00  0.2000E+01
    -15.267  0.0000E+00  0.2000E+01
    -15.193  0.0000E+00  0.2000E+01
    -15.120  0.0000E+00  0.2000E+01
    -15.047  0.0000E+00  0.2000E+01
    -14.973  0.0000E+00  0.2000E+01
    -14.900  0.0000E+00  0.2000E+01
    -14.826  0.0000E+00  0.2000E+01
    -14.753  0.0000E+00  0.2000E+01
    -14.679  0.0000E+00  0.2000E+01
    -14.606  0.0000E+00  0.2000E+01
    -14.533  0.0000E+00  0.2000E+01
    -14.459  0.0000E+00  0.2000E+01
    -14.386  0.0000E+00  0.2000E+01
    -14.312  0.0000E+00  0.2000E+01
    -14.239  0.0000E+00  0.2000E+01
    -14.166  0.0000E+00  0.2000E+01
    -14.092  0.0000E+00  0.2000E+01
    -14.019  0.0000E+00  0.2000E+01
    -13.945  0.0000E+00  0.2000E+01
    -13.872  0.0000E+00  0.2000E+01
    -13.798  0.0000E+00  0.2000E+01
    -13.725  0.0000E+00  0.2000E+01
    -13.652  0.0000E+00  0.2000E+01
    -13.578  0.0000E+00  0.2000E+01
    -13.505  0.0000E+00  0.2000E+01
    -13.431  0.0000E+00  0.2000E+01
    -13.358  0.0000E+00  0.2000E+01
    -13.284  0.0000E+00  0.2000E+01
    -13.211  0.0000E+00  0.2000E+01
    -13.138  0.0000E+00  0.2000E+01
    -13.064  0.0000E+00  0.2000E+01
    -12.991  0.0000E+00  0.2000E+01
    -12.917  0.0000E+00  0.2000E+01
    -12.844  0.0000E+00  0.2000E+01
    -12.771  0.0000E+00  0.2000E+01
    -12.697  0.0000E+00  0.2000E+01
    -12.624  0.0000E+00  0.2000E+01
    -12.550  0.0000E+00  0.2000E+01
    -12.477  0.0000E+00  0.2000E+01
    -12.403  0.0000E+00  0.2000E+01
    -12.330  0.0000E+00  0.2000E+01
    -12.257  0.0000E+00  0.2000E+01
    -12.183  0.0000E+00  0.2000E+01
    -12.110  0.0000E+00  0.2000E+01
    -12.036  0.0000E+00  0.2000E+01
    -11.963  0.0000E+00  0.2000E+01
    -11.889  0.0000E+00  0.2000E+01
    -11.816  0.0000E+00  0.2000E+01
    -11.743  0.0000E+00  0.2000E+01
    -11.669  0.0000E+00  0.2000E+01
    -11.596  0.0000E+00  0.2000E+01
    -11.522  0.0000E+00  0.2000E+01
    -11.449  0.0000E+00  0.2000E+01
    -11.375  0.0000E+00  0.2000E+01
    -11.302  0.0000E+00  0.2000E+01
    -11.229  0.0000E+00  0.2000E+01
    -11.155  0.0000E+00  0.2000E+01
    -11.082  0.0000E+00  0.2000E+01
    -11.008  0.2783E-09  0.2000E+01
    -10.935  0.5073E-04  0.2000E+01
    -10.862  0.1469E+00  0.2011E+01
    -10.788  0.8520E+01  0.2636E+01
    -10.715  0.1709E+02  0.3891E+01
    -10.641  0.1478E+01  0.4000E+01
    -10.568  0.3169E-02  0.4000E+01
    -10.494  0.1164E-06  0.4000E+01
    -10.421  0.6502E-13  0.4000E+01
    -10.348  0.0000E+00  0.4000E+01
    -10.274  0.0000E+00  0.4000E+01
    -10.201  0.0000E+00  0.4000E+01
    -10.127  0.0000E+00  0.4000E+01
    -10.054  0.0000E+00  0.4000E+01
     -9.980  0.0000E+00  0.4000E+01
     -9.907  0.0000E+00  0.4000E+01
     -9.834  0.0000E+00  0.4000E+01
     -9.760  0.0000E+00  0.4000E+01
     -9.687  0.0000E+00  0.4000E+01
     -9.613  0.0000E+00  0.4000E+01
     -9.540  0.0000E+00  0.4000E+01
     -9.467  0.0000E+00  0.4000E+01
     -9.393  0.1469E-11  0.4000E+01
     -9.320  0.8029E-06  0.4000E+01
     -9.246  0.6770E-02  0.4000E+01
     -9.173  0.1049E+01  0.4077E+01
     -9.099  0.4777E+01  0.4428E+01
     -9.026  0.3284E+01  0.4669E+01
     -8.953  0.2584E+02  0.6566E+01
     -8.879  0.1253E+02  0.7486E+01
     -8.806  0.1829E+01  0.7620E+01
     -8.732  0.4752E+01  0.7969E+01
     -8.659  0.1550E+02  0.9107E+01
     -8.585  0.5512E+02  0.1315E+02
     -8.512  0.1635E+02  0.1435E+02
     -8.439  0.2848E+02  0.1645E+02
     -8.365  0.7866E+01  0.1702E+02
     -8.292  0.1554E+02  0.1816E+02
     -8.218  0.2360E+02  0.1990E+02
     -8.145  0.1172E+02  0.2076E+02
     -8.071  0.3268E+02  0.2316E+02
     -7.998  0.2908E+02  0.2529E+02
     -7.925  0.8359E+02  0.3143E+02
     -7.851  0.1450E+02  0.3249E+02
     -7.778  0.8799E-01  0.3250E+02
     -7.704  0.2877E+01  0.3271E+02
     -7.631  0.7111E+02  0.3793E+02
     -7.558  0.8465E+02  0.4415E+02
     -7.484  0.1534E+02  0.4527E+02
     -7.411  0.2693E+02  0.4725E+02
     -7.337  0.7913E+01  0.4783E+02
     -7.264  0.3248E+02  0.5022E+02
     -7.190  0.1717E+02  0.5148E+02
     -7.117  0.5355E+02  0.5541E+02
     -7.044  0.2617E+02  0.5733E+02
     -6.970  0.8508E+02  0.6358E+02
     -6.897  0.7131E+02  0.6881E+02
     -6.823  0.2350E+02  0.7054E+02
     -6.750  0.5421E+02  0.7452E+02
     -6.676  0.2758E+02  0.7654E+02
     -6.603  0.1120E+03  0.8477E+02
     -6.530  0.3541E+02  0.8737E+02
     -6.456  0.2882E+02  0.8949E+02
     -6.383  0.6956E+01  0.9000E+02
     -6.309  0.8025E+00  0.9006E+02
     -6.236  0.6164E+01  0.9051E+02
     -6.163  0.5757E+02  0.9473E+02
     -6.089  0.1230E+03  0.1038E+03
     -6.016  0.6595E+02  0.1086E+03
     -5.942  0.1066E+03  0.1164E+03
     -5.869  0.1912E+02  0.1178E+03
     -5.795  0.3922E+02  0.1207E+03
     -5.722  0.4409E+02  0.1240E+03
     -5.649  0.1079E+03  0.1319E+03
     -5.575  0.8391E+02  0.1380E+03
     -5.502  0.2488E+02  0.1399E+03
     -5.428  0.2169E+02  0.1415E+03
     -5.355  0.3392E+02  0.1439E+03
     -5.281  0.7955E+02  0.1498E+03
     -5.208  0.3473E+02  0.1523E+03
     -5.135  0.8150E+02  0.1583E+03
     -5.061  0.6607E+02  0.1632E+03
     -4.988  0.8773E+02  0.1696E+03
     -4.914  0.3294E+02  0.1720E+03
     -4.841  0.2316E+02  0.1737E+03
     -4.767  0.5680E+02  0.1779E+03
     -4.694  0.9707E+02  0.1850E+03
     -4.621  0.1022E+03  0.1925E+03
     -4.547  0.4691E+02  0.1960E+03
     -4.474  0.7627E+02  0.2016E+03
     -4.400  0.2850E+02  0.2037E+03
     -4.327  0.5851E+02  0.2080E+03
     -4.254  0.7660E+02  0.2136E+03
     -4.180  0.1099E+03  0.2217E+03
     -4.107  0.9952E+02  0.2290E+03
     -4.033  0.9344E+02  0.2358E+03
     -3.960  0.5856E+02  0.2401E+03
     -3.886  0.4646E+02  0.2435E+03
     -3.813  0.7688E+02  0.2492E+03
     -3.740  0.6415E+02  0.2539E+03
     -3.666  0.9883E+02  0.2611E+03
     -3.593  0.6320E+02  0.2658E+03
     -3.519  0.6147E+02  0.2703E+03
     -3.446  0.4386E+02  0.2735E+03
     -3.372  0.1922E+02  0.2749E+03
     -3.299  0.2490E+02  0.2768E+03
     -3.226  0.8116E+02  0.2827E+03
     -3.152  0.8227E+02  0.2888E+03
     -3.079  0.1061E+03  0.2966E+03
     -3.005  0.1039E+03  0.3042E+03
     -2.932  0.8183E+02  0.3102E+03
     -2.859  0.1324E+03  0.3199E+03
     -2.785  0.1516E+03  0.3310E+03
     -2.712  0.1669E+03  0.3433E+03
     -2.638  0.4034E+02  0.3463E+03
     -2.565  0.1515E+02  0.3474E+03
     -2.491  0.1650E+02  0.3486E+03
     -2.418  0.6182E+02  0.3531E+03
     -2.345  0.7694E+02  0.3588E+03
     -2.271  0.1240E+03  0.3679E+03
     -2.198  0.7950E+02  0.3737E+03
     -2.124  0.9678E+02  0.3808E+03
     -2.051  0.8382E+02  0.3870E+03
     -1.977  0.4274E+02  0.3901E+03
     -1.904  0.7533E+02  0.3956E+03
     -1.831  0.1100E+03  0.4037E+03
     -1.757  0.1540E+03  0.4150E+03
     -1.684  0.7360E+02  0.4204E+03
     -1.610  0.3853E+02  0.4233E+03
     -1.537  0.7296E+02  0.4286E+03
     -1.463  0.7819E+02  0.4344E+03
     -1.390  0.7483E+02  0.4398E+03
     -1.317  0.1807E+03  0.4531E+03
     -1.243  0.1041E+03  0.4608E+03
     -1.170  0.1324E+03  0.4705E+03
     -1.096  0.7649E+02  0.4761E+03
     -1.023  0.7499E+02  0.4816E+03
     -0.950  0.7128E+02  0.4868E+03
     -0.876  0.1152E+03  0.4953E+03
     -0.803  0.1264E+03  0.5046E+03
     -0.729  0.8099E+02  0.5105E+03
     -0.656  0.5443E+02  0.5145E+03
     -0.582  0.4447E+02  0.5178E+03
     -0.509  0.9150E+02  0.5245E+03
     -0.436  0.1765E+03  0.5375E+03
     -0.362  0.1529E+03  0.5487E+03
     -0.289  0.9205E+02  0.5554E+03
     -0.215  0.1425E+03  0.5659E+03
     -0.142  0.5593E+02  0.5700E+03
     -0.068  0.3802E+02  0.5728E+03
      0.005  0.4697E+02  0.5763E+03
      0.078  0.1260E+03  0.5855E+03
      0.152  0.7716E+02  0.5912E+03
      0.225  0.9311E+02  0.5980E+03
      0.299  0.9060E+02  0.6047E+03
      0.372  0.8111E+02  0.6106E+03
      0.445  0.1042E+03  0.6183E+03
      0.519  0.1329E+03  0.6280E+03
      0.592  0.7169E+02  0.6333E+03
      0.666  0.7581E+02  0.6389E+03
      0.739  0.5591E+02  0.6430E+03
      0.813  0.4802E+02  0.6465E+03
      0.886  0.7832E+02  0.6522E+03
      0.959  0.1993E+03  0.6669E+03
      1.033  0.2214E+03  0.6831E+03
      1.106  0.1209E+03  0.6920E+03
      1.180  0.1021E+03  0.6995E+03
      1.253  0.8334E+02  0.7056E+03
      1.327  0.6132E+02  0.7101E+03
      1.400  0.8042E+02  0.7160E+03
      1.473  0.9011E+02  0.7226E+03
      1.547  0.1346E+03  0.7325E+03
      1.620  0.1717E+03  0.7451E+03
      1.694  0.1565E+03  0.7566E+03
      1.767  0.1069E+03  0.7645E+03
      1.841  0.5975E+02  0.7689E+03
      1.914  0.6507E+02  0.7736E+03
      1.987  0.1566E+03  0.7851E+03
      2.061  0.1054E+03  0.7929E+03
      2.134  0.8653E+02  0.7992E+03
      2.208  0.9196E+02  0.8060E+03
      2.281  0.7093E+02  0.8112E+03
      2.354  0.6938E+02  0.8163E+03
      2.428  0.1092E+03  0.8243E+03
      2.501  0.7832E+02  0.8301E+03
      2.575  0.1163E+03  0.8386E+03
      2.648  0.1437E+03  0.8492E+03
      2.722  0.8111E+02  0.8551E+03
      2.795  0.8557E+02  0.8614E+03
      2.868  0.1054E+03  0.8691E+03
      2.942  0.2813E+03  0.8898E+03
      3.015  0.2115E+03  0.9053E+03
      3.089  0.1186E+03  0.9140E+03
      3.162  0.6087E+02  0.9185E+03
      3.236  0.8684E+02  0.9249E+03
      3.309  0.1187E+03  0.9336E+03
      3.382  0.1340E+03  0.9434E+03
      3.456  0.1293E+03  0.9529E+03
      3.529  0.1166E+03  0.9615E+03
      3.603  0.7791E+02  0.9672E+03
      3.676  0.1045E+03  0.9749E+03
      3.749  0.1013E+03  0.9823E+03
      3.823  0.7595E+02  0.9879E+03
      3.896  0.1126E+03  0.9961E+03
      3.970  0.1566E+03  0.1008E+04
      4.043  0.1648E+03  0.1020E+04
      4.117  0.1139E+03  0.1028E+04
      4.190  0.5010E+02  0.1032E+04
      4.263  0.2844E+01  0.1032E+04
      4.337  0.6203E-02  0.1032E+04
      4.410  0.2881E-06  0.1032E+04
      4.484  0.2291E-12  0.1032E+04
      4.557  0.0000E+00  0.1032E+04
      4.631  0.0000E+00  0.1032E+04
      4.704  0.0000E+00  0.1032E+04
      4.777  0.0000E+00  0.1032E+04
      4.851  0.0000E+00  0.1032E+04
      4.924  0.0000E+00  0.1032E+04
      4.998  0.0000E+00  0.1032E+04
      5.071  0.0000E+00  0.1032E+04
      5.145  0.0000E+00  0.1032E+04
