       N       E                     dE             d eps       ncg     rms          rms(c)
DAV:   1     0.213984255587E+04    0.21398E+04   -0.18427E+05  3144   0.734E+02
DAV:   2    -0.738293198076E+03   -0.28781E+04   -0.27170E+04  4236   0.193E+02
DAV:   3    -0.952994679164E+03   -0.21470E+03   -0.20389E+03  4704   0.406E+01
DAV:   4    -0.963093658344E+03   -0.10099E+02   -0.98531E+01  4644   0.872E+00
DAV:   5    -0.963500847658E+03   -0.40719E+00   -0.40241E+00  4824   0.179E+00    0.198E+01
DAV:   6    -0.971746966219E+03   -0.82461E+01   -0.17502E+02  3876   0.161E+01    0.176E+01
DAV:   7    -0.940278719517E+03    0.31468E+02   -0.12187E+02  3864   0.159E+01    0.110E+01
DAV:   8    -0.951628211680E+03   -0.11349E+02   -0.41913E+01  4536   0.115E+01    0.112E+01
DAV:   9    -0.936374320627E+03    0.15254E+02   -0.98940E+00  4116   0.899E+00    0.547E+00
DAV:  10    -0.934705748477E+03    0.16686E+01   -0.11484E+01  3732   0.351E+00    0.238E+00
DAV:  11    -0.934486101291E+03    0.21965E+00   -0.21454E+00  4020   0.190E+00    0.108E+00
DAV:  12    -0.934474833914E+03    0.11267E-01   -0.50535E-01  4008   0.844E-01    0.876E-01
DAV:  13    -0.934436372560E+03    0.38461E-01   -0.11392E-01  3708   0.459E-01    0.581E-01
DAV:  14    -0.934406781331E+03    0.29591E-01   -0.52732E-02  3660   0.276E-01    0.284E-01
DAV:  15    -0.934403661668E+03    0.31197E-02   -0.25755E-02  3840   0.164E-01    0.166E-01
DAV:  16    -0.934408261289E+03   -0.45996E-02   -0.10932E-02  3696   0.110E-01    0.120E-01
DAV:  17    -0.934414330366E+03   -0.60691E-02   -0.41117E-03  3720   0.707E-02    0.914E-02
DAV:  18    -0.934419286563E+03   -0.49562E-02   -0.14311E-03  3516   0.480E-02    0.537E-02
DAV:  19    -0.934422929190E+03   -0.36426E-02   -0.10278E-03  3384   0.389E-02    0.411E-02
DAV:  20    -0.934424287321E+03   -0.13581E-02   -0.26058E-04  3384   0.223E-02    0.281E-02
DAV:  21    -0.934425787467E+03   -0.15001E-02   -0.30088E-04  3960   0.164E-02    0.187E-02
DAV:  22    -0.934426525947E+03   -0.73848E-03   -0.78274E-05  3720   0.901E-03    0.126E-02
DAV:  23    -0.934427660465E+03   -0.11345E-02   -0.20448E-04  3492   0.953E-03    0.948E-03
DAV:  24    -0.934428337364E+03   -0.67690E-03   -0.37610E-05  3036   0.620E-03    0.677E-03
DAV:  25    -0.934429016400E+03   -0.67904E-03   -0.30138E-05  3252   0.463E-03    0.518E-03
DAV:  26    -0.934429987379E+03   -0.97098E-03   -0.77655E-05  3036   0.481E-03    0.267E-03
DAV:  27    -0.934430281342E+03   -0.29396E-03   -0.18042E-05  2964   0.262E-03    0.217E-03
DAV:  28    -0.934430412730E+03   -0.13139E-03   -0.60913E-06  2496   0.164E-03    0.105E-03
DAV:  29    -0.934430474259E+03   -0.61529E-04   -0.36447E-06  2472   0.124E-03    0.881E-04
DAV:  30    -0.934430485481E+03   -0.11222E-04   -0.42496E-07  2064   0.624E-04    0.756E-04
DAV:  31    -0.934430492195E+03   -0.67140E-05   -0.29063E-07  1932   0.500E-04    0.460E-04
DAV:  32    -0.934430493632E+03   -0.14373E-05   -0.10130E-07  1860   0.356E-04
   1 F= -.93443049E+03 E0= -.93438665E+03  d E =-.876789E-01
