 vasp.5.4.4.18Apr17-6-g9f103f2a35 (build May 02 2017 15:33:50) complex          
  
 executed on Intel-16.0.3.210-OMP date 2018.08.08  21:06:02
 running on    6 total cores
 distrk:  each k-point on    6 cores,    1 groups
 distr:  one band on NCORES_PER_BAND=   1 cores,    6 groups


--------------------------------------------------------------------------------------------------------


 INCAR:
 POTCAR:    PAW Al_GW 19Mar2012                   
 POTCAR:    PAW_PBE N 08Apr2002                   

 ----------------------------------------------------------------------------- 
|                                                                             |
|           W    W    AA    RRRRR   N    N  II  N    N   GGGG   !!!           |
|           W    W   A  A   R    R  NN   N  II  NN   N  G    G  !!!           |
|           W    W  A    A  R    R  N N  N  II  N N  N  G       !!!           |
|           W WW W  AAAAAA  RRRRR   N  N N  II  N  N N  G  GGG   !            |
|           WW  WW  A    A  R   R   N   NN  II  N   NN  G    G                |
|           W    W  A    A  R    R  N    N  II  N    N   GGGG   !!!           |
|                                                                             |
|      For optimal performance we recommend to set                            |
|        NCORE= 4 - approx SQRT( number of cores)                             |
|      NCORE specifies how many cores store one orbital (NPAR=cpu/NCORE).     |
|      This setting can  greatly improve the performance of VASP for DFT.     |
|      The default,   NCORE=1            might be grossly inefficient         |
|      on modern multi-core architectures or massively parallel machines.     |
|      Do your own testing !!!!                                               |
|      Unfortunately you need to use the default for GW and RPA calculations. |
|      (for HF NCORE is supported but not extensively tested yet)             |
|                                                                             |
 ----------------------------------------------------------------------------- 

 POTCAR:    PAW Al_GW 19Mar2012                   
   VRHFIN =Al: s2p1                                                             
   LEXCH  = PE                                                                  
   EATOM  =    53.5387 eV,    3.9350 Ry                                         
                                                                                
   TITEL  = PAW Al_GW 19Mar2012                                                 
   LULTRA =        F    use ultrasoft PP ?                                      
   IUNSCR =        1    unscreen: 0-lin 1-nonlin 2-no                           
   RPACOR =    1.500    partial core radius                                     
   POMASS =   26.982; ZVAL   =    3.000    mass and valenz                      
   RCORE  =    2.000    outmost cutoff radius                                   
   RWIGS  =    2.000; RWIGS  =    1.058    wigner-seitz radius (au A)           
   ENMAX  =  240.300; ENMIN  =  180.225 eV                                      
   ICORE  =        3    local potential                                         
   LCOR   =        T    correct aug charges                                     
   LPAW   =        T    paw PP                                                  
   EAUG   =  482.059                                                            
   DEXC   =    0.000                                                            
   RMAX   =    2.051    core radius for proj-oper                               
   RAUG   =    1.300    factor for augmentation sphere                          
   RDEP   =    2.096    radius for radial grids                                 
   RDEPT  =    1.856    core radius for aug-charge                              
                                                                                
   Atomic configuration                                                         
    7 entries                                                                   
     n  l   j            E        occ.                                          
     1  0  0.50     -1511.1048   2.0000                                         
     2  0  0.50      -108.1629   2.0000                                         
     2  1  1.50       -69.6402   6.0000                                         
     3  0  0.50        -7.7528   2.0000                                         
     3  1  1.50        -2.7121   1.0000                                         
     3  2  2.50        -2.7212   0.0000                                         
     4  3  2.50        -2.7212   0.0000                                         
   Description                                                                  
     l       E           TYP  RCUT    TYP  RCUT                                 
     0     -7.7528455     23  1.900                                             
     0     68.0291300     23  1.900                                             
     1     -2.7120682     23  1.900                                             
     1     68.0291300     23  1.900                                             
     2     -1.3605826     23  1.900                                             
     2     81.6349560     23  1.900                                             
     3     74.8320430     23  2.000                                             
  local pseudopotential read in
  partial core-charges read in
  partial kinetic energy density read in
  kinetic energy density of atom read in
  atomic valenz-charges read in
  non local Contribution for L=           0  read in
    real space projection operators read in
  non local Contribution for L=           0  read in
    real space projection operators read in
  non local Contribution for L=           1  read in
    real space projection operators read in
  non local Contribution for L=           1  read in
    real space projection operators read in
  non local Contribution for L=           2  read in
    real space projection operators read in
  non local Contribution for L=           2  read in
    real space projection operators read in
    PAW grid and wavefunctions read in
 
   number of l-projection  operators is LMAX  =           6
   number of lm-projection operators is LMMAX =          18
 
 POTCAR:    PAW_PBE N 08Apr2002                   
   VRHFIN =N: s2p3                                                              
   LEXCH  = PE                                                                  
   EATOM  =   264.5486 eV,   19.4438 Ry                                         
                                                                                
   TITEL  = PAW_PBE N 08Apr2002                                                 
   LULTRA =        F    use ultrasoft PP ?                                      
   IUNSCR =        1    unscreen: 0-lin 1-nonlin 2-no                           
   RPACOR =    1.200    partial core radius                                     
   POMASS =   14.001; ZVAL   =    5.000    mass and valenz                      
   RCORE  =    1.500    outmost cutoff radius                                   
   RWIGS  =    1.400; RWIGS  =    0.741    wigner-seitz radius (au A)           
   ENMAX  =  400.000; ENMIN  =  300.000 eV                                      
   ICORE  =        2    local potential                                         
   LCOR   =        T    correct aug charges                                     
   LPAW   =        T    paw PP                                                  
   EAUG   =  627.112                                                            
   DEXC   =    0.000                                                            
   RMAX   =    1.529    core radius for proj-oper                               
   RAUG   =    1.300    factor for augmentation sphere                          
   RDEP   =    1.514    radius for radial grids                                 
   RDEPT  =    1.338    core radius for aug-charge                              
                                                                                
   Atomic configuration                                                         
    4 entries                                                                   
     n  l   j            E        occ.                                          
     1  0  0.50      -384.7179   2.0000                                         
     2  0  0.50       -18.5828   2.0000                                         
     2  1  0.50        -7.0898   3.0000                                         
     3  2  1.50        -6.8029   0.0000                                         
   Description                                                                  
     l       E           TYP  RCUT    TYP  RCUT                                 
     0    -18.5828119     23  1.200                                             
     0    -13.5018863     23  1.200                                             
     1     -7.0897853     23  1.500                                             
     1      9.5240782     23  1.500                                             
     2     -6.8029130      7  1.500                                             
  local pseudopotential read in
  partial core-charges read in
  partial kinetic energy density read in
  atomic valenz-charges read in
  non local Contribution for L=           0  read in
    real space projection operators read in
  non local Contribution for L=           0  read in
    real space projection operators read in
  non local Contribution for L=           1  read in
    real space projection operators read in
  non local Contribution for L=           1  read in
    real space projection operators read in
    PAW grid and wavefunctions read in
 
   number of l-projection  operators is LMAX  =           4
   number of lm-projection operators is LMMAX =           8
 
 Optimization of the real space projectors (new method)

 maximal supplied QI-value         = 18.90
 optimisation between [QCUT,QGAM] = [  8.69, 17.57] = [ 21.16, 86.49] Ry 
 Optimized for a Real-space Cutoff    1.59 Angstroem

   l    n(q)    QCUT    max X(q) W(low)/X(q) W(high)/X(q)  e(spline) 
   0      8     8.693    11.519    0.12E-03    0.31E-04    0.21E-06
   0      8     8.693     5.834    0.89E-04    0.32E-04    0.16E-06
   1      8     8.693    10.132    0.25E-03    0.39E-03    0.25E-06
   1      8     8.693     3.004    0.16E-03    0.27E-03    0.22E-06
   2      7     8.693     3.169    0.39E-03    0.93E-03    0.44E-06
   2      7     8.693     1.605    0.70E-04    0.91E-04    0.19E-06
 Optimization of the real space projectors (new method)

 maximal supplied QI-value         = 25.13
 optimisation between [QCUT,QGAM] = [  8.80, 17.59] = [ 21.67, 86.68] Ry 
 Optimized for a Real-space Cutoff    2.14 Angstroem

   l    n(q)    QCUT    max X(q) W(low)/X(q) W(high)/X(q)  e(spline) 
   0     11     8.797    79.467    0.70E-04    0.19E-04    0.19E-05
   0     11     8.797    66.151    0.68E-04    0.18E-04    0.19E-05
   1     11     8.797     6.738    0.26E-03    0.11E-02    0.73E-05
   1     11     8.797     5.013    0.25E-03    0.11E-02    0.72E-05
  PAW Al_GW 19Mar2012                   :
 energy of atom  1       EATOM=  -53.5387
 kinetic energy error for atom=    0.0011 (will be added to EATOM!!)
  PAW_PBE N 08Apr2002                   :
 energy of atom  2       EATOM= -264.5486
 kinetic energy error for atom=    0.6882 (will be added to EATOM!!)
 
 
 POSCAR: New structure                           
  positions in cartesian coordinates
  No initial velocities read in
 exchange correlation table for  LEXCH =        8
   RHO(1)=    0.500       N(1)  =     2000
   RHO(2)=  100.500       N(2)  =     4000
 


--------------------------------------------------------------------------------------------------------


 ion  position               nearest neighbor table
   1  0.444  0.444  0.079-
   2  0.444  0.778  0.079-
   3  0.444  0.111  0.079-
   4  0.778  0.444  0.079-
   5  0.778  0.778  0.079-
   6  0.778  0.111  0.079-
   7  0.111  0.444  0.079-
   8  0.111  0.778  0.079-
   9  0.111  0.111  0.079-
  10  0.556  0.556  0.157-
  11  0.556  0.889  0.157-
  12  0.556  0.222  0.157-
  13  0.889  0.556  0.157-
  14  0.889  0.889  0.157-
  15  0.889  0.222  0.157-
  16  0.222  0.556  0.157-
  17  0.222  0.889  0.157-
  18  0.222  0.222  0.157-
  19  0.667  0.667  0.234-
  20  0.667  0.000  0.234-
  21  0.667  0.333  0.234-
  22  0.000  0.667  0.234-
  23  0.000  0.000  0.234-
  24  0.000  0.333  0.234-
  25  0.333  0.667  0.234-
  26  0.333  0.000  0.234-
  27  0.333  0.333  0.234-
  28  0.778  0.778  0.312-
  29  0.778  0.111  0.312-
  30  0.778  0.444  0.312-
  31  0.111  0.778  0.312-
  32  0.111  0.111  0.312-
  33  0.111  0.444  0.312-
  34  0.444  0.778  0.312-
  35  0.444  0.111  0.312-
  36  0.444  0.444  0.312-
  37  0.889  0.889  0.390-
  38  0.889  0.222  0.390-
  39  0.889  0.556  0.390-
  40  0.222  0.889  0.390-
  41  0.222  0.222  0.390-
  42  0.222  0.556  0.390-
  43  0.556  0.889  0.390-
  44  0.556  0.222  0.390-
  45  0.556  0.556  0.390-
  46  0.000  0.000  0.466-
  47  0.000  0.333  0.466-
  48  0.000  0.667  0.466-
  49  0.333  0.000  0.466-
  50  0.333  0.333  0.466-
  51  0.333  0.667  0.466-
  52  0.667  0.000  0.466-
  53  0.667  0.333  0.466-
  54  0.667  0.667  0.466-
  55  0.111  0.111  0.545-
  56  0.111  0.444  0.545-
  57  0.111  0.778  0.545-
  58  0.444  0.111  0.545-
  59  0.444  0.444  0.545- 253 2.04 254 2.04
  60  0.444  0.778  0.545-
  61  0.778  0.111  0.545-
  62  0.778  0.444  0.545-
  63  0.778  0.778  0.545-
  64  0.278  0.278  0.079-
  65  0.278  0.611  0.079-
  66  0.278  0.944  0.079-
  67  0.611  0.278  0.079-
  68  0.611  0.611  0.079-
  69  0.611  0.944  0.079-
  70  0.944  0.278  0.079-
  71  0.944  0.611  0.079-
  72  0.944  0.944  0.079-
  73  0.389  0.389  0.157-
  74  0.389  0.722  0.157-
  75  0.389  0.056  0.157-
  76  0.722  0.389  0.157-
  77  0.722  0.722  0.157-
  78  0.722  0.056  0.157-
  79  0.056  0.389  0.157-
  80  0.056  0.722  0.157-
  81  0.056  0.056  0.157-
  82  0.500  0.500  0.234-
  83  0.500  0.833  0.234-
  84  0.500  0.167  0.234-
  85  0.833  0.500  0.234-
  86  0.833  0.833  0.234-
  87  0.833  0.167  0.234-
  88  0.167  0.500  0.234-
  89  0.167  0.833  0.234-
  90  0.167  0.167  0.234-
  91  0.611  0.611  0.312-
  92  0.611  0.944  0.312-
  93  0.611  0.278  0.312-
  94  0.944  0.611  0.312-
  95  0.944  0.944  0.312-
  96  0.944  0.278  0.312-
  97  0.278  0.611  0.312-
  98  0.278  0.944  0.312-
  99  0.278  0.278  0.312-
 100  0.722  0.722  0.390-
 101  0.722  0.056  0.390-
 102  0.722  0.389  0.390-
 103  0.056  0.722  0.390-
 104  0.056  0.056  0.390-
 105  0.056  0.389  0.390-
 106  0.389  0.722  0.390-
 107  0.389  0.056  0.390-
 108  0.389  0.389  0.390-
 109  0.833  0.833  0.466-
 110  0.833  0.167  0.466-
 111  0.833  0.500  0.466-
 112  0.167  0.833  0.466-
 113  0.167  0.167  0.466-
 114  0.167  0.500  0.466-
 115  0.500  0.833  0.466-
 116  0.500  0.167  0.466-
 117  0.500  0.500  0.466-
 118  0.944  0.944  0.545-
 119  0.944  0.278  0.545-
 120  0.944  0.611  0.545-
 121  0.278  0.944  0.545-
 122  0.278  0.278  0.545-
 123  0.278  0.611  0.545- 253 2.04
 124  0.611  0.944  0.545-
 125  0.611  0.278  0.545-
 126  0.611  0.611  0.545-
 127  0.278  0.444  0.079-
 128  0.278  0.778  0.079-
 129  0.278  0.111  0.079-
 130  0.611  0.444  0.079-
 131  0.611  0.778  0.079-
 132  0.611  0.111  0.079-
 133  0.944  0.444  0.079-
 134  0.944  0.778  0.079-
 135  0.944  0.111  0.079-
 136  0.389  0.556  0.157-
 137  0.389  0.889  0.157-
 138  0.389  0.222  0.157-
 139  0.722  0.556  0.157-
 140  0.722  0.889  0.157-
 141  0.722  0.222  0.157-
 142  0.056  0.556  0.157-
 143  0.056  0.889  0.157-
 144  0.056  0.222  0.157-
 145  0.500  0.667  0.234-
 146  0.500  0.000  0.234-
 147  0.500  0.333  0.234-
 148  0.833  0.667  0.234-
 149  0.833  0.000  0.234-
 150  0.833  0.333  0.234-
 151  0.167  0.667  0.234-
 152  0.167  0.000  0.234-
 153  0.167  0.333  0.234-
 154  0.611  0.778  0.312-
 155  0.611  0.111  0.312-
 156  0.611  0.444  0.312-
 157  0.944  0.778  0.312-
 158  0.944  0.111  0.312-
 159  0.944  0.444  0.312-
 160  0.278  0.778  0.312-
 161  0.278  0.111  0.312-
 162  0.278  0.444  0.312-
 163  0.722  0.889  0.390-
 164  0.722  0.222  0.390-
 165  0.722  0.556  0.390-
 166  0.056  0.889  0.390-
 167  0.056  0.222  0.390-
 168  0.056  0.556  0.390-
 169  0.389  0.889  0.390-
 170  0.389  0.222  0.390-
 171  0.389  0.556  0.390-
 172  0.833  0.000  0.466-
 173  0.833  0.333  0.466-
 174  0.833  0.667  0.466-
 175  0.167  0.000  0.466-
 176  0.167  0.333  0.466-
 177  0.167  0.667  0.466-
 178  0.500  0.000  0.466-
 179  0.500  0.333  0.466-
 180  0.500  0.667  0.466-
 181  0.944  0.111  0.545-
 182  0.944  0.444  0.545-
 183  0.944  0.778  0.545-
 184  0.278  0.111  0.545-
 185  0.278  0.444  0.545- 253 2.04 254 2.04
 186  0.278  0.778  0.545-
 187  0.611  0.111  0.545-
 188  0.611  0.444  0.545-
 189  0.611  0.778  0.545-
 190  0.444  0.278  0.079-
 191  0.444  0.611  0.079-
 192  0.444  0.944  0.079-
 193  0.778  0.278  0.079-
 194  0.778  0.611  0.079-
 195  0.778  0.944  0.079-
 196  0.111  0.278  0.079-
 197  0.111  0.611  0.079-
 198  0.111  0.944  0.079-
 199  0.556  0.389  0.157-
 200  0.556  0.722  0.157-
 201  0.556  0.056  0.157-
 202  0.889  0.389  0.157-
 203  0.889  0.722  0.157-
 204  0.889  0.056  0.157-
 205  0.222  0.389  0.157-
 206  0.222  0.722  0.157-
 207  0.222  0.056  0.157-
 208  0.667  0.500  0.234-
 209  0.667  0.833  0.234-
 210  0.667  0.167  0.234-
 211  1.000  0.500  0.234-
 212  1.000  0.833  0.234-
 213  1.000  0.167  0.234-
 214  0.333  0.500  0.234-
 215  0.333  0.833  0.234-
 216  0.333  0.167  0.234-
 217  0.778  0.611  0.312-
 218  0.778  0.944  0.312-
 219  0.778  0.278  0.312-
 220  0.111  0.611  0.312-
 221  0.111  0.944  0.312-
 222  0.111  0.278  0.312-
 223  0.444  0.611  0.312-
 224  0.444  0.944  0.312-
 225  0.444  0.278  0.312-
 226  0.889  0.722  0.390-
 227  0.889  0.056  0.390-
 228  0.889  0.389  0.390-
 229  0.222  0.722  0.390-
 230  0.222  0.056  0.390-
 231  0.222  0.389  0.390-
 232  0.556  0.722  0.390-
 233  0.556  0.056  0.390-
 234  0.556  0.389  0.390-
 235  1.000  0.833  0.466-
 236  1.000  0.167  0.466-
 237  1.000  0.500  0.466-
 238  0.333  0.833  0.466-
 239  0.333  0.167  0.466-
 240  0.333  0.500  0.466-
 241  0.667  0.833  0.466-
 242  0.667  0.167  0.466-
 243  0.667  0.500  0.466-
 244  0.111  0.944  0.545-
 245  0.111  0.278  0.545-
 246  0.111  0.611  0.545-
 247  0.444  0.944  0.545-
 248  0.444  0.278  0.545- 254 2.04
 249  0.444  0.611  0.545-
 250  0.778  0.944  0.545-
 251  0.778  0.278  0.545-
 252  0.778  0.611  0.545-
 253  0.333  0.500  0.585- 254 1.65 185 2.04 123 2.04  59 2.04
 254  0.389  0.389  0.585- 253 1.65 248 2.04 185 2.04  59 2.04
 
  LATTYP: Found a hexagonal cell.
 ALAT       =    17.1805734625
 C/A-ratio  =     1.7461582447
  
  Lattice vectors:
  
 A1 = (   0.0000000000,  -8.5902867312,  14.8788130701)
 A2 = (   0.0000000000,  17.1805734625,   0.0000000000)
 A3 = ( -30.0000000000,   0.0000000000,   0.0000000000)


Analysis of symmetry for initial positions (statically):
=====================================================================
 Subroutine PRICEL returns:
 Original cell was already a primitive cell.
 

 Routine SETGRP: Setting up the symmetry group for a 
 hexagonal supercell.


 Subroutine GETGRP returns: Found  2 space group operations
 (whereof  1 operations were pure point group operations)
 out of a pool of 24 trial point group operations.


The static configuration has the point symmetry C_1 .
 The point group associated with its full space group is C_1h.


Analysis of symmetry for dynamics (positions and initial velocities):
=====================================================================
 Subroutine PRICEL returns:
 Original cell was already a primitive cell.
 

 Routine SETGRP: Setting up the symmetry group for a 
 hexagonal supercell.


 Subroutine GETGRP returns: Found  2 space group operations
 (whereof  1 operations were pure point group operations)
 out of a pool of 24 trial point group operations.


The dynamic configuration has the point symmetry C_1 .
 The point group associated with its full space group is C_1h.


 Subroutine INISYM returns: Found  2 space group operations
 (whereof  1 operations are pure point group operations),
 and found     1 'primitive' translations

 
 
 KPOINTS: Automatic generation                    

Automatic generation of k-mesh.
Space group operators:
 irot       det(A)        alpha          n_x          n_y          n_z        tau_x        tau_y        tau_z
    1     1.000000     0.000000     1.000000     0.000000     0.000000     0.000000     0.000000     0.000000
    2    -1.000000   180.000000     0.000000     1.000000     0.000000    -0.833333     0.000000     0.000000
 
 Subroutine IBZKPT returns following result:
 ===========================================
 
 Found      3 irreducible k-points:
 
 Following reciprocal coordinates:
            Coordinates               Weight
  0.000000  0.000000  0.000000      1.000000
  0.500000  0.000000  0.000000      2.000000
  0.000000  0.500000  0.000000      1.000000
 
 Following cartesian coordinates:
            Coordinates               Weight
  0.000000  0.000000  0.000000      1.000000
  0.000000 -0.029103  0.016802      2.000000
  0.000000  0.000000 -0.033605      1.000000
 


--------------------------------------------------------------------------------------------------------




 Dimension of arrays:
   k-points           NKPTS =      3   k-points in BZ     NKDIM =      3   number of bands    NBANDS=    516
   number of dos      NEDOS =    301   number of ions     NIONS =    254
   non local maximal  LDIM  =      6   non local SUM 2l+1 LMDIM =     18
   total plane-waves  NPLWV = 819200
   max r-space proj   IRMAX =   4449   max aug-charges    IRDMAX=   4357
   dimension x,y,z NGX =    80 NGY =   80 NGZ =  128
   dimension x,y,z NGXF=   160 NGYF=  160 NGZF=  256
   support grid    NGXF=   160 NGYF=  160 NGZF=  256
   ions per type =             252   2
   NGX,Y,Z   is equivalent  to a cutoff of   7.74,  7.74,  7.09 a.u.
   NGXF,Y,Z  is equivalent  to a cutoff of  15.48, 15.48, 14.19 a.u.

 SYSTEM =  NiAl                                    
 POSCAR =  New structure                           

 Startparameter for this run:
   NWRITE =      2    write-flag & timer
   PREC   = normal    normal or accurate (medium, high low for compatibility)
   ISTART =      0    job   : 0-new  1-cont  2-samecut
   ICHARG =      2    charge: 1-file 2-atom 10-const
   ISPIN  =      1    spin polarized calculation?
   LNONCOLLINEAR =      F non collinear calculations
   LSORBIT =      F    spin-orbit coupling
   INIWAV =      1    electr: 0-lowe 1-rand  2-diag
   LASPH  =      F    aspherical Exc in radial PAW
   METAGGA=      F    non-selfconsistent MetaGGA calc.

 Electronic Relaxation 1
   ENCUT  =  300.0 eV  22.05 Ry    4.70 a.u.  24.26 24.26 42.37*2*pi/ulx,y,z
   ENINI  =  300.0     initial cutoff
   ENAUG  =  627.1 eV  augmentation charge cutoff
   NELM   =     60;   NELMIN=  6; NELMDL= -5     # of ELM steps 
   EDIFF  = 0.5E-05   stopping-criterion for ELM
   LREAL  =      T    real-space projection
   NLSPLINE    = F    spline interpolate recip. space projectors
   LCOMPAT=      F    compatible to vasp.4.4
   GGA_COMPAT  = T    GGA compatible to vasp.4.4-vasp.4.6
   LMAXPAW     = -100 max onsite density
   LMAXMIX     =    2 max onsite mixed and CHGCAR
   VOSKOWN=      0    Vosko Wilk Nusair interpolation
   ROPT   =   -0.00050  -0.00050
 Ionic relaxation
   EDIFFG = 0.5E-04   stopping-criterion for IOM
   NSW    =      0    number of steps for IOM
   NBLOCK =      1;   KBLOCK =      1    inner block; outer block 
   IBRION =     -1    ionic relax: 0-MD 1-quasi-New 2-CG
   NFREE  =      0    steps in history (QN), initial steepest desc. (CG)
   ISIF   =      0    stress and relaxation
   IWAVPR =     10    prediction:  0-non 1-charg 2-wave 3-comb
   ISYM   =      2    0-nonsym 1-usesym 2-fastsym
   LCORR  =      T    Harris-Foulkes like correction to forces

   POTIM  = 0.5000    time-step for ionic-motion
   TEIN   =    0.0    initial temperature
   TEBEG  =    0.0;   TEEND  =   0.0 temperature during run
   SMASS  =  -3.00    Nose mass-parameter (am)
   estimated Nose-frequenzy (Omega)   =  0.10E-29 period in steps =****** mass=  -0.675E-26a.u.
   SCALEE = 1.0000    scale energy and forces
   NPACO  =    256;   APACO  = 16.0  distance and # of slots for P.C.
   PSTRESS=    0.0 pullay stress

  Mass of Ions in am
   POMASS =  26.98 14.00
  Ionic Valenz
   ZVAL   =   3.00  5.00
  Atomic Wigner-Seitz radii
   RWIGS  =  -1.00 -1.00
  virtual crystal weights 
   VCA    =   1.00  1.00
   NELECT =     766.0000    total number of electrons
   NUPDOWN=      -1.0000    fix difference up-down

 DOS related values:
   EMIN   =  10.00;   EMAX   =-10.00  energy-range for DOS
   EFERMI =   0.00
   ISMEAR =     0;   SIGMA  =   0.05  broadening in eV -4-tet -1-fermi 0-gaus

 Electronic relaxation 2 (details)
   IALGO  =     38    algorithm
   LDIAG  =      T    sub-space diagonalisation (order eigenvalues)
   LSUBROT=      F    optimize rotation matrix (better conditioning)
   TURBO    =      0    0=normal 1=particle mesh
   IRESTART =      0    0=no restart 2=restart with 2 vectors
   NREBOOT  =      0    no. of reboots
   NMIN     =      0    reboot dimension
   EREF     =   0.00    reference energy to select bands
   IMIX   =      4    mixing-type and parameters
     AMIX     =   0.40;   BMIX     =  1.00
     AMIX_MAG =   1.60;   BMIX_MAG =  1.00
     AMIN     =   0.10
     WC   =   100.;   INIMIX=   1;  MIXPRE=   1;  MAXMIX= -45

 Intra band minimization:
   WEIMIN = 0.0000     energy-eigenvalue tresh-hold
   EBREAK =  0.24E-08  absolut break condition
   DEPER  =   0.30     relativ break condition  

   TIME   =   0.40     timestep for ELM

  volume/ion in A,a.u.               =      30.19       203.75
  Fermi-wavevector in a.u.,A,eV,Ry     =   0.759583  1.435404  7.850108  0.576967
  Thomas-Fermi vector in A             =   1.858410
 
 Write flags
   LWAVE        =      F    write WAVECAR
   LDOWNSAMPLE  =      F    k-point downsampling of WAVECAR
   LCHARG       =      F    write CHGCAR
   LVTOT        =      F    write LOCPOT, total local potential
   LVHAR        =      F    write LOCPOT, Hartree potential only
   LELF         =      F    write electronic localiz. function (ELF)
   LORBIT       =      0    0 simple, 1 ext, 2 COOP (PROOUT), +10 PAW based schemes


 Dipole corrections
   LMONO  =      F    monopole corrections only (constant potential shift)
   LDIPOL =      F    correct potential (dipole corrections)
   IDIPOL =      0    1-x, 2-y, 3-z, 4-all directions 
   EPSILON=  1.0000000 bulk dielectric constant

 Exchange correlation treatment:
   GGA     =    --    GGA type
   LEXCH   =     8    internal setting for exchange type
   VOSKOWN=      0    Vosko Wilk Nusair interpolation
   LHFCALC =     F    Hartree Fock is set to
   LHFONE  =     F    Hartree Fock one center treatment
   AEXX    =    0.0000 exact exchange contribution

 Linear response parameters
   LEPSILON=     F    determine dielectric tensor
   LRPA    =     F    only Hartree local field effects (RPA)
   LNABLA  =     F    use nabla operator in PAW spheres
   LVEL    =     F    velocity operator in full k-point grid
   LINTERFAST=   F  fast interpolation
   KINTER  =     0    interpolate to denser k-point grid
   CSHIFT  =0.1000    complex shift for real part using Kramers Kronig
   OMEGAMAX=  -1.0    maximum frequency
   DEG_THRESHOLD= 0.2000000E-02 threshold for treating states as degnerate
   RTIME   =   -0.100 relaxation time in fs
  (WPLASMAI=    0.000 imaginary part of plasma frequency in eV, 0.658/RTIME)
   DFIELD  = 0.0000000 0.0000000 0.0000000 field for delta impulse in time
 
 Orbital magnetization related:
   ORBITALMAG=     F  switch on orbital magnetization
   LCHIMAG   =     F  perturbation theory with respect to B field
   DQ        =  0.001000  dq finite difference perturbation B field
   LLRAUG    =     F  two centre corrections for induced B field



--------------------------------------------------------------------------------------------------------


 Static calculation
 charge density and potential will be updated during run
 non-spin polarized calculation
 Variant of blocked Davidson
 Davidson routine will perform the subspace rotation
 perform sub-space diagonalisation
    after iterative eigenvector-optimisation
 modified Broyden-mixing scheme, WC =      100.0
 initial mixing is a Kerker type mixing with AMIX =  0.4000 and BMIX =      1.0000
 Hartree-type preconditioning will be used
 using additional bands          133
 real space projection scheme for non local part
 use partial core corrections
 calculate Harris-corrections to forces 
   (improved forces if not selfconsistent)
 use gradient corrections 
 use of overlap-Matrix (Vanderbilt PP)
 Gauss-broadening in eV      SIGMA  =   0.05


--------------------------------------------------------------------------------------------------------


  energy-cutoff  :      300.00
  volume of cell :     7668.80
      direct lattice vectors                 reciprocal lattice vectors
     0.000000000-17.180573462  0.000000000     0.000000000 -0.058205275  0.033604831
     0.000000000 -8.590286731-14.878813070     0.000000000  0.000000000 -0.067209662
    30.000000000  0.000000000  0.000000000     0.033333333  0.000000000  0.000000000

  length of vectors
    17.180573462 17.180573462 30.000000000     0.067209662  0.067209662  0.033333333


 
 k-points in units of 2pi/SCALE and weight: Automatic generation                    
   0.00000000  0.00000000  0.00000000       0.250
   0.00000000 -0.02910264  0.01680242       0.500
   0.00000000  0.00000000 -0.03360483       0.250
 
 k-points in reciprocal lattice and weights: Automatic generation                    
   0.00000000  0.00000000  0.00000000       0.250
   0.50000000  0.00000000  0.00000000       0.500
   0.00000000  0.50000000  0.00000000       0.250
 
 position of ions in fractional coordinates (direct lattice) 
   0.44444456  0.44444473  0.07873467
   0.44444419  0.77777777  0.07873467
   0.44444468  0.11111101  0.07873467
   0.77777744  0.44444473  0.07873467
   0.77777765  0.77777777  0.07873467
   0.77777756  0.11111101  0.07873467
   0.11111110  0.44444473  0.07873467
   0.11111131  0.77777777  0.07873467
   0.11111122  0.11111101  0.07873467
   0.55555520  0.55555574  0.15702600
   0.55555541  0.88888878  0.15702600
   0.55555591  0.22222203  0.15702600
   0.88888866  0.55555574  0.15702600
   0.88888887  0.88888878  0.15702600
   0.88888878  0.22222203  0.15702600
   0.22222232  0.55555574  0.15702600
   0.22222253  0.88888878  0.15702600
   0.22222245  0.22222203  0.15702600
   0.66666642  0.66666675  0.23375733
   0.66666692  0.00000000  0.23375733
   0.66666655  0.33333304  0.23375733
   0.00000008  0.66666675  0.23375733
   0.00000000  0.00000000  0.23375733
   0.00000021  0.33333304  0.23375733
   0.33333354  0.66666675  0.23375733
   0.33333346  0.00000000  0.23375733
   0.33333367  0.33333304  0.23375733
   0.77777765  0.77777777  0.31173067
   0.77777756  0.11111101  0.31173067
   0.77777744  0.44444473  0.31173067
   0.11111131  0.77777777  0.31173067
   0.11111122  0.11111101  0.31173067
   0.11111110  0.44444473  0.31173067
   0.44444419  0.77777777  0.31173067
   0.44444468  0.11111101  0.31173067
   0.44444456  0.44444473  0.31173067
   0.88888887  0.88888878  0.38970400
   0.88888878  0.22222203  0.38970400
   0.88888866  0.55555574  0.38970400
   0.22222253  0.88888878  0.38970400
   0.22222245  0.22222203  0.38970400
   0.22222232  0.55555574  0.38970400
   0.55555541  0.88888878  0.38970400
   0.55555591  0.22222203  0.38970400
   0.55555520  0.55555574  0.38970400
   0.00000000  0.00000000  0.46643533
   0.00000021  0.33333304  0.46643533
   0.00000008  0.66666675  0.46643533
   0.33333346  0.00000000  0.46643533
   0.33333367  0.33333304  0.46643533
   0.33333354  0.66666675  0.46643533
   0.66666692  0.00000000  0.46643533
   0.66666655  0.33333304  0.46643533
   0.66666642  0.66666675  0.46643533
   0.11111122  0.11111101  0.54472667
   0.11111110  0.44444473  0.54472667
   0.11111131  0.77777777  0.54472667
   0.44444468  0.11111101  0.54472667
   0.44444456  0.44444473  0.54472667
   0.44444419  0.77777777  0.54472667
   0.77777756  0.11111101  0.54472667
   0.77777744  0.44444473  0.54472667
   0.77777765  0.77777777  0.54472667
   0.27777777  0.27777753  0.07873467
   0.27777764  0.61111125  0.07873467
   0.27777785  0.94444429  0.07873467
   0.61111123  0.27777753  0.07873467
   0.61111110  0.61111125  0.07873467
   0.61111131  0.94444429  0.07873467
   0.94444469  0.27777753  0.07873467
   0.94444456  0.61111125  0.07873467
   0.94444477  0.94444429  0.07873467
   0.38888865  0.38888922  0.15702600
   0.38888886  0.72222226  0.15702600
   0.38888878  0.05555551  0.15702600
   0.72222211  0.38888922  0.15702600
   0.72222232  0.72222226  0.15702600
   0.72222224  0.05555551  0.15702600
   0.05555519  0.38888922  0.15702600
   0.05555540  0.72222226  0.15702600
   0.05555532  0.05555551  0.15702600
   0.49999988  0.50000023  0.23375733
   0.50000009  0.83333327  0.23375733
   0.50000000  0.16666652  0.23375733
   0.83333334  0.50000023  0.23375733
   0.83333355  0.83333327  0.23375733
   0.83333346  0.16666652  0.23375733
   0.16666642  0.50000023  0.23375733
   0.16666663  0.83333327  0.23375733
   0.16666654  0.16666652  0.23375733
   0.61111110  0.61111125  0.31173067
   0.61111131  0.94444429  0.31173067
   0.61111123  0.27777753  0.31173067
   0.94444456  0.61111125  0.31173067
   0.94444477  0.94444429  0.31173067
   0.94444469  0.27777753  0.31173067
   0.27777764  0.61111125  0.31173067
   0.27777785  0.94444429  0.31173067
   0.27777777  0.27777753  0.31173067
   0.72222232  0.72222226  0.38970400
   0.72222224  0.05555551  0.38970400
   0.72222211  0.38888922  0.38970400
   0.05555540  0.72222226  0.38970400
   0.05555532  0.05555551  0.38970400
   0.05555519  0.38888922  0.38970400
   0.38888886  0.72222226  0.38970400
   0.38888878  0.05555551  0.38970400
   0.38888865  0.38888922  0.38970400
   0.83333355  0.83333327  0.46643533
   0.83333346  0.16666652  0.46643533
   0.83333334  0.50000023  0.46643533
   0.16666663  0.83333327  0.46643533
   0.16666654  0.16666652  0.46643533
   0.16666642  0.50000023  0.46643533
   0.50000009  0.83333327  0.46643533
   0.50000000  0.16666652  0.46643533
   0.49999988  0.50000023  0.46643533
   0.94444477  0.94444429  0.54472667
   0.94444469  0.27777753  0.54472667
   0.94444456  0.61111125  0.54472667
   0.27777785  0.94444429  0.54472667
   0.27777777  0.27777753  0.54472667
   0.27777764  0.61111125  0.54472667
   0.61111131  0.94444429  0.54472667
   0.61111123  0.27777753  0.54472667
   0.61111110  0.61111125  0.54472667
   0.27777783  0.44444473  0.07873467
   0.27777804  0.77777777  0.07873467
   0.27777795  0.11111101  0.07873467
   0.61111071  0.44444473  0.07873467
   0.61111092  0.77777777  0.07873467
   0.61111141  0.11111101  0.07873467
   0.94444417  0.44444473  0.07873467
   0.94444438  0.77777777  0.07873467
   0.94444429  0.11111101  0.07873467
   0.38888905  0.55555574  0.15702600
   0.38888868  0.88888878  0.15702600
   0.38888918  0.22222203  0.15702600
   0.72222193  0.55555574  0.15702600
   0.72222214  0.88888878  0.15702600
   0.72222205  0.22222203  0.15702600
   0.05555559  0.55555574  0.15702600
   0.05555580  0.88888878  0.15702600
   0.05555572  0.22222203  0.15702600
   0.49999969  0.66666675  0.23375733
   0.50000019  0.00000000  0.23375733
   0.50000040  0.33333304  0.23375733
   0.83333315  0.66666675  0.23375733
   0.83333307  0.00000000  0.23375733
   0.83333328  0.33333304  0.23375733
   0.16666681  0.66666675  0.23375733
   0.16666673  0.00000000  0.23375733
   0.16666694  0.33333304  0.23375733
   0.61111092  0.77777777  0.31173067
   0.61111141  0.11111101  0.31173067
   0.61111071  0.44444473  0.31173067
   0.94444438  0.77777777  0.31173067
   0.94444429  0.11111101  0.31173067
   0.94444417  0.44444473  0.31173067
   0.27777804  0.77777777  0.31173067
   0.27777795  0.11111101  0.31173067
   0.27777783  0.44444473  0.31173067
   0.72222214  0.88888878  0.38970400
   0.72222205  0.22222203  0.38970400
   0.72222193  0.55555574  0.38970400
   0.05555580  0.88888878  0.38970400
   0.05555572  0.22222203  0.38970400
   0.05555559  0.55555574  0.38970400
   0.38888868  0.88888878  0.38970400
   0.38888918  0.22222203  0.38970400
   0.38888905  0.55555574  0.38970400
   0.83333307  0.00000000  0.46643533
   0.83333328  0.33333304  0.46643533
   0.83333315  0.66666675  0.46643533
   0.16666673  0.00000000  0.46643533
   0.16666694  0.33333304  0.46643533
   0.16666681  0.66666675  0.46643533
   0.50000019  0.00000000  0.46643533
   0.50000040  0.33333304  0.46643533
   0.49999969  0.66666675  0.46643533
   0.94444429  0.11111101  0.54472667
   0.94444417  0.44444473  0.54472667
   0.94444438  0.77777777  0.54472667
   0.27777795  0.11111101  0.54472667
   0.27777783  0.44444473  0.54472667
   0.27777804  0.77777777  0.54472667
   0.61111141  0.11111101  0.54472667
   0.61111071  0.44444473  0.54472667
   0.61111092  0.77777777  0.54472667
   0.44444450  0.27777753  0.07873467
   0.44444437  0.61111125  0.07873467
   0.44444458  0.94444429  0.07873467
   0.77777796  0.27777753  0.07873467
   0.77777783  0.61111125  0.07873467
   0.77777804  0.94444429  0.07873467
   0.11111104  0.27777753  0.07873467
   0.11111091  0.61111125  0.07873467
   0.11111112  0.94444429  0.07873467
   0.55555538  0.38888922  0.15702600
   0.55555559  0.72222226  0.15702600
   0.55555551  0.05555551  0.15702600
   0.88888884  0.38888922  0.15702600
   0.88888905  0.72222226  0.15702600
   0.88888897  0.05555551  0.15702600
   0.22222192  0.38888922  0.15702600
   0.22222213  0.72222226  0.15702600
   0.22222205  0.05555551  0.15702600
   0.66666661  0.50000023  0.23375733
   0.66666682  0.83333327  0.23375733
   0.66666673  0.16666652  0.23375733
   0.99999969  0.50000023  0.23375733
   0.99999990  0.83333327  0.23375733
   0.99999981  0.16666652  0.23375733
   0.33333315  0.50000023  0.23375733
   0.33333336  0.83333327  0.23375733
   0.33333327  0.16666652  0.23375733
   0.77777783  0.61111125  0.31173067
   0.77777804  0.94444429  0.31173067
   0.77777796  0.27777753  0.31173067
   0.11111091  0.61111125  0.31173067
   0.11111112  0.94444429  0.31173067
   0.11111104  0.27777753  0.31173067
   0.44444437  0.61111125  0.31173067
   0.44444458  0.94444429  0.31173067
   0.44444450  0.27777753  0.31173067
   0.88888905  0.72222226  0.38970400
   0.88888897  0.05555551  0.38970400
   0.88888884  0.38888922  0.38970400
   0.22222213  0.72222226  0.38970400
   0.22222205  0.05555551  0.38970400
   0.22222192  0.38888922  0.38970400
   0.55555559  0.72222226  0.38970400
   0.55555551  0.05555551  0.38970400
   0.55555538  0.38888922  0.38970400
   0.99999990  0.83333327  0.46643533
   0.99999981  0.16666652  0.46643533
   0.99999969  0.50000023  0.46643533
   0.33333336  0.83333327  0.46643533
   0.33333327  0.16666652  0.46643533
   0.33333315  0.50000023  0.46643533
   0.66666682  0.83333327  0.46643533
   0.66666673  0.16666652  0.46643533
   0.66666661  0.50000023  0.46643533
   0.11111112  0.94444429  0.54472667
   0.11111104  0.27777753  0.54472667
   0.11111091  0.61111125  0.54472667
   0.44444458  0.94444429  0.54472667
   0.44444450  0.27777753  0.54472667
   0.44444437  0.61111125  0.54472667
   0.77777804  0.94444429  0.54472667
   0.77777796  0.27777753  0.54472667
   0.77777783  0.61111125  0.54472667
   0.33333315  0.50000023  0.58466667
   0.38888907  0.38888877  0.58466667
 
 position of ions in cartesian coordinates  (Angst):
   2.36204000-11.45372000 -6.61281000
   2.36204000-14.31714000-11.57241000
   2.36204000 -8.59029000 -1.65320000
   2.36204000-17.18057000 -6.61281000
   2.36204000-20.04400000-11.57241000
   2.36204000-14.31714000 -1.65320000
   2.36204000 -5.72686000 -6.61281000
   2.36204000 -8.59029000-11.57241000
   2.36204000 -2.86343000 -1.65320000
   4.71078000-14.31714000 -8.26601000
   4.71078000-17.18057000-13.22561000
   4.71078000-11.45372000 -3.30640000
   4.71078000-20.04400000 -8.26601000
   4.71078000-22.90743000-13.22561000
   4.71078000-17.18057000 -3.30640000
   4.71078000 -8.59029000 -8.26601000
   4.71078000-11.45372000-13.22561000
   4.71078000 -5.72686000 -3.30640000
   7.01272000-17.18057000 -9.91921000
   7.01272000-11.45372000  0.00000000
   7.01272000-14.31714000 -4.95960000
   7.01272000 -5.72686000 -9.91921000
   7.01272000  0.00000000  0.00000000
   7.01272000 -2.86343000 -4.95960000
   7.01272000-11.45372000 -9.91921000
   7.01272000 -5.72686000  0.00000000
   7.01272000 -8.59029000 -4.95960000
   9.35192000-20.04400000-11.57241000
   9.35192000-14.31714000 -1.65320000
   9.35192000-17.18057000 -6.61281000
   9.35192000 -8.59029000-11.57241000
   9.35192000 -2.86343000 -1.65320000
   9.35192000 -5.72686000 -6.61281000
   9.35192000-14.31714000-11.57241000
   9.35192000 -8.59029000 -1.65320000
   9.35192000-11.45372000 -6.61281000
  11.69112000-22.90743000-13.22561000
  11.69112000-17.18057000 -3.30640000
  11.69112000-20.04400000 -8.26601000
  11.69112000-11.45372000-13.22561000
  11.69112000 -5.72686000 -3.30640000
  11.69112000 -8.59029000 -8.26601000
  11.69112000-17.18057000-13.22561000
  11.69112000-11.45372000 -3.30640000
  11.69112000-14.31714000 -8.26601000
  13.99306000  0.00000000  0.00000000
  13.99306000 -2.86343000 -4.95960000
  13.99306000 -5.72686000 -9.91921000
  13.99306000 -5.72686000  0.00000000
  13.99306000 -8.59029000 -4.95960000
  13.99306000-11.45372000 -9.91921000
  13.99306000-11.45372000  0.00000000
  13.99306000-14.31714000 -4.95960000
  13.99306000-17.18057000 -9.91921000
  16.34180000 -2.86343000 -1.65320000
  16.34180000 -5.72686000 -6.61281000
  16.34180000 -8.59029000-11.57241000
  16.34180000 -8.59029000 -1.65320000
  16.34180000-11.45372000 -6.61281000
  16.34180000-14.31714000-11.57241000
  16.34180000-14.31714000 -1.65320000
  16.34180000-17.18057000 -6.61281000
  16.34180000-20.04400000-11.57241000
   2.36204000 -7.15857000 -4.13300000
   2.36204000-10.02200000 -9.09261000
   2.36204000-12.88543000-14.05221000
   2.36204000-12.88543000 -4.13300000
   2.36204000-15.74886000 -9.09261000
   2.36204000-18.61229000-14.05221000
   2.36204000-18.61229000 -4.13300000
   2.36204000-21.47572000 -9.09261000
   2.36204000-24.33915000-14.05221000
   4.71078000-10.02200000 -5.78621000
   4.71078000-12.88543000-10.74581000
   4.71078000 -7.15857000 -0.82660000
   4.71078000-15.74886000 -5.78621000
   4.71078000-18.61229000-10.74581000
   4.71078000-12.88543000 -0.82660000
   4.71078000 -4.29514000 -5.78621000
   4.71078000 -7.15857000-10.74581000
   4.71078000 -1.43171000 -0.82660000
   7.01272000-12.88543000 -7.43941000
   7.01272000-15.74886000-12.39901000
   7.01272000-10.02200000 -2.47980000
   7.01272000-18.61229000 -7.43941000
   7.01272000-21.47572000-12.39901000
   7.01272000-15.74886000 -2.47980000
   7.01272000 -7.15857000 -7.43941000
   7.01272000-10.02200000-12.39901000
   7.01272000 -4.29514000 -2.47980000
   9.35192000-15.74886000 -9.09261000
   9.35192000-18.61229000-14.05221000
   9.35192000-12.88543000 -4.13300000
   9.35192000-21.47572000 -9.09261000
   9.35192000-24.33915000-14.05221000
   9.35192000-18.61229000 -4.13300000
   9.35192000-10.02200000 -9.09261000
   9.35192000-12.88543000-14.05221000
   9.35192000 -7.15857000 -4.13300000
  11.69112000-18.61229000-10.74581000
  11.69112000-12.88543000 -0.82660000
  11.69112000-15.74886000 -5.78621000
  11.69112000 -7.15857000-10.74581000
  11.69112000 -1.43171000 -0.82660000
  11.69112000 -4.29514000 -5.78621000
  11.69112000-12.88543000-10.74581000
  11.69112000 -7.15857000 -0.82660000
  11.69112000-10.02200000 -5.78621000
  13.99306000-21.47572000-12.39901000
  13.99306000-15.74886000 -2.47980000
  13.99306000-18.61229000 -7.43941000
  13.99306000-10.02200000-12.39901000
  13.99306000 -4.29514000 -2.47980000
  13.99306000 -7.15857000 -7.43941000
  13.99306000-15.74886000-12.39901000
  13.99306000-10.02200000 -2.47980000
  13.99306000-12.88543000 -7.43941000
  16.34180000-24.33915000-14.05221000
  16.34180000-18.61229000 -4.13300000
  16.34180000-21.47572000 -9.09261000
  16.34180000-12.88543000-14.05221000
  16.34180000 -7.15857000 -4.13300000
  16.34180000-10.02200000 -9.09261000
  16.34180000-18.61229000-14.05221000
  16.34180000-12.88543000 -4.13300000
  16.34180000-15.74886000 -9.09261000
   2.36204000 -8.59029000 -6.61281000
   2.36204000-11.45372000-11.57241000
   2.36204000 -5.72686000 -1.65320000
   2.36204000-14.31714000 -6.61281000
   2.36204000-17.18057000-11.57241000
   2.36204000-11.45372000 -1.65320000
   2.36204000-20.04400000 -6.61281000
   2.36204000-22.90743000-11.57241000
   2.36204000-17.18057000 -1.65320000
   4.71078000-11.45372000 -8.26601000
   4.71078000-14.31714000-13.22561000
   4.71078000 -8.59029000 -3.30640000
   4.71078000-17.18057000 -8.26601000
   4.71078000-20.04400000-13.22561000
   4.71078000-14.31714000 -3.30640000
   4.71078000 -5.72686000 -8.26601000
   4.71078000 -8.59029000-13.22561000
   4.71078000 -2.86343000 -3.30640000
   7.01272000-14.31714000 -9.91921000
   7.01272000 -8.59029000  0.00000000
   7.01272000-11.45372000 -4.95960000
   7.01272000-20.04400000 -9.91921000
   7.01272000-14.31714000  0.00000000
   7.01272000-17.18057000 -4.95960000
   7.01272000 -8.59029000 -9.91921000
   7.01272000 -2.86343000  0.00000000
   7.01272000 -5.72686000 -4.95960000
   9.35192000-17.18057000-11.57241000
   9.35192000-11.45372000 -1.65320000
   9.35192000-14.31714000 -6.61281000
   9.35192000-22.90743000-11.57241000
   9.35192000-17.18057000 -1.65320000
   9.35192000-20.04400000 -6.61281000
   9.35192000-11.45372000-11.57241000
   9.35192000 -5.72686000 -1.65320000
   9.35192000 -8.59029000 -6.61281000
  11.69112000-20.04400000-13.22561000
  11.69112000-14.31714000 -3.30640000
  11.69112000-17.18057000 -8.26601000
  11.69112000 -8.59029000-13.22561000
  11.69112000 -2.86343000 -3.30640000
  11.69112000 -5.72686000 -8.26601000
  11.69112000-14.31714000-13.22561000
  11.69112000 -8.59029000 -3.30640000
  11.69112000-11.45372000 -8.26601000
  13.99306000-14.31714000  0.00000000
  13.99306000-17.18057000 -4.95960000
  13.99306000-20.04400000 -9.91921000
  13.99306000 -2.86343000  0.00000000
  13.99306000 -5.72686000 -4.95960000
  13.99306000 -8.59029000 -9.91921000
  13.99306000 -8.59029000  0.00000000
  13.99306000-11.45372000 -4.95960000
  13.99306000-14.31714000 -9.91921000
  16.34180000-17.18057000 -1.65320000
  16.34180000-20.04400000 -6.61281000
  16.34180000-22.90743000-11.57241000
  16.34180000 -5.72686000 -1.65320000
  16.34180000 -8.59029000 -6.61281000
  16.34180000-11.45372000-11.57241000
  16.34180000-11.45372000 -1.65320000
  16.34180000-14.31714000 -6.61281000
  16.34180000-17.18057000-11.57241000
   2.36204000-10.02200000 -4.13300000
   2.36204000-12.88543000 -9.09261000
   2.36204000-15.74886000-14.05221000
   2.36204000-15.74886000 -4.13300000
   2.36204000-18.61229000 -9.09261000
   2.36204000-21.47572000-14.05221000
   2.36204000 -4.29514000 -4.13300000
   2.36204000 -7.15857000 -9.09261000
   2.36204000-10.02200000-14.05221000
   4.71078000-12.88543000 -5.78621000
   4.71078000-15.74886000-10.74581000
   4.71078000-10.02200000 -0.82660000
   4.71078000-18.61229000 -5.78621000
   4.71078000-21.47572000-10.74581000
   4.71078000-15.74886000 -0.82660000
   4.71078000 -7.15857000 -5.78621000
   4.71078000-10.02200000-10.74581000
   4.71078000 -4.29514000 -0.82660000
   7.01272000-15.74886000 -7.43941000
   7.01272000-18.61229000-12.39901000
   7.01272000-12.88543000 -2.47980000
   7.01272000-21.47571346 -7.43941000
   7.01272000-24.33914346-12.39901000
   7.01272000-18.61228346 -2.47980000
   7.01272000-10.02200000 -7.43941000
   7.01272000-12.88543000-12.39901000
   7.01272000 -7.15857000 -2.47980000
   9.35192000-18.61229000 -9.09261000
   9.35192000-21.47572000-14.05221000
   9.35192000-15.74886000 -4.13300000
   9.35192000 -7.15857000 -9.09261000
   9.35192000-10.02200000-14.05221000
   9.35192000 -4.29514000 -4.13300000
   9.35192000-12.88543000 -9.09261000
   9.35192000-15.74886000-14.05221000
   9.35192000-10.02200000 -4.13300000
  11.69112000-21.47572000-10.74581000
  11.69112000-15.74886000 -0.82660000
  11.69112000-18.61229000 -5.78621000
  11.69112000-10.02200000-10.74581000
  11.69112000 -4.29514000 -0.82660000
  11.69112000 -7.15857000 -5.78621000
  11.69112000-15.74886000-10.74581000
  11.69112000-10.02200000 -0.82660000
  11.69112000-12.88543000 -5.78621000
  13.99306000-24.33914346-12.39901000
  13.99306000-18.61228346 -2.47980000
  13.99306000-21.47571346 -7.43941000
  13.99306000-12.88543000-12.39901000
  13.99306000 -7.15857000 -2.47980000
  13.99306000-10.02200000 -7.43941000
  13.99306000-18.61229000-12.39901000
  13.99306000-12.88543000 -2.47980000
  13.99306000-15.74886000 -7.43941000
  16.34180000-10.02200000-14.05221000
  16.34180000 -4.29514000 -4.13300000
  16.34180000 -7.15857000 -9.09261000
  16.34180000-15.74886000-14.05221000
  16.34180000-10.02200000 -4.13300000
  16.34180000-12.88543000 -9.09261000
  16.34180000-21.47572000-14.05221000
  16.34180000-15.74886000 -4.13300000
  16.34180000-18.61229000 -9.09261000
  17.54000000-10.02200000 -7.43941000
  17.54000000-10.02200333 -5.78620333
 


--------------------------------------------------------------------------------------------------------


 k-point  1 :   0.0000 0.0000 0.0000  plane waves:   90499
 k-point  2 :   0.5000 0.0000 0.0000  plane waves:   90530
 k-point  3 :   0.0000 0.5000 0.0000  plane waves:   90530

 maximum and minimum number of plane-waves per node :     90530    90499

 maximum number of plane-waves:     90530
 maximum index in each direction: 
   IXMAX=   24   IYMAX=   24   IZMAX=   42
   IXMIN=  -24   IYMIN=  -24   IZMIN=  -42


 serial   3D FFT for wavefunctions
 parallel 3D FFT for charge:
    minimum data exchange during FFTs selected (reduces bandwidth)


 total amount of memory used by VASP MPI-rank0   652140. kBytes
=======================================================================

   base      :      30000. kBytes
   nonlr-proj:      89919. kBytes
   fftplans  :      40601. kBytes
   grid      :      95147. kBytes
   one-center:       3950. kBytes
   wavefun   :     392523. kBytes
 
     INWAV:  cpu time    0.0000: real time    0.0000
 Broyden mixing: mesh for mixing (old mesh)
   NGX = 49   NGY = 49   NGZ = 85
  (NGX  =160   NGY  =160   NGZ  =256)
  gives a total of 204085 points

 initial charge density was supplied:
 charge density of overlapping atoms calculated
 number of electron     766.0000000 magnetization 
 keeping initial charge density in first step


--------------------------------------------------------------------------------------------------------


 Maximum index for non-local projection operator         4275
 Maximum index for augmentation-charges          758 (set IRDMAX)


--------------------------------------------------------------------------------------------------------


 First call to EWALD:  gamma=   0.090
 Maximum number of real-space cells 3x 3x 2
 Maximum number of reciprocal cells 2x 2x 4

    FEWALD:  cpu time    0.0270: real time    0.0271


----------------------------------------- Iteration    1(   1)  ---------------------------------------


    POTLOK:  cpu time    0.7057: real time    0.7702
    SETDIJ:  cpu time    0.0860: real time    0.0861
     EDDAV:  cpu time   18.4041: real time   20.7901
       DOS:  cpu time    0.0023: real time    0.0023
    --------------------------------------------
      LOOP:  cpu time   19.2003: real time   21.6614

 eigenvalue-minimisations  :  3144
 total energy-change (2. order) : 0.2139843E+04  (-0.1842682E+05)
 number of electron     766.0000000 magnetization 
 augmentation part      766.0000000 magnetization 

 Free energy of the ion-electron system (eV)
  ---------------------------------------------------
  alpha Z        PSCENC =       505.22967617
  Ewald energy   TEWEN  =     89088.29558350
  -Hartree energ DENC   =   -103141.28092710
  -exchange      EXHF   =         0.00000000
  -V(xc)+E(xc)   XCENC  =     -6604.40120574
  PAW double counting   =     17092.30507181    -9042.14386232
  entropy T*S    EENTRO =        -0.06428477
  eigenvalues    EBANDS =       222.70052857
  atomic energy  EATOM  =     14019.20197576
  Solvation  Ediel_sol  =         0.00000000
  ---------------------------------------------------
  free energy    TOTEN  =      2139.84255587 eV

  energy without entropy =     2139.90684064  energy(sigma->0) =     2139.87469825


--------------------------------------------------------------------------------------------------------




----------------------------------------- Iteration    1(   2)  ---------------------------------------


     EDDAV:  cpu time   22.9865: real time   25.8438
       DOS:  cpu time    0.0012: real time    0.0012
    --------------------------------------------
      LOOP:  cpu time   22.9889: real time   25.8485

 eigenvalue-minimisations  :  4236
 total energy-change (2. order) :-0.2878136E+04  (-0.2716951E+04)
 number of electron     766.0000000 magnetization 
 augmentation part      766.0000000 magnetization 

 Free energy of the ion-electron system (eV)
  ---------------------------------------------------
  alpha Z        PSCENC =       505.22967617
  Ewald energy   TEWEN  =     89088.29558350
  -Hartree energ DENC   =   -103141.28092710
  -exchange      EXHF   =         0.00000000
  -V(xc)+E(xc)   XCENC  =     -6604.40120574
  PAW double counting   =     17092.30507181    -9042.14386232
  entropy T*S    EENTRO =        -0.11839274
  eigenvalues    EBANDS =     -2655.38111740
  atomic energy  EATOM  =     14019.20197576
  Solvation  Ediel_sol  =         0.00000000
  ---------------------------------------------------
  free energy    TOTEN  =      -738.29319808 eV

  energy without entropy =     -738.17480533  energy(sigma->0) =     -738.23400171


--------------------------------------------------------------------------------------------------------




----------------------------------------- Iteration    1(   3)  ---------------------------------------


     EDDAV:  cpu time   25.0320: real time   28.0747
       DOS:  cpu time    0.0011: real time    0.0011
    --------------------------------------------
      LOOP:  cpu time   25.0344: real time   28.0781

 eigenvalue-minimisations  :  4704
 total energy-change (2. order) :-0.2147015E+03  (-0.2038906E+03)
 number of electron     766.0000000 magnetization 
 augmentation part      766.0000000 magnetization 

 Free energy of the ion-electron system (eV)
  ---------------------------------------------------
  alpha Z        PSCENC =       505.22967617
  Ewald energy   TEWEN  =     89088.29558350
  -Hartree energ DENC   =   -103141.28092710
  -exchange      EXHF   =         0.00000000
  -V(xc)+E(xc)   XCENC  =     -6604.40120574
  PAW double counting   =     17092.30507181    -9042.14386232
  entropy T*S    EENTRO =        -0.20882289
  eigenvalues    EBANDS =     -2869.99216835
  atomic energy  EATOM  =     14019.20197576
  Solvation  Ediel_sol  =         0.00000000
  ---------------------------------------------------
  free energy    TOTEN  =      -952.99467916 eV

  energy without entropy =     -952.78585628  energy(sigma->0) =     -952.89026772


--------------------------------------------------------------------------------------------------------




----------------------------------------- Iteration    1(   4)  ---------------------------------------


     EDDAV:  cpu time   24.8933: real time   27.8329
       DOS:  cpu time    0.0024: real time    0.0024
    --------------------------------------------
      LOOP:  cpu time   24.8969: real time   27.8376

 eigenvalue-minimisations  :  4644
 total energy-change (2. order) :-0.1009898E+02  (-0.9853082E+01)
 number of electron     766.0000000 magnetization 
 augmentation part      766.0000000 magnetization 

 Free energy of the ion-electron system (eV)
  ---------------------------------------------------
  alpha Z        PSCENC =       505.22967617
  Ewald energy   TEWEN  =     89088.29558350
  -Hartree energ DENC   =   -103141.28092710
  -exchange      EXHF   =         0.00000000
  -V(xc)+E(xc)   XCENC  =     -6604.40120574
  PAW double counting   =     17092.30507181    -9042.14386232
  entropy T*S    EENTRO =        -0.21750441
  eigenvalues    EBANDS =     -2880.08246600
  atomic energy  EATOM  =     14019.20197576
  Solvation  Ediel_sol  =         0.00000000
  ---------------------------------------------------
  free energy    TOTEN  =      -963.09365834 eV

  energy without entropy =     -962.87615393  energy(sigma->0) =     -962.98490614


--------------------------------------------------------------------------------------------------------




----------------------------------------- Iteration    1(   5)  ---------------------------------------


     EDDAV:  cpu time   25.6204: real time   28.7179
       DOS:  cpu time    0.0012: real time    0.0012
    CHARGE:  cpu time    1.6369: real time    1.6938
    MIXING:  cpu time    0.0229: real time    0.0229
    --------------------------------------------
      LOOP:  cpu time   27.2828: real time   30.4383

 eigenvalue-minimisations  :  4824
 total energy-change (2. order) :-0.4071893E+00  (-0.4024050E+00)
 number of electron     765.9999989 magnetization 
 augmentation part       -9.7630338 magnetization 

 Broyden mixing:
  rms(total) = 0.19763E+01    rms(broyden)= 0.19743E+01
  rms(prec ) = 0.26615E+01
  weight for this iteration     100.00

 Free energy of the ion-electron system (eV)
  ---------------------------------------------------
  alpha Z        PSCENC =       505.22967617
  Ewald energy   TEWEN  =     89088.29558350
  -Hartree energ DENC   =   -103141.28092710
  -exchange      EXHF   =         0.00000000
  -V(xc)+E(xc)   XCENC  =     -6604.40120574
  PAW double counting   =     17092.30507181    -9042.14386232
  entropy T*S    EENTRO =        -0.21790164
  eigenvalues    EBANDS =     -2880.48925808
  atomic energy  EATOM  =     14019.20197576
  Solvation  Ediel_sol  =         0.00000000
  ---------------------------------------------------
  free energy    TOTEN  =      -963.50084766 eV

  energy without entropy =     -963.28294601  energy(sigma->0) =     -963.39189684


--------------------------------------------------------------------------------------------------------




----------------------------------------- Iteration    1(   6)  ---------------------------------------


    POTLOK:  cpu time    0.6699: real time    0.6722
    SETDIJ:  cpu time    0.0861: real time    0.0863
     EDDAV:  cpu time   21.5373: real time   24.2642
       DOS:  cpu time    0.0024: real time    0.0024
    CHARGE:  cpu time    1.6404: real time    1.6723
    MIXING:  cpu time    0.0244: real time    0.0246
    --------------------------------------------
      LOOP:  cpu time   23.9625: real time   26.7307

 eigenvalue-minimisations  :  3876
 total energy-change (2. order) :-0.8246119E+01  (-0.1750169E+02)
 number of electron     765.9999994 magnetization 
 augmentation part       -9.8343284 magnetization 

 Broyden mixing:
  rms(total) = 0.17626E+01    rms(broyden)= 0.17625E+01
  rms(prec ) = 0.39183E+01
  weight for this iteration     100.00

 eigenvalues of (default mixing * dielectric matrix)
  average eigenvalue GAMMA=   0.8216
  0.8216

 Free energy of the ion-electron system (eV)
  ---------------------------------------------------
  alpha Z        PSCENC =       505.22967617
  Ewald energy   TEWEN  =     89088.29558350
  -Hartree energ DENC   =   -104045.46831380
  -exchange      EXHF   =         0.00000000
  -V(xc)+E(xc)   XCENC  =     -6593.03854671
  PAW double counting   =     19042.08548780   -10993.40321851
  entropy T*S    EENTRO =        -0.12569498
  eigenvalues    EBANDS =     -1994.52391544
  atomic energy  EATOM  =     14019.20197576
  Solvation  Ediel_sol  =         0.00000000
  ---------------------------------------------------
  free energy    TOTEN  =      -971.74696622 eV

  energy without entropy =     -971.62127124  energy(sigma->0) =     -971.68411873


--------------------------------------------------------------------------------------------------------




----------------------------------------- Iteration    1(   7)  ---------------------------------------


    POTLOK:  cpu time    0.6834: real time    0.6850
    SETDIJ:  cpu time    0.0868: real time    0.0871
     EDDAV:  cpu time   21.4990: real time   24.1916
       DOS:  cpu time    0.0089: real time    0.0089
    CHARGE:  cpu time    1.6300: real time    1.6620
    MIXING:  cpu time    0.0253: real time    0.0253
    --------------------------------------------
      LOOP:  cpu time   23.9350: real time   26.6624

 eigenvalue-minimisations  :  3864
 total energy-change (2. order) : 0.3146825E+02  (-0.1218706E+02)
 number of electron     765.9999992 magnetization 
 augmentation part      -10.0103442 magnetization 

 Broyden mixing:
  rms(total) = 0.10970E+01    rms(broyden)= 0.10964E+01
  rms(prec ) = 0.19103E+01
  weight for this iteration     100.00

 eigenvalues of (default mixing * dielectric matrix)
  average eigenvalue GAMMA=   0.7148
  1.1465  0.2832

 Free energy of the ion-electron system (eV)
  ---------------------------------------------------
  alpha Z        PSCENC =       505.22967617
  Ewald energy   TEWEN  =     89088.29558350
  -Hartree energ DENC   =   -103537.34880130
  -exchange      EXHF   =         0.00000000
  -V(xc)+E(xc)   XCENC  =     -6590.78233998
  PAW double counting   =     19444.46475589   -11395.93222130
  entropy T*S    EENTRO =        -0.09108169
  eigenvalues    EBANDS =     -2473.31626657
  atomic energy  EATOM  =     14019.20197576
  Solvation  Ediel_sol  =         0.00000000
  ---------------------------------------------------
  free energy    TOTEN  =      -940.27871952 eV

  energy without entropy =     -940.18763783  energy(sigma->0) =     -940.23317867


--------------------------------------------------------------------------------------------------------




----------------------------------------- Iteration    1(   8)  ---------------------------------------


    POTLOK:  cpu time    0.6839: real time    0.6862
    SETDIJ:  cpu time    0.0867: real time    0.0869
     EDDAV:  cpu time   24.2911: real time   27.2933
       DOS:  cpu time    0.0022: real time    0.0022
    CHARGE:  cpu time    1.6467: real time    1.6790
    MIXING:  cpu time    0.0261: real time    0.0262
    --------------------------------------------
      LOOP:  cpu time   26.7384: real time   29.7767

 eigenvalue-minimisations  :  4536
 total energy-change (2. order) :-0.1134949E+02  (-0.4191275E+01)
 number of electron     765.9999998 magnetization 
 augmentation part      -10.0322841 magnetization 

 Broyden mixing:
  rms(total) = 0.11190E+01    rms(broyden)= 0.11189E+01
  rms(prec ) = 0.32926E+01
  weight for this iteration     100.00

 eigenvalues of (default mixing * dielectric matrix)
  average eigenvalue GAMMA=   0.6760
  1.3338  0.4322  0.2618

 Free energy of the ion-electron system (eV)
  ---------------------------------------------------
  alpha Z        PSCENC =       505.22967617
  Ewald energy   TEWEN  =     89088.29558350
  -Hartree energ DENC   =   -103615.11661850
  -exchange      EXHF   =         0.00000000
  -V(xc)+E(xc)   XCENC  =     -6587.04132704
  PAW double counting   =     20112.53968652   -12064.35822480
  entropy T*S    EENTRO =        -0.10777912
  eigenvalues    EBANDS =     -2410.27118417
  atomic energy  EATOM  =     14019.20197576
  Solvation  Ediel_sol  =         0.00000000
  ---------------------------------------------------
  free energy    TOTEN  =      -951.62821168 eV

  energy without entropy =     -951.52043256  energy(sigma->0) =     -951.57432212


--------------------------------------------------------------------------------------------------------




----------------------------------------- Iteration    1(   9)  ---------------------------------------


    POTLOK:  cpu time    0.6845: real time    0.6866
    SETDIJ:  cpu time    0.0871: real time    0.0871
     EDDAV:  cpu time   22.5740: real time   25.3553
       DOS:  cpu time    0.0019: real time    0.0019
    CHARGE:  cpu time    1.6302: real time    1.6633
    MIXING:  cpu time    0.0272: real time    0.0274
    --------------------------------------------
      LOOP:  cpu time   25.0065: real time   27.8245

 eigenvalue-minimisations  :  4116
 total energy-change (2. order) : 0.1525389E+02  (-0.9894010E+00)
 number of electron     765.9999990 magnetization 
 augmentation part      -10.0360678 magnetization 

 Broyden mixing:
  rms(total) = 0.54743E+00    rms(broyden)= 0.54698E+00
  rms(prec ) = 0.82427E+00
  weight for this iteration     100.00

 eigenvalues of (default mixing * dielectric matrix)
  average eigenvalue GAMMA=   0.9019
  2.4629  0.7028  0.2989  0.1429

 Free energy of the ion-electron system (eV)
  ---------------------------------------------------
  alpha Z        PSCENC =       505.22967617
  Ewald energy   TEWEN  =     89088.29558350
  -Hartree energ DENC   =   -103722.11005030
  -exchange      EXHF   =         0.00000000
  -V(xc)+E(xc)   XCENC  =     -6583.67837608
  PAW double counting   =     20695.33840726   -12647.48674933
  entropy T*S    EENTRO =        -0.10123633
  eigenvalues    EBANDS =     -2291.06355127
  atomic energy  EATOM  =     14019.20197576
  Solvation  Ediel_sol  =         0.00000000
  ---------------------------------------------------
  free energy    TOTEN  =      -936.37432063 eV

  energy without entropy =     -936.27308430  energy(sigma->0) =     -936.32370246


--------------------------------------------------------------------------------------------------------




----------------------------------------- Iteration    1(  10)  ---------------------------------------


    POTLOK:  cpu time    0.6842: real time    0.6868
    SETDIJ:  cpu time    0.0869: real time    0.0870
     EDDAV:  cpu time   21.0629: real time   23.6753
       DOS:  cpu time    0.0014: real time    0.0014
    CHARGE:  cpu time    1.6323: real time    1.6649
    MIXING:  cpu time    0.0295: real time    0.0302
    --------------------------------------------
      LOOP:  cpu time   23.4989: real time   26.1608

 eigenvalue-minimisations  :  3732
 total energy-change (2. order) : 0.1668572E+01  (-0.1148446E+01)
 number of electron     765.9999992 magnetization 
 augmentation part      -10.0846854 magnetization 

 Broyden mixing:
  rms(total) = 0.23786E+00    rms(broyden)= 0.23765E+00
  rms(prec ) = 0.31177E+00
  weight for this iteration     100.00

 eigenvalues of (default mixing * dielectric matrix)
  average eigenvalue GAMMA=   0.8433
  2.5018  0.6341  0.6341  0.3047  0.1420

 Free energy of the ion-electron system (eV)
  ---------------------------------------------------
  alpha Z        PSCENC =       505.22967617
  Ewald energy   TEWEN  =     89088.29558350
  -Hartree energ DENC   =   -103882.93418675
  -exchange      EXHF   =         0.00000000
  -V(xc)+E(xc)   XCENC  =     -6575.31166704
  PAW double counting   =     21970.52770935   -13923.60730732
  entropy T*S    EENTRO =        -0.09000045
  eigenvalues    EBANDS =     -2136.01753169
  atomic energy  EATOM  =     14019.20197576
  Solvation  Ediel_sol  =         0.00000000
  ---------------------------------------------------
  free energy    TOTEN  =      -934.70574848 eV

  energy without entropy =     -934.61574802  energy(sigma->0) =     -934.66074825


--------------------------------------------------------------------------------------------------------




----------------------------------------- Iteration    1(  11)  ---------------------------------------


    POTLOK:  cpu time    0.6939: real time    0.6958
    SETDIJ:  cpu time    0.0870: real time    0.0871
     EDDAV:  cpu time   22.1452: real time   24.9542
       DOS:  cpu time    0.0011: real time    0.0011
    CHARGE:  cpu time    1.6225: real time    1.6540
    MIXING:  cpu time    0.0310: real time    0.0312
    --------------------------------------------
      LOOP:  cpu time   24.5823: real time   27.4261

 eigenvalue-minimisations  :  4020
 total energy-change (2. order) : 0.2196472E+00  (-0.2145408E+00)
 number of electron     765.9999992 magnetization 
 augmentation part      -10.1616261 magnetization 

 Broyden mixing:
  rms(total) = 0.10768E+00    rms(broyden)= 0.10745E+00
  rms(prec ) = 0.13781E+00
  weight for this iteration     100.00

 eigenvalues of (default mixing * dielectric matrix)
  average eigenvalue GAMMA=   0.8875
  2.3818  1.1874  0.6580  0.6580  0.2980  0.1419

 Free energy of the ion-electron system (eV)
  ---------------------------------------------------
  alpha Z        PSCENC =       505.22967617
  Ewald energy   TEWEN  =     89088.29558350
  -Hartree energ DENC   =   -103927.78185402
  -exchange      EXHF   =         0.00000000
  -V(xc)+E(xc)   XCENC  =     -6573.51420906
  PAW double counting   =     22169.38759185   -14122.76066255
  entropy T*S    EENTRO =        -0.09237118
  eigenvalues    EBANDS =     -2092.45183176
  atomic energy  EATOM  =     14019.20197576
  Solvation  Ediel_sol  =         0.00000000
  ---------------------------------------------------
  free energy    TOTEN  =      -934.48610129 eV

  energy without entropy =     -934.39373011  energy(sigma->0) =     -934.43991570


--------------------------------------------------------------------------------------------------------




----------------------------------------- Iteration    1(  12)  ---------------------------------------


    POTLOK:  cpu time    0.6887: real time    0.6906
    SETDIJ:  cpu time    0.0878: real time    0.0878
     EDDAV:  cpu time   22.1121: real time   24.9099
       DOS:  cpu time    0.0027: real time    0.0028
    CHARGE:  cpu time    1.6175: real time    1.6506
    MIXING:  cpu time    0.0310: real time    0.0310
    --------------------------------------------
      LOOP:  cpu time   24.5416: real time   27.3756

 eigenvalue-minimisations  :  4008
 total energy-change (2. order) : 0.1126738E-01  (-0.5053528E-01)
 number of electron     765.9999992 magnetization 
 augmentation part      -10.1901704 magnetization 

 Broyden mixing:
  rms(total) = 0.87588E-01    rms(broyden)= 0.87349E-01
  rms(prec ) = 0.11374E+00
  weight for this iteration     100.00

 eigenvalues of (default mixing * dielectric matrix)
  average eigenvalue GAMMA=   0.9887
  2.2929  2.2929  0.1419  0.2991  0.6620  0.6620  0.5699

 Free energy of the ion-electron system (eV)
  ---------------------------------------------------
  alpha Z        PSCENC =       505.22967617
  Ewald energy   TEWEN  =     89088.29558350
  -Hartree energ DENC   =   -103955.13074372
  -exchange      EXHF   =         0.00000000
  -V(xc)+E(xc)   XCENC  =     -6573.16284464
  PAW double counting   =     22157.30483454   -14110.88993915
  entropy T*S    EENTRO =        -0.08973656
  eigenvalues    EBANDS =     -2065.23363982
  atomic energy  EATOM  =     14019.20197576
  Solvation  Ediel_sol  =         0.00000000
  ---------------------------------------------------
  free energy    TOTEN  =      -934.47483391 eV

  energy without entropy =     -934.38509735  energy(sigma->0) =     -934.42996563


--------------------------------------------------------------------------------------------------------




----------------------------------------- Iteration    1(  13)  ---------------------------------------


    POTLOK:  cpu time    0.6881: real time    0.6918
    SETDIJ:  cpu time    0.0876: real time    0.0877
     EDDAV:  cpu time   20.8475: real time   23.4945
       DOS:  cpu time    0.0128: real time    0.0128
    CHARGE:  cpu time    1.6215: real time    1.6544
    MIXING:  cpu time    0.0335: real time    0.0337
    --------------------------------------------
      LOOP:  cpu time   23.2927: real time   25.9775

 eigenvalue-minimisations  :  3708
 total energy-change (2. order) : 0.3846135E-01  (-0.1139164E-01)
 number of electron     765.9999992 magnetization 
 augmentation part      -10.1861264 magnetization 

 Broyden mixing:
  rms(total) = 0.58138E-01    rms(broyden)= 0.58128E-01
  rms(prec ) = 0.80199E-01
  weight for this iteration     100.00

 eigenvalues of (default mixing * dielectric matrix)
  average eigenvalue GAMMA=   1.0036
  2.5172  2.5172  0.1419  0.2988  0.6953  0.6953  0.6340  0.5292

 Free energy of the ion-electron system (eV)
  ---------------------------------------------------
  alpha Z        PSCENC =       505.22967617
  Ewald energy   TEWEN  =     89088.29558350
  -Hartree energ DENC   =   -103994.29195138
  -exchange      EXHF   =         0.00000000
  -V(xc)+E(xc)   XCENC  =     -6572.66154137
  PAW double counting   =     22163.36752087   -14117.20408602
  entropy T*S    EENTRO =        -0.09267465
  eigenvalues    EBANDS =     -2026.28087544
  atomic energy  EATOM  =     14019.20197576
  Solvation  Ediel_sol  =         0.00000000
  ---------------------------------------------------
  free energy    TOTEN  =      -934.43637256 eV

  energy without entropy =     -934.34369791  energy(sigma->0) =     -934.39003523


--------------------------------------------------------------------------------------------------------




----------------------------------------- Iteration    1(  14)  ---------------------------------------


    POTLOK:  cpu time    0.6926: real time    0.6950
    SETDIJ:  cpu time    0.0870: real time    0.0871
     EDDAV:  cpu time   20.7026: real time   23.3120
       DOS:  cpu time    0.0018: real time    0.0018
    CHARGE:  cpu time    1.6187: real time    1.6503
    MIXING:  cpu time    0.0339: real time    0.0339
    --------------------------------------------
      LOOP:  cpu time   23.1383: real time   25.7833

 eigenvalue-minimisations  :  3660
 total energy-change (2. order) : 0.2959123E-01  (-0.5273178E-02)
 number of electron     765.9999992 magnetization 
 augmentation part      -10.1780920 magnetization 

 Broyden mixing:
  rms(total) = 0.28364E-01    rms(broyden)= 0.28337E-01
  rms(prec ) = 0.44454E-01
  weight for this iteration     100.00

 eigenvalues of (default mixing * dielectric matrix)
  average eigenvalue GAMMA=   1.0431
  2.5753  2.5753  0.9680  0.9680  0.6963  0.6963  0.1419  0.2990  0.4673

 Free energy of the ion-electron system (eV)
  ---------------------------------------------------
  alpha Z        PSCENC =       505.22967617
  Ewald energy   TEWEN  =     89088.29558350
  -Hartree energ DENC   =   -104028.64693563
  -exchange      EXHF   =         0.00000000
  -V(xc)+E(xc)   XCENC  =     -6572.12661696
  PAW double counting   =     22187.77965837   -14141.76333607
  entropy T*S    EENTRO =        -0.09013659
  eigenvalues    EBANDS =     -1992.28664987
  atomic energy  EATOM  =     14019.20197576
  Solvation  Ediel_sol  =         0.00000000
  ---------------------------------------------------
  free energy    TOTEN  =      -934.40678133 eV

  energy without entropy =     -934.31664475  energy(sigma->0) =     -934.36171304


--------------------------------------------------------------------------------------------------------




----------------------------------------- Iteration    1(  15)  ---------------------------------------


    POTLOK:  cpu time    0.6906: real time    0.6926
    SETDIJ:  cpu time    0.0872: real time    0.0876
     EDDAV:  cpu time   21.3973: real time   24.0818
       DOS:  cpu time    0.0011: real time    0.0011
    CHARGE:  cpu time    1.6223: real time    1.6524
    MIXING:  cpu time    0.0357: real time    0.0357
    --------------------------------------------
      LOOP:  cpu time   23.8359: real time   26.5538

 eigenvalue-minimisations  :  3840
 total energy-change (2. order) : 0.3119663E-02  (-0.2575541E-02)
 number of electron     765.9999992 magnetization 
 augmentation part      -10.1759172 magnetization 

 Broyden mixing:
  rms(total) = 0.16584E-01    rms(broyden)= 0.16575E-01
  rms(prec ) = 0.26908E-01
  weight for this iteration     100.00

 eigenvalues of (default mixing * dielectric matrix)
  average eigenvalue GAMMA=   1.1033
  2.7651  2.7651  1.4655  0.1419  0.2990  0.7230  0.7230  0.8830  0.7964  0.4714

 Free energy of the ion-electron system (eV)
  ---------------------------------------------------
  alpha Z        PSCENC =       505.22967617
  Ewald energy   TEWEN  =     89088.29558350
  -Hartree energ DENC   =   -104054.07334322
  -exchange      EXHF   =         0.00000000
  -V(xc)+E(xc)   XCENC  =     -6571.82979462
  PAW double counting   =     22191.05833582   -14145.05321567
  entropy T*S    EENTRO =        -0.08933772
  eigenvalues    EBANDS =     -1967.14354167
  atomic energy  EATOM  =     14019.20197576
  Solvation  Ediel_sol  =         0.00000000
  ---------------------------------------------------
  free energy    TOTEN  =      -934.40366167 eV

  energy without entropy =     -934.31432394  energy(sigma->0) =     -934.35899281


--------------------------------------------------------------------------------------------------------




----------------------------------------- Iteration    1(  16)  ---------------------------------------


    POTLOK:  cpu time    0.6913: real time    0.6936
    SETDIJ:  cpu time    0.0876: real time    0.0878
     EDDAV:  cpu time   20.8627: real time   23.4556
       DOS:  cpu time    0.0020: real time    0.0020
    CHARGE:  cpu time    1.6245: real time    1.6559
    MIXING:  cpu time    0.0387: real time    0.0387
    --------------------------------------------
      LOOP:  cpu time   23.3083: real time   25.9363

 eigenvalue-minimisations  :  3696
 total energy-change (2. order) :-0.4599621E-02  (-0.1093249E-02)
 number of electron     765.9999992 magnetization 
 augmentation part      -10.1737994 magnetization 

 Broyden mixing:
  rms(total) = 0.12050E-01    rms(broyden)= 0.12045E-01
  rms(prec ) = 0.18293E-01
  weight for this iteration     100.00

 eigenvalues of (default mixing * dielectric matrix)
  average eigenvalue GAMMA=   1.1701
  3.5069  2.6443  1.7881  0.1419  0.2990  0.9033  0.9033  0.7070  0.7070  0.8009
  0.4697

 Free energy of the ion-electron system (eV)
  ---------------------------------------------------
  alpha Z        PSCENC =       505.22967617
  Ewald energy   TEWEN  =     89088.29558350
  -Hartree energ DENC   =   -104076.77756862
  -exchange      EXHF   =         0.00000000
  -V(xc)+E(xc)   XCENC  =     -6571.65149474
  PAW double counting   =     22183.84267495   -14137.81892081
  entropy T*S    EENTRO =        -0.08834992
  eigenvalues    EBANDS =     -1944.64183758
  atomic energy  EATOM  =     14019.20197576
  Solvation  Ediel_sol  =         0.00000000
  ---------------------------------------------------
  free energy    TOTEN  =      -934.40826129 eV

  energy without entropy =     -934.31991137  energy(sigma->0) =     -934.36408633


--------------------------------------------------------------------------------------------------------




----------------------------------------- Iteration    1(  17)  ---------------------------------------


    POTLOK:  cpu time    0.7043: real time    0.7067
    SETDIJ:  cpu time    0.0873: real time    0.0873
     EDDAV:  cpu time   20.9404: real time   23.5927
       DOS:  cpu time    0.0088: real time    0.0088
    CHARGE:  cpu time    1.6333: real time    1.6639
[...]
     11.69112     -8.59029     -8.26601        -0.013024     -0.011301      0.014104
     11.69112    -17.18057    -13.22561        -0.011122     -0.005284     -0.018705
     11.69112    -11.45372     -3.30640        -0.006270     -0.013841      0.004675
     11.69112    -14.31714     -8.26601         0.013410      0.006115      0.015291
     13.99306      0.00000      0.00000         0.006436     -0.012960     -0.022863
     13.99306     -2.86343     -4.95960         0.020453      0.003800      0.000966
     13.99306     -5.72686     -9.91921         0.007255     -0.010107     -0.002934
     13.99306     -5.72686      0.00000         0.014038      0.007355     -0.001295
     13.99306     -8.59029     -4.95960         0.013577     -0.007267      0.023633
     13.99306    -11.45372     -9.91921        -0.014428      0.008140      0.030023
     13.99306    -11.45372      0.00000        -0.006133     -0.007472      0.036936
     13.99306    -14.31714     -4.95960         0.004912      0.026345     -0.005120
     13.99306    -17.18057     -9.91921        -0.006218     -0.011743     -0.015731
     16.34180     -2.86343     -1.65320        -0.021376     -0.003477     -0.014265
     16.34180     -5.72686     -6.61281         0.032120     -0.078427      0.004664
     16.34180     -8.59029    -11.57241         0.041537     -0.001193      0.013302
     16.34180     -8.59029     -1.65320         0.017509     -0.008021     -0.034335
     16.34180    -11.45372     -6.61281         0.778034      0.090373      0.055983
     16.34180    -14.31714    -11.57241        -0.002928      0.010998      0.002692
     16.34180    -14.31714     -1.65320        -0.001600      0.005934     -0.006751
     16.34180    -17.18057     -6.61281        -0.003814      0.018515     -0.002306
     16.34180    -20.04400    -11.57241        -0.007659     -0.016172      0.013253
      2.36204     -7.15857     -4.13300        -0.014986      0.013599      0.007251
      2.36204    -10.02200     -9.09261         0.002328      0.000000     -0.007396
      2.36204    -12.88543    -14.05221         0.013419      0.001460     -0.004711
      2.36204    -12.88543     -4.13300        -0.014986     -0.013599      0.007251
      2.36204    -15.74886     -9.09261         0.008089      0.004151      0.013962
      2.36204    -18.61229    -14.05221         0.007180     -0.000000     -0.013592
      2.36204    -18.61229     -4.13300         0.002885      0.000000     -0.017794
      2.36204    -21.47572     -9.09261         0.008089     -0.004151      0.013962
      2.36204    -24.33915    -14.05221         0.013419     -0.001460     -0.004711
      4.71078    -10.02200     -5.78621         0.015351      0.000000     -0.000421
      4.71078    -12.88543    -10.74581        -0.019210      0.000010     -0.002814
      4.71078     -7.15857     -0.82660        -0.014026     -0.004949     -0.004903
      4.71078    -15.74886     -5.78621        -0.018684      0.002734      0.012195
      4.71078    -18.61229    -10.74581        -0.009600      0.000000      0.008439
      4.71078    -12.88543     -0.82660        -0.014026      0.004949     -0.004903
      4.71078     -4.29514     -5.78621        -0.018684     -0.002734      0.012195
      4.71078     -7.15857    -10.74581        -0.019210     -0.000010     -0.002814
      4.71078     -1.43171     -0.82660        -0.004713      0.000000     -0.004693
      7.01272    -12.88543     -7.43941        -0.000718      0.010228      0.006071
      7.01272    -15.74886    -12.39901         0.008841     -0.016471      0.006950
      7.01272    -10.02200     -2.47980         0.019933      0.000000     -0.000115
      7.01272    -18.61229     -7.43941         0.017237      0.000000     -0.026605
      7.01272    -21.47572    -12.39901         0.008841      0.016471      0.006950
      7.01272    -15.74886     -2.47980         0.005450     -0.015174      0.005626
      7.01272     -7.15857     -7.43941        -0.000718     -0.010228      0.006071
      7.01272    -10.02200    -12.39901         0.003831      0.000000      0.003846
      7.01272     -4.29514     -2.47980         0.005450      0.015174      0.005626
      9.35192    -15.74886     -9.09261        -0.024429     -0.003872     -0.011463
      9.35192    -18.61229    -14.05221         0.000022     -0.000000      0.027649
      9.35192    -12.88543     -4.13300         0.005016     -0.003335      0.006036
      9.35192    -21.47572     -9.09261        -0.024429      0.003872     -0.011463
      9.35192    -24.33915    -14.05221        -0.001882     -0.001543     -0.018944
      9.35192    -18.61229     -4.13300         0.009727      0.000000     -0.009972
      9.35192    -10.02200     -9.09261        -0.000639      0.000000      0.004511
      9.35192    -12.88543    -14.05221        -0.001882      0.001543     -0.018944
      9.35192     -7.15857     -4.13300         0.005016      0.003335      0.006036
     11.69112    -18.61229    -10.74581         0.035170      0.000000      0.005494
     11.69112    -12.88543     -0.82660        -0.012772      0.010946     -0.015426
     11.69112    -15.74886     -5.78621        -0.011396      0.022063     -0.001559
     11.69112     -7.15857    -10.74581        -0.005749     -0.005647      0.004355
     11.69112     -1.43171     -0.82660        -0.005392      0.000000      0.000829
     11.69112     -4.29514     -5.78621        -0.011396     -0.022063     -0.001559
     11.69112    -12.88543    -10.74581        -0.005749      0.005647      0.004355
     11.69112     -7.15857     -0.82660        -0.012772     -0.010946     -0.015426
     11.69112    -10.02200     -5.78621         0.006011      0.000000     -0.025608
     13.99306    -21.47572    -12.39901         0.011024     -0.011180      0.015958
     13.99306    -15.74886     -2.47980        -0.001609     -0.031093      0.021537
     13.99306    -18.61229     -7.43941         0.002195      0.000000      0.002216
     13.99306    -10.02200    -12.39901         0.015286      0.000000      0.031025
     13.99306     -4.29514     -2.47980        -0.001609      0.031093      0.021537
     13.99306     -7.15857     -7.43941        -0.057273      0.027367     -0.061379
     13.99306    -15.74886    -12.39901         0.011024      0.011180      0.015958
     13.99306    -10.02200     -2.47980        -0.044204      0.000000      0.000735
     13.99306    -12.88543     -7.43941        -0.057273     -0.027367     -0.061379
     16.34180    -24.33915    -14.05221        -0.002636     -0.008242      0.003139
     16.34180    -18.61229     -4.13300        -0.011796      0.000000      0.020266
     16.34180    -21.47572     -9.09261         0.011433      0.003893      0.015904
     16.34180    -12.88543    -14.05221        -0.002636      0.008242      0.003139
     16.34180     -7.15857     -4.13300        -0.097760      0.138822      0.093503
     16.34180    -10.02200     -9.09261         0.484011     -0.000000      0.467574
     16.34180    -18.61229    -14.05221         0.002563      0.000000     -0.007707
     16.34180    -12.88543     -4.13300        -0.097760     -0.138822      0.093503
     16.34180    -15.74886     -9.09261         0.011433     -0.003893      0.015904
      2.36204     -8.59029     -6.61281         0.038022     -0.001151     -0.001907
      2.36204    -11.45372    -11.57241         0.004370      0.009202     -0.005073
      2.36204     -5.72686     -1.65320         0.007250      0.010054     -0.005493
      2.36204    -14.31714     -6.61281         0.007923     -0.008741     -0.001186
      2.36204    -17.18057    -11.57241         0.010911      0.018373      0.000635
      2.36204    -11.45372     -1.65320         0.015619     -0.000169      0.001354
      2.36204    -20.04400     -6.61281         0.004960      0.003219     -0.007123
      2.36204    -22.90743    -11.57241         0.018186      0.008286      0.007788
      2.36204    -17.18057     -1.65320         0.002128      0.007281      0.006856
      4.71078    -11.45372     -8.26601         0.013846      0.004396      0.008270
      4.71078    -14.31714    -13.22561        -0.014538      0.001220     -0.006741
      4.71078     -8.59029     -3.30640         0.000076      0.000213      0.004743
      4.71078    -17.18057     -8.26601        -0.017765     -0.002519     -0.004341
      4.71078    -20.04400    -13.22561        -0.009555     -0.003727      0.004524
      4.71078    -14.31714     -3.30640        -0.018466     -0.007890      0.001688
      4.71078     -5.72686     -8.26601        -0.011510      0.007224      0.000006
      4.71078     -8.59029    -13.22561        -0.016241      0.002930     -0.005109
      4.71078     -2.86343     -3.30640         0.004094      0.001597     -0.001767
      7.01272    -14.31714     -9.91921         0.016513      0.002456      0.003058
      7.01272     -8.59029      0.00000         0.024549     -0.000697     -0.005638
      7.01272    -11.45372     -4.95960        -0.012719     -0.005142      0.000759
      7.01272    -20.04400     -9.91921         0.031574      0.009569     -0.008341
      7.01272    -14.31714      0.00000         0.024378      0.004310     -0.001342
      7.01272    -17.18057     -4.95960         0.013163     -0.005683      0.012922
      7.01272     -8.59029     -9.91921         0.003182     -0.003387      0.012149
      7.01272     -2.86343      0.00000         0.014592      0.005804     -0.013594
      7.01272     -5.72686     -4.95960         0.012868     -0.013373     -0.008882
      9.35192    -17.18057    -11.57241        -0.001825     -0.008060     -0.001755
      9.35192    -11.45372     -1.65320         0.002248      0.018145     -0.010421
      9.35192    -14.31714     -6.61281         0.003016      0.015774      0.008092
      9.35192    -22.90743    -11.57241        -0.010748     -0.002637      0.002425
      9.35192    -17.18057     -1.65320         0.014264      0.007889      0.000584
      9.35192    -20.04400     -6.61281        -0.010690      0.013177      0.013851
      9.35192    -11.45372    -11.57241         0.013368      0.007718      0.015589
      9.35192     -5.72686     -1.65320        -0.000941      0.009298      0.005412
      9.35192     -8.59029     -6.61281         0.005164     -0.026833     -0.001113
     11.69112    -20.04400    -13.22561        -0.011122      0.005284     -0.018705
     11.69112    -14.31714     -3.30640        -0.013241      0.016194     -0.005766
     11.69112    -17.18057     -8.26601         0.005630      0.017763      0.014632
     11.69112     -8.59029    -13.22561        -0.017711     -0.002979      0.005699
     11.69112     -2.86343     -3.30640        -0.022712     -0.001721     -0.006101
     11.69112     -5.72686     -8.26601         0.013410     -0.006115      0.015291
     11.69112    -14.31714    -13.22561        -0.005424      0.011977     -0.008800
     11.69112     -8.59029     -3.30640        -0.006270      0.013841      0.004675
     11.69112    -11.45372     -8.26601        -0.013024      0.011301      0.014104
     13.99306    -14.31714      0.00000         0.014038     -0.007355     -0.001295
     13.99306    -17.18057     -4.95960         0.020453     -0.003800      0.000966
     13.99306    -20.04400     -9.91921        -0.006218      0.011743     -0.015731
     13.99306     -2.86343      0.00000         0.006436      0.012960     -0.022863
     13.99306     -5.72686     -4.95960         0.004912     -0.026345     -0.005120
     13.99306     -8.59029     -9.91921        -0.014428     -0.008140      0.030023
     13.99306     -8.59029      0.00000        -0.006133      0.007472      0.036936
     13.99306    -11.45372     -4.95960         0.013577      0.007267      0.023633
     13.99306    -14.31714     -9.91921         0.007255      0.010107     -0.002934
     16.34180    -17.18057     -1.65320        -0.021376      0.003477     -0.014265
     16.34180    -20.04400     -6.61281        -0.003814     -0.018515     -0.002306
     16.34180    -22.90743    -11.57241        -0.002928     -0.010998      0.002692
     16.34180     -5.72686     -1.65320        -0.001600     -0.005934     -0.006751
     16.34180     -8.59029     -6.61281         0.778034     -0.090373      0.055983
     16.34180    -11.45372    -11.57241         0.041537      0.001193      0.013302
     16.34180    -11.45372     -1.65320         0.017509      0.008021     -0.034335
     16.34180    -14.31714     -6.61281         0.032120      0.078427      0.004664
     16.34180    -17.18057    -11.57241        -0.007659      0.016172      0.013253
      2.36204    -10.02200     -4.13300         0.018824      0.000000      0.005469
      2.36204    -12.88543     -9.09261        -0.004389     -0.008007     -0.005700
      2.36204    -15.74886    -14.05221         0.003900     -0.003543      0.003492
      2.36204    -15.74886     -4.13300        -0.003347      0.005251     -0.007593
      2.36204    -18.61229     -9.09261        -0.005421      0.000000      0.015105
      2.36204    -21.47572    -14.05221         0.003900      0.003543      0.003492
      2.36204     -4.29514     -4.13300        -0.003347     -0.005251     -0.007593
      2.36204     -7.15857     -9.09261        -0.004389      0.008007     -0.005700
      2.36204    -10.02200    -14.05221        -0.006455      0.000000      0.007398
      4.71078    -12.88543     -5.78621         0.018476      0.004805     -0.009933
      4.71078    -15.74886    -10.74581        -0.018091      0.009201      0.003256
      4.71078    -10.02200     -0.82660        -0.017414      0.000000     -0.006534
      4.71078    -18.61229     -5.78621        -0.020695      0.000000      0.011857
      4.71078    -21.47572    -10.74581        -0.018091     -0.009201      0.003256
      4.71078    -15.74886     -0.82660        -0.015570     -0.004340     -0.006419
      4.71078     -7.15857     -5.78621         0.018476     -0.004805     -0.009933
      4.71078    -10.02200    -10.74581        -0.001092      0.000000      0.002497
      4.71078     -4.29514     -0.82660        -0.015570      0.004340     -0.006419
      7.01272    -15.74886     -7.43941         0.024142      0.006938     -0.016552
      7.01272    -18.61229    -12.39901         0.024346      0.000000      0.015865
      7.01272    -12.88543     -2.47980         0.009622      0.020735     -0.005181
      7.01272    -21.47571     -7.43941         0.024142     -0.006938     -0.016552
      7.01272    -24.33914    -12.39901         0.021061     -0.000918     -0.001175
      7.01272    -18.61228     -2.47980        -0.005713      0.000000      0.005959
      7.01272    -10.02200     -7.43941        -0.008959      0.000000     -0.003945
      7.01272    -12.88543    -12.39901         0.021061      0.000918     -0.001175
      7.01272     -7.15857     -2.47980         0.009622     -0.020735     -0.005181
      9.35192    -18.61229     -9.09261        -0.014995     -0.000000     -0.013720
      9.35192    -21.47572    -14.05221        -0.000608      0.011118     -0.001172
      9.35192    -15.74886     -4.13300         0.001437     -0.006379      0.009783
      9.35192     -7.15857     -9.09261         0.002084     -0.008482     -0.003270
      9.35192    -10.02200    -14.05221         0.013665      0.000000     -0.027602
      9.35192     -4.29514     -4.13300         0.001437      0.006379      0.009783
      9.35192    -12.88543     -9.09261         0.002084      0.008482     -0.003270
      9.35192    -15.74886    -14.05221        -0.000608     -0.011118     -0.001172
      9.35192    -10.02200     -4.13300        -0.007128      0.000000     -0.002171
     11.69112    -21.47572    -10.74581        -0.003703      0.000735     -0.002002
     11.69112    -15.74886     -0.82660        -0.023645     -0.009057     -0.010847
     11.69112    -18.61229     -5.78621        -0.019001      0.000000      0.015335
     11.69112    -10.02200    -10.74581         0.000700      0.000000      0.006522
     11.69112     -4.29514     -0.82660        -0.023645      0.009057     -0.010847
     11.69112     -7.15857     -5.78621        -0.019115     -0.002423      0.007332
     11.69112    -15.74886    -10.74581        -0.003703     -0.000735     -0.002002
     11.69112    -10.02200     -0.82660        -0.011056      0.000000     -0.017704
     11.69112    -12.88543     -5.78621        -0.019115      0.002423      0.007332
     13.99306    -24.33914    -12.39901         0.018172      0.003399      0.006894
     13.99306    -18.61228     -2.47980        -0.009113      0.000000      0.008508
     13.99306    -21.47571     -7.43941        -0.003853      0.019955     -0.014027
     13.99306    -12.88543    -12.39901         0.018172     -0.003399      0.006894
     13.99306     -7.15857     -2.47980        -0.013558      0.009376      0.001552
     13.99306    -10.02200     -7.43941        -0.135368      0.000000      0.022595
     13.99306    -18.61229    -12.39901        -0.027061      0.000000      0.019919
     13.99306    -12.88543     -2.47980        -0.013558     -0.009376      0.001552
     13.99306    -15.74886     -7.43941        -0.003853     -0.019955     -0.014027
     16.34180    -10.02200    -14.05221         0.005037      0.000000     -0.016676
     16.34180     -4.29514     -4.13300         0.003149      0.015441     -0.001594
     16.34180     -7.15857     -9.09261        -0.095969      0.227935     -0.130078
     16.34180    -15.74886    -14.05221        -0.002580     -0.011932     -0.006763
     16.34180    -10.02200     -4.13300         0.480616     -0.000000     -0.462838
     16.34180    -12.88543     -9.09261        -0.095969     -0.227935     -0.130078
     16.34180    -21.47572    -14.05221        -0.002580      0.011932     -0.006763
     16.34180    -15.74886     -4.13300         0.003149     -0.015441     -0.001594
     16.34180    -18.61229     -9.09261        -0.007445      0.000000     -0.006233
     17.54000    -10.02200     -7.43941        -0.954691     -0.000000      0.924107
     17.54000    -10.02200     -5.78620        -1.159520     -0.000000     -0.988502
 -----------------------------------------------------------------------------------
    total drift:                                0.214146      0.002207      0.000028


--------------------------------------------------------------------------------------------------------



  FREE ENERGIE OF THE ION-ELECTRON SYSTEM (eV)
  ---------------------------------------------------
  free  energy   TOTEN  =      -934.43049363 eV

  energy  without entropy=     -934.34281470  energy(sigma->0) =     -934.38665417
 


--------------------------------------------------------------------------------------------------------


    POTLOK:  cpu time    0.7910: real time    0.7933


--------------------------------------------------------------------------------------------------------


     LOOP+:  cpu time  721.1667: real time  804.6953
    4ORBIT:  cpu time    0.0000: real time    0.0000

 total amount of memory used by VASP MPI-rank0   652140. kBytes
=======================================================================

   base      :      30000. kBytes
   nonlr-proj:      89919. kBytes
   fftplans  :      40601. kBytes
   grid      :      95147. kBytes
   one-center:       3950. kBytes
   wavefun   :     392523. kBytes
 
  
  
 General timing and accounting informations for this job:
 ========================================================
  
                  Total CPU time used (sec):      735.357
                            User time (sec):      629.136
                          System time (sec):      106.221
                         Elapsed time (sec):      822.943
  
                   Maximum memory used (kb):     1005392.
                   Average memory used (kb):           0.
  
                          Minor page faults:     28064583
                          Major page faults:           36
                 Voluntary context switches:        19379
