 254 254   0   0
  0.2268316E+02  0.1514622E-08  0.1514622E-08  0.2900000E-08  0.5000000E-15
  1.000000000000000E-004
  CAR 
 NiAl                                    
      6.09769085    -25.39508041  301     -0.58650346      1.00000000
    -25.395  0.0000E+00  0.0000E+00
    -25.290  0.0000E+00  0.0000E+00
    -25.185  0.0000E+00  0.0000E+00
    -25.080  0.0000E+00  0.0000E+00
    -24.975  0.0000E+00  0.0000E+00
    -24.870  0.0000E+00  0.0000E+00
    -24.765  0.0000E+00  0.0000E+00
    -24.660  0.0000E+00  0.0000E+00
    -24.555  0.0000E+00  0.0000E+00
    -24.450  0.0000E+00  0.0000E+00
    -24.345  0.0000E+00  0.0000E+00
    -24.240  0.4521E-13  0.4746E-14
    -24.135  0.1094E-04  0.1149E-05
    -24.030  0.5532E+00  0.5807E-01
    -23.925  0.1580E+02  0.1717E+01
    -23.820  0.2694E+01  0.2000E+01
    -23.715  0.5026E-03  0.2000E+01
    -23.610  0.2235E-10  0.2000E+01
    -23.506  0.0000E+00  0.2000E+01
    -23.401  0.0000E+00  0.2000E+01
    -23.296  0.0000E+00  0.2000E+01
    -23.191  0.0000E+00  0.2000E+01
    -23.086  0.0000E+00  0.2000E+01
    -22.981  0.0000E+00  0.2000E+01
    -22.876  0.0000E+00  0.2000E+01
    -22.771  0.0000E+00  0.2000E+01
    -22.666  0.0000E+00  0.2000E+01
    -22.561  0.0000E+00  0.2000E+01
    -22.456  0.0000E+00  0.2000E+01
    -22.351  0.0000E+00  0.2000E+01
    -22.246  0.0000E+00  0.2000E+01
    -22.141  0.0000E+00  0.2000E+01
    -22.036  0.0000E+00  0.2000E+01
    -21.931  0.0000E+00  0.2000E+01
    -21.826  0.0000E+00  0.2000E+01
    -21.721  0.0000E+00  0.2000E+01
    -21.616  0.0000E+00  0.2000E+01
    -21.511  0.0000E+00  0.2000E+01
    -21.406  0.0000E+00  0.2000E+01
    -21.301  0.0000E+00  0.2000E+01
    -21.196  0.0000E+00  0.2000E+01
    -21.091  0.0000E+00  0.2000E+01
    -20.986  0.0000E+00  0.2000E+01
    -20.881  0.0000E+00  0.2000E+01
    -20.776  0.0000E+00  0.2000E+01
    -20.671  0.0000E+00  0.2000E+01
    -20.566  0.0000E+00  0.2000E+01
    -20.461  0.0000E+00  0.2000E+01
    -20.356  0.0000E+00  0.2000E+01
    -20.251  0.0000E+00  0.2000E+01
    -20.146  0.0000E+00  0.2000E+01
    -20.041  0.0000E+00  0.2000E+01
    -19.936  0.0000E+00  0.2000E+01
    -19.831  0.0000E+00  0.2000E+01
    -19.726  0.0000E+00  0.2000E+01
    -19.621  0.0000E+00  0.2000E+01
    -19.516  0.0000E+00  0.2000E+01
    -19.411  0.0000E+00  0.2000E+01
    -19.306  0.0000E+00  0.2000E+01
    -19.202  0.0000E+00  0.2000E+01
    -19.097  0.0000E+00  0.2000E+01
    -18.992  0.0000E+00  0.2000E+01
    -18.887  0.0000E+00  0.2000E+01
    -18.782  0.0000E+00  0.2000E+01
    -18.677  0.0000E+00  0.2000E+01
    -18.572  0.0000E+00  0.2000E+01
    -18.467  0.0000E+00  0.2000E+01
    -18.362  0.0000E+00  0.2000E+01
    -18.257  0.0000E+00  0.2000E+01
    -18.152  0.0000E+00  0.2000E+01
    -18.047  0.0000E+00  0.2000E+01
    -17.942  0.0000E+00  0.2000E+01
    -17.837  0.0000E+00  0.2000E+01
    -17.732  0.0000E+00  0.2000E+01
    -17.627  0.0000E+00  0.2000E+01
    -17.522  0.0000E+00  0.2000E+01
    -17.417  0.0000E+00  0.2000E+01
    -17.312  0.0000E+00  0.2000E+01
    -17.207  0.0000E+00  0.2000E+01
    -17.102  0.0000E+00  0.2000E+01
    -16.997  0.0000E+00  0.2000E+01
    -16.892  0.0000E+00  0.2000E+01
    -16.787  0.0000E+00  0.2000E+01
    -16.682  0.0000E+00  0.2000E+01
    -16.577  0.0000E+00  0.2000E+01
    -16.472  0.0000E+00  0.2000E+01
    -16.367  0.0000E+00  0.2000E+01
    -16.262  0.0000E+00  0.2000E+01
    -16.157  0.0000E+00  0.2000E+01
    -16.052  0.0000E+00  0.2000E+01
    -15.947  0.0000E+00  0.2000E+01
    -15.842  0.0000E+00  0.2000E+01
    -15.737  0.0000E+00  0.2000E+01
    -15.632  0.0000E+00  0.2000E+01
    -15.527  0.0000E+00  0.2000E+01
    -15.422  0.0000E+00  0.2000E+01
    -15.317  0.0000E+00  0.2000E+01
    -15.212  0.0000E+00  0.2000E+01
    -15.107  0.0000E+00  0.2000E+01
    -15.002  0.0000E+00  0.2000E+01
    -14.897  0.0000E+00  0.2000E+01
    -14.793  0.0000E+00  0.2000E+01
    -14.688  0.0000E+00  0.2000E+01
    -14.583  0.0000E+00  0.2000E+01
    -14.478  0.0000E+00  0.2000E+01
    -14.373  0.0000E+00  0.2000E+01
    -14.268  0.0000E+00  0.2000E+01
    -14.163  0.0000E+00  0.2000E+01
    -14.058  0.0000E+00  0.2000E+01
    -13.953  0.0000E+00  0.2000E+01
    -13.848  0.0000E+00  0.2000E+01
    -13.743  0.0000E+00  0.2000E+01
    -13.638  0.0000E+00  0.2000E+01
    -13.533  0.0000E+00  0.2000E+01
    -13.428  0.0000E+00  0.2000E+01
    -13.323  0.0000E+00  0.2000E+01
    -13.218  0.0000E+00  0.2000E+01
    -13.113  0.0000E+00  0.2000E+01
    -13.008  0.0000E+00  0.2000E+01
    -12.903  0.0000E+00  0.2000E+01
    -12.798  0.0000E+00  0.2000E+01
    -12.693  0.0000E+00  0.2000E+01
    -12.588  0.0000E+00  0.2000E+01
    -12.483  0.0000E+00  0.2000E+01
    -12.378  0.0000E+00  0.2000E+01
    -12.273  0.0000E+00  0.2000E+01
    -12.168  0.0000E+00  0.2000E+01
    -12.063  0.0000E+00  0.2000E+01
    -11.958  0.0000E+00  0.2000E+01
    -11.853  0.0000E+00  0.2000E+01
    -11.748  0.0000E+00  0.2000E+01
    -11.643  0.0000E+00  0.2000E+01
    -11.538  0.0000E+00  0.2000E+01
    -11.433  0.0000E+00  0.2000E+01
    -11.328  0.0000E+00  0.2000E+01
    -11.223  0.0000E+00  0.2000E+01
    -11.118  0.0000E+00  0.2000E+01
    -11.013  0.0000E+00  0.2000E+01
    -10.908  0.0000E+00  0.2000E+01
    -10.803  0.0000E+00  0.2000E+01
    -10.698  0.0000E+00  0.2000E+01
    -10.593  0.0000E+00  0.2000E+01
    -10.489  0.0000E+00  0.2000E+01
    -10.384  0.0000E+00  0.2000E+01
    -10.279  0.0000E+00  0.2000E+01
    -10.174  0.0000E+00  0.2000E+01
    -10.069  0.0000E+00  0.2000E+01
     -9.964  0.0000E+00  0.2000E+01
     -9.859  0.0000E+00  0.2000E+01
     -9.754  0.0000E+00  0.2000E+01
     -9.649  0.0000E+00  0.2000E+01
     -9.544  0.0000E+00  0.2000E+01
     -9.439  0.0000E+00  0.2000E+01
     -9.334  0.2922E-12  0.2000E+01
     -9.229  0.2096E-04  0.2000E+01
     -9.124  0.3344E+00  0.2035E+01
     -9.019  0.7348E+01  0.2806E+01
     -8.914  0.1624E+02  0.4511E+01
     -8.809  0.2305E+02  0.6931E+01
     -8.704  0.5418E+01  0.7500E+01
     -8.599  0.2621E+00  0.7527E+01
     -8.494  0.4127E+01  0.7961E+01
     -8.389  0.1426E+02  0.9457E+01
     -8.284  0.3792E+02  0.1344E+02
     -8.179  0.1519E+02  0.1503E+02
     -8.074  0.1859E+02  0.1698E+02
     -7.969  0.2429E+00  0.1701E+02
     -7.864  0.1714E+02  0.1881E+02
     -7.759  0.1191E+02  0.2006E+02
     -7.654  0.1994E+02  0.2215E+02
     -7.549  0.2709E+02  0.2500E+02
     -7.444  0.6873E+02  0.3221E+02
     -7.339  0.2737E+01  0.3250E+02
     -7.234  0.1993E-01  0.3250E+02
     -7.129  0.1431E+02  0.3400E+02
     -7.024  0.1086E+03  0.4540E+02
     -6.919  0.3234E+02  0.4880E+02
     -6.814  0.2444E+02  0.5136E+02
     -6.709  0.5835E+01  0.5197E+02
     -6.604  0.2809E+02  0.5492E+02
     -6.499  0.3304E+02  0.5839E+02
     -6.394  0.3751E+02  0.6233E+02
     -6.289  0.8017E+02  0.7075E+02
     -6.184  0.2204E+02  0.7306E+02
     -6.080  0.4000E+02  0.7726E+02
     -5.975  0.5842E+02  0.8339E+02
     -5.870  0.9300E+02  0.9315E+02
     -5.765  0.8104E+01  0.9400E+02
     -5.660  0.3684E+01  0.9439E+02
     -5.555  0.2512E+02  0.9703E+02
     -5.450  0.8161E+02  0.1056E+03
     -5.345  0.1547E+03  0.1218E+03
     -5.240  0.4884E+02  0.1270E+03
     -5.135  0.7942E+02  0.1353E+03
     -5.030  0.1133E+03  0.1472E+03
     -4.925  0.9214E+02  0.1569E+03
     -4.820  0.4390E+02  0.1615E+03
     -4.715  0.2484E+03  0.1875E+03
     -4.610  0.1630E+03  0.2047E+03
     -4.505  0.2428E+03  0.2301E+03
     -4.400  0.2420E+03  0.2555E+03
     -4.295  0.3137E+03  0.2885E+03
     -4.190  0.2434E+03  0.3140E+03
     -4.085  0.2441E+03  0.3396E+03
     -3.980  0.4028E+03  0.3819E+03
     -3.875  0.5012E+03  0.4345E+03
     -3.770  0.4625E+03  0.4831E+03
     -3.665  0.4680E+03  0.5322E+03
     -3.560  0.4541E+03  0.5799E+03
     -3.455  0.3746E+03  0.6192E+03
     -3.350  0.3495E+03  0.6559E+03
     -3.245  0.3896E+03  0.6968E+03
     -3.140  0.5618E+03  0.7558E+03
     -3.035  0.3862E+03  0.7963E+03
     -2.930  0.4757E+03  0.8463E+03
     -2.825  0.5842E+03  0.9076E+03
     -2.720  0.4829E+03  0.9583E+03
     -2.615  0.5472E+03  0.1016E+04
     -2.510  0.6461E+03  0.1084E+04
     -2.405  0.7160E+03  0.1159E+04
     -2.300  0.8415E+03  0.1247E+04
     -2.195  0.8984E+03  0.1341E+04
     -2.090  0.8173E+03  0.1427E+04
     -1.985  0.8912E+03  0.1521E+04
     -1.880  0.6063E+03  0.1584E+04
     -1.776  0.6011E+03  0.1647E+04
     -1.671  0.5535E+03  0.1706E+04
     -1.566  0.5462E+03  0.1763E+04
     -1.461  0.7065E+03  0.1837E+04
     -1.356  0.7967E+03  0.1921E+04
     -1.251  0.5052E+03  0.1974E+04
     -1.146  0.6451E+03  0.2041E+04
     -1.041  0.7558E+03  0.2121E+04
     -0.936  0.8871E+03  0.2214E+04
     -0.831  0.6263E+03  0.2280E+04
     -0.726  0.8115E+03  0.2365E+04
     -0.621  0.1171E+04  0.2488E+04
     -0.516  0.9909E+03  0.2592E+04
     -0.411  0.5014E+03  0.2644E+04
     -0.306  0.2073E+03  0.2666E+04
     -0.201  0.1161E+03  0.2678E+04
     -0.096  0.1600E+03  0.2695E+04
      0.009  0.1618E+03  0.2712E+04
      0.114  0.4039E+02  0.2716E+04
      0.219  0.6584E+02  0.2723E+04
      0.324  0.1606E+02  0.2725E+04
      0.429  0.1191E+03  0.2737E+04
      0.534  0.8045E+02  0.2746E+04
      0.639  0.1086E+03  0.2757E+04
      0.744  0.6268E+02  0.2764E+04
      0.849  0.1034E+03  0.2775E+04
      0.954  0.1367E+03  0.2789E+04
      1.059  0.8482E+02  0.2798E+04
      1.164  0.2192E+02  0.2800E+04
      1.269  0.6216E+02  0.2807E+04
      1.374  0.1148E+03  0.2819E+04
      1.479  0.3007E+02  0.2822E+04
      1.584  0.7308E+02  0.2830E+04
      1.689  0.9960E+02  0.2840E+04
      1.794  0.8684E+02  0.2849E+04
      1.899  0.7798E+02  0.2857E+04
      2.004  0.9895E+02  0.2868E+04
      2.109  0.3111E+02  0.2871E+04
      2.214  0.9785E+02  0.2881E+04
      2.319  0.1043E+03  0.2892E+04
      2.424  0.8461E+02  0.2901E+04
      2.529  0.2110E+02  0.2903E+04
      2.633  0.7905E+02  0.2912E+04
      2.738  0.5248E+02  0.2917E+04
      2.843  0.1576E+02  0.2919E+04
      2.948  0.6724E+02  0.2926E+04
      3.053  0.1626E+03  0.2943E+04
      3.158  0.1831E+03  0.2962E+04
      3.263  0.3647E+02  0.2966E+04
      3.368  0.2327E+02  0.2968E+04
      3.473  0.7515E+02  0.2976E+04
      3.578  0.6746E+02  0.2983E+04
      3.683  0.3318E+02  0.2987E+04
      3.788  0.7792E+02  0.2995E+04
      3.893  0.1112E+02  0.2996E+04
      3.998  0.2524E+02  0.2999E+04
      4.103  0.2334E+02  0.3001E+04
      4.208  0.8563E+02  0.3010E+04
      4.313  0.2215E+02  0.3013E+04
      4.418  0.8845E+02  0.3022E+04
      4.523  0.7477E+02  0.3030E+04
      4.628  0.3151E+02  0.3033E+04
      4.733  0.2678E+02  0.3036E+04
      4.838  0.3172E+00  0.3036E+04
      4.943  0.5328E-05  0.3036E+04
      5.048  0.2115E-13  0.3036E+04
      5.153  0.0000E+00  0.3036E+04
      5.258  0.0000E+00  0.3036E+04
      5.363  0.0000E+00  0.3036E+04
      5.468  0.0000E+00  0.3036E+04
      5.573  0.0000E+00  0.3036E+04
      5.678  0.0000E+00  0.3036E+04
      5.783  0.0000E+00  0.3036E+04
      5.888  0.0000E+00  0.3036E+04
      5.993  0.0000E+00  0.3036E+04
      6.098  0.0000E+00  0.3036E+04
