  254  254    1    1
  0.2268316E+02  0.1514622E-08  0.1514622E-08  0.2900000E-08  0.5000000E-15
  1.000000000000000E-004
  CAR 
 NiAl                                    
   2530      4   1518
 
  0.0000000E+00  0.0000000E+00  0.0000000E+00  0.2500000E+00
    1      -23.963250   1.000000
    2       -9.071648   1.000000
    3       -8.985068   1.000000
    4       -8.542327   1.000000
    5       -8.165278   1.000000
    6       -8.165016   1.000000
    7       -8.164868   1.000000
    8       -8.164787   1.000000
    9       -8.164681   1.000000
   10       -8.164578   1.000000
   11       -7.715789   1.000000
   12       -7.659673   1.000000
   13       -7.659401   1.000000
   14       -7.659329   1.000000
   15       -7.659232   1.000000
   16       -7.659140   1.000000
   17       -7.659000   1.000000
   18       -7.053023   1.000000
   19       -7.045930   1.000000
   20       -6.874229   1.000000
   21       -6.874086   1.000000
   22       -6.873992   1.000000
   23       -6.873851   1.000000
   24       -6.873777   1.000000
   25       -6.873709   1.000000
   26       -6.690877   1.000000
   27       -6.529580   1.000000
   28       -6.529447   1.000000
   29       -6.529332   1.000000
   30       -6.529270   1.000000
   31       -6.529142   1.000000
   32       -6.528996   1.000000
   33       -6.109421   1.000000
   34       -6.109377   1.000000
   35       -6.109302   1.000000
   36       -6.109182   1.000000
   37       -6.109053   1.000000
   38       -6.108993   1.000000
   39       -5.908260   1.000000
   40       -5.908250   1.000000
   41       -5.908232   1.000000
   42       -5.908203   1.000000
   43       -5.908186   1.000000
   44       -5.908129   1.000000
   45       -5.908064   1.000000
   46       -5.908038   1.000000
   47       -5.907949   1.000000
   48       -5.907854   1.000000
   49       -5.907806   1.000000
   50       -5.907705   1.000000
   51       -5.680689   1.000000
   52       -5.576875   1.000000
   53       -5.576833   1.000000
   54       -5.576812   1.000000
   55       -5.576789   1.000000
   56       -5.576773   1.000000
   57       -5.576768   1.000000
   58       -5.505309   1.000000
   59       -5.482441   1.000000
   60       -5.482318   1.000000
   61       -5.482254   1.000000
   62       -5.482201   1.000000
   63       -5.482091   1.000000
   64       -5.481998   1.000000
   65       -5.129274   1.000000
   66       -5.129258   1.000000
   67       -5.129236   1.000000
   68       -5.129223   1.000000
   69       -5.129196   1.000000
   70       -5.129149   1.000000
   71       -5.046306   1.000000
   72       -4.972277   1.000000
   73       -4.972165   1.000000
   74       -4.972055   1.000000
   75       -4.971917   1.000000
   76       -4.971866   1.000000
   77       -4.971767   1.000000
   78       -4.874077   1.000000
   79       -4.799228   1.000000
   80       -4.799217   1.000000
   81       -4.799161   1.000000
   82       -4.760154   1.000000
   83       -4.760126   1.000000
   84       -4.760074   1.000000
   85       -4.759889   1.000000
   86       -4.759829   1.000000
   87       -4.759804   1.000000
   88       -4.676426   1.000000
   89       -4.676388   1.000000
   90       -4.676373   1.000000
   91       -4.676344   1.000000
   92       -4.676328   1.000000
   93       -4.676252   1.000000
   94       -4.658239   1.000000
   95       -4.658212   1.000000
   96       -4.658126   1.000000
   97       -4.565563   1.000000
   98       -4.565554   1.000000
   99       -4.565534   1.000000
  100       -4.565524   1.000000
  101       -4.565357   1.000000
  102       -4.565311   1.000000
  103       -4.565287   1.000000
  104       -4.565161   1.000000
  105       -4.565107   1.000000
  106       -4.565066   1.000000
  107       -4.565010   1.000000
  108       -4.564986   1.000000
  109       -4.523405   1.000000
  110       -4.523362   1.000000
  111       -4.523306   1.000000
  112       -4.452771   1.000000
  113       -4.452706   1.000000
  114       -4.452645   1.000000
  115       -4.418477   1.000000
  116       -4.418222   1.000000
  117       -4.418121   1.000000
  118       -4.417982   1.000000
  119       -4.417874   1.000000
  120       -4.417717   1.000000
  121       -4.361959   1.000000
  122       -4.361937   1.000000
  123       -4.361878   1.000000
  124       -4.361865   1.000000
  125       -4.361804   1.000000
  126       -4.361765   1.000000
  127       -4.361630   1.000000
  128       -4.361610   1.000000
  129       -4.361554   1.000000
  130       -4.361514   1.000000
  131       -4.361457   1.000000
  132       -4.361452   1.000000
  133       -4.351251   1.000000
  134       -4.351203   1.000000
  135       -4.351153   1.000000
  136       -4.351129   1.000000
  137       -4.350999   1.000000
  138       -4.350958   1.000000
  139       -4.350894   1.000000
  140       -4.350817   1.000000
  141       -4.350784   1.000000
  142       -4.350745   1.000000
  143       -4.350680   1.000000
  144       -4.350536   1.000000
  145       -4.305218   1.000000
  146       -4.304892   1.000000
  147       -4.304714   1.000000
  148       -4.304510   1.000000
  149       -4.304461   1.000000
  150       -4.304299   1.000000
  151       -4.268689   1.000000
  152       -4.268642   1.000000
  153       -4.268600   1.000000
  154       -4.268592   1.000000
  155       -4.268531   1.000000
  156       -4.268477   1.000000
  157       -4.248125   1.000000
  158       -4.248046   1.000000
  159       -4.247964   1.000000
  160       -4.210140   1.000000
  161       -4.210064   1.000000
  162       -4.210036   1.000000
  163       -4.209967   1.000000
  164       -4.209911   1.000000
  165       -4.209896   1.000000
  166       -4.209780   1.000000
  167       -4.209726   1.000000
  168       -4.209723   1.000000
  169       -4.209660   1.000000
  170       -4.209604   1.000000
  171       -4.209527   1.000000
  172       -4.147134   1.000000
  173       -4.147131   1.000000
  174       -4.146954   1.000000
  175       -4.118612   1.000000
  176       -4.118497   1.000000
  177       -4.118407   1.000000
  178       -4.118340   1.000000
  179       -4.118261   1.000000
  180       -4.118149   1.000000
  181       -4.039884   1.000000
  182       -4.039880   1.000000
  183       -4.039777   1.000000
  184       -4.012333   1.000000
  185       -4.012279   1.000000
  186       -4.012195   1.000000
  187       -4.012144   1.000000
  188       -4.012114   1.000000
  189       -4.012039   1.000000
  190       -4.011970   1.000000
  191       -4.011950   1.000000
  192       -4.011902   1.000000
  193       -4.011857   1.000000
  194       -4.011828   1.000000
  195       -4.011711   1.000000
  196       -3.977969   1.000000
  197       -3.977950   1.000000
  198       -3.977813   1.000000
  199       -3.914423   1.000000
  200       -3.914367   1.000000
  201       -3.914236   1.000000
  202       -3.912910   1.000000
  203       -3.912870   1.000000
  204       -3.912861   1.000000
  205       -3.912807   1.000000
  206       -3.912761   1.000000
  207       -3.912621   1.000000
  208       -3.867657   1.000000
  209       -3.867577   1.000000
  210       -3.867523   1.000000
  211       -3.867435   1.000000
  212       -3.867323   1.000000
  213       -3.867198   1.000000
  214       -3.867105   1.000000
  215       -3.867068   1.000000
  216       -3.866973   1.000000
  217       -3.866946   1.000000
  218       -3.866813   1.000000
  219       -3.866765   1.000000
  220       -3.855895   1.000000
  221       -3.855867   1.000000
  222       -3.855839   1.000000
  223       -3.855760   1.000000
  224       -3.855715   1.000000
  225       -3.855634   1.000000
  226       -3.772978   1.000000
  227       -3.772948   1.000000
  228       -3.772860   1.000000
  229       -3.772806   1.000000
  230       -3.772733   1.000000
  231       -3.772691   1.000000
  232       -3.772648   1.000000
  233       -3.772629   1.000000
  234       -3.772603   1.000000
  235       -3.772508   1.000000
  236       -3.772443   1.000000
  237       -3.772411   1.000000
  238       -3.741292   1.000000
  239       -3.741256   1.000000
  240       -3.741177   1.000000
  241       -3.740910   1.000000
  242       -3.740846   1.000000
  243       -3.740779   1.000000
  244       -3.725536   1.000000
  245       -3.725485   1.000000
  246       -3.724939   1.000000
  247       -3.724922   1.000000
  248       -3.721264   1.000000
  249       -3.721242   1.000000
  250       -3.721191   1.000000
  251       -3.721166   1.000000
  252       -3.721144   1.000000
  253       -3.721028   1.000000
  254       -3.715638   1.000000
  255       -3.715272   1.000000
  256       -3.675506   1.000000
  257       -3.675443   1.000000
  258       -3.675327   1.000000
  259       -3.675254   1.000000
  260       -3.675232   1.000000
  261       -3.675041   1.000000
  262       -3.674979   1.000000
  263       -3.674943   1.000000
  264       -3.674920   1.000000
  265       -3.674828   1.000000
  266       -3.674738   1.000000
  267       -3.674708   1.000000
  268       -3.665089   1.000000
  269       -3.665087   1.000000
  270       -3.664993   1.000000
  271       -3.616286   1.000000
  272       -3.616244   1.000000
  273       -3.616223   1.000000
  274       -3.616165   1.000000
  275       -3.616031   1.000000
  276       -3.616000   1.000000
  277       -3.609000   1.000000
  278       -3.608962   1.000000
  279       -3.608853   1.000000
  280       -3.608807   1.000000
  281       -3.589098   1.000000
  282       -3.589087   1.000000
  283       -3.573614   1.000000
  284       -3.573400   1.000000
  285       -3.573165   1.000000
  286       -3.573143   1.000000
  287       -3.572995   1.000000
  288       -3.572688   1.000000
  289       -3.562474   1.000000
  290       -3.562447   1.000000
  291       -3.561597   1.000000
  292       -3.561553   1.000000
  293       -3.557222   1.000000
  294       -3.557135   1.000000
  295       -3.492302   1.000000
  296       -3.492294   1.000000
  297       -3.491058   1.000000
  298       -3.491042   1.000000
  299       -3.486149   1.000000
  300       -3.486058   1.000000
  301       -3.486022   1.000000
  302       -3.485991   1.000000
  303       -3.485915   1.000000
  304       -3.485797   1.000000
  305       -3.485762   1.000000
  306       -3.485710   1.000000
  307       -3.485674   1.000000
  308       -3.485618   1.000000
  309       -3.485587   1.000000
  310       -3.485563   1.000000
  311       -3.439319   1.000000
  312       -3.439191   1.000000
  313       -3.439167   1.000000
  314       -3.438817   1.000000
  315       -3.438689   1.000000
  316       -3.438658   1.000000
  317       -3.403834   1.000000
  318       -3.403496   1.000000
  319       -3.403383   1.000000
  320       -3.403325   1.000000
  321       -3.403173   1.000000
  322       -3.402943   1.000000
  323       -3.400283   1.000000
  324       -3.400197   1.000000
  325       -3.400148   1.000000
  326       -3.400070   1.000000
  327       -3.400058   1.000000
  328       -3.399931   1.000000
  329       -3.399894   1.000000
  330       -3.399841   1.000000
  331       -3.399775   1.000000
  332       -3.399734   1.000000
  333       -3.399652   1.000000
  334       -3.399572   1.000000
  335       -3.383655   1.000000
  336       -3.383613   1.000000
  337       -3.383535   1.000000
  338       -3.383531   1.000000
  339       -3.383501   1.000000
  340       -3.383389   1.000000
  341       -3.289051   1.000000
  342       -3.289003   1.000000
  343       -3.288985   1.000000
  344       -3.263731   1.000000
  345       -3.263658   1.000000
  346       -3.263618   1.000000
  347       -3.263271   1.000000
  348       -3.263224   1.000000
  349       -3.263148   1.000000
  350       -3.224124   1.000000
  351       -3.224088   1.000000
  352       -3.210139   1.000000
  353       -3.210105   1.000000
  354       -3.210066   1.000000
  355       -3.209990   1.000000
  356       -3.209969   1.000000
  357       -3.209931   1.000000
  358       -3.209918   1.000000
  359       -3.209855   1.000000
  360       -3.209829   1.000000
  361       -3.209751   1.000000
  362       -3.209723   1.000000
  363       -3.209679   1.000000
  364       -3.183621   1.000000
  365       -3.183599   1.000000
  366       -3.145726   1.000000
  367       -3.145678   1.000000
  368       -3.145645   1.000000
  369       -3.145616   1.000000
  370       -3.145602   1.000000
  371       -3.145533   1.000000
  372       -3.140012   1.000000
  373       -3.139887   1.000000
  374       -3.139808   1.000000
  375       -3.139756   1.000000
  376       -3.139690   1.000000
  377       -3.139597   1.000000
  378       -3.136418   1.000000
  379       -3.136321   1.000000
  380       -3.136132   1.000000
  381       -3.136054   1.000000
  382       -3.135990   1.000000
  383       -3.135838   1.000000
  384       -3.069775   1.000000
  385       -3.069755   1.000000
  386       -3.069643   1.000000
  387       -3.069607   1.000000
  388       -3.069584   1.000000
  389       -3.069546   1.000000
  390       -3.069500   1.000000
  391       -3.069497   1.000000
  392       -3.069465   1.000000
  393       -3.069418   1.000000
  394       -3.069359   1.000000
  395       -3.069321   1.000000
  396       -3.032689   1.000000
  397       -3.032571   1.000000
  398       -3.032446   1.000000
  399       -3.032210   1.000000
  400       -3.032093   1.000000
  401       -3.032034   1.000000
  402       -2.960634   1.000000
  403       -2.960572   1.000000
  404       -2.960494   1.000000
  405       -2.960479   1.000000
  406       -2.960367   1.000000
  407       -2.960253   1.000000
  408       -2.948981   1.000000
  409       -2.948901   1.000000
  410       -2.948802   1.000000
  411       -2.948616   1.000000
  412       -2.948562   1.000000
  413       -2.948478   1.000000
  414       -2.932666   1.000000
  415       -2.932661   1.000000
  416       -2.932637   1.000000
  417       -2.932569   1.000000
  418       -2.932546   1.000000
  419       -2.932524   1.000000
  420       -2.910203   1.000000
  421       -2.910126   1.000000
  422       -2.909951   1.000000
  423       -2.909930   1.000000
  424       -2.909895   1.000000
  425       -2.909826   1.000000
  426       -2.888564   1.000000
  427       -2.888504   1.000000
  428       -2.888449   1.000000
  429       -2.888378   1.000000
  430       -2.888359   1.000000
  431       -2.888299   1.000000
  432       -2.888276   1.000000
  433       -2.888234   1.000000
  434       -2.888153   1.000000
  435       -2.888110   1.000000
  436       -2.888096   1.000000
  437       -2.887986   1.000000
  438       -2.885843   1.000000
  439       -2.885817   1.000000
  440       -2.885798   1.000000
  441       -2.885778   1.000000
  442       -2.885747   1.000000
  443       -2.885724   1.000000
  444       -2.825241   1.000000
  445       -2.825217   1.000000
  446       -2.825180   1.000000
  447       -2.821848   1.000000
  448       -2.821788   1.000000
  449       -2.821718   1.000000
  450       -2.821684   1.000000
  451       -2.821571   1.000000
  452       -2.821508   1.000000
  453       -2.815550   1.000000
  454       -2.815512   1.000000
  455       -2.815399   1.000000
  456       -2.815357   1.000000
  457       -2.815316   1.000000
  458       -2.815307   1.000000
  459       -2.815267   1.000000
  460       -2.815257   1.000000
  461       -2.815177   1.000000
  462       -2.815151   1.000000
  463       -2.815141   1.000000
  464       -2.815108   1.000000
  465       -2.764077   1.000000
  466       -2.764015   1.000000
  467       -2.763620   1.000000
  468       -2.763573   1.000000
  469       -2.731035   1.000000
  470       -2.731006   1.000000
  471       -2.730939   1.000000
  472       -2.730880   1.000000
  473       -2.730767   1.000000
  474       -2.730591   1.000000
  475       -2.728030   1.000000
  476       -2.727969   1.000000
  477       -2.727937   1.000000
  478       -2.727855   1.000000
  479       -2.727629   1.000000
  480       -2.727592   1.000000
  481       -2.723016   1.000000
  482       -2.722849   1.000000
  483       -2.722819   1.000000
  484       -2.722671   1.000000
  485       -2.722637   1.000000
  486       -2.722563   1.000000
  487       -2.707777   1.000000
  488       -2.707748   1.000000
  489       -2.707706   1.000000
  490       -2.707684   1.000000
  491       -2.707663   1.000000
  492       -2.707579   1.000000
  493       -2.707569   1.000000
  494       -2.707501   1.000000
  495       -2.707492   1.000000
  496       -2.707483   1.000000
  497       -2.707450   1.000000
  498       -2.707383   1.000000
  499       -2.700628   1.000000
  500       -2.700580   1.000000
  501       -2.671569   1.000000
  502       -2.671514   1.000000
  503       -2.671476   1.000000
  504       -2.671441   1.000000
  505       -2.671224   1.000000
  506       -2.671094   1.000000
  507       -2.637573   1.000000
  508       -2.637508   1.000000
  509       -2.637488   1.000000
  510       -2.637454   1.000000
  511       -2.637442   1.000000
  512       -2.637423   1.000000
  513       -2.633383   1.000000
  514       -2.604034   1.000000
  515       -2.604025   1.000000
  516       -2.602922   1.000000
  517       -2.602910   1.000000
  518       -2.598021   1.000000
  519       -2.597929   1.000000
  520       -2.597875   1.000000
  521       -2.597829   1.000000
  522       -2.597752   1.000000
  523       -2.597706   1.000000
  524       -2.592436   1.000000
  525       -2.545984   1.000000
  526       -2.545935   1.000000
  527       -2.545872   1.000000
  528       -2.545832   1.000000
  529       -2.545817   1.000000
  530       -2.545769   1.000000
  531       -2.545737   1.000000
  532       -2.545677   1.000000
  533       -2.545586   1.000000
  534       -2.545578   1.000000
  535       -2.545559   1.000000
  536       -2.545478   1.000000
  537       -2.534945   1.000000
  538       -2.534882   1.000000
  539       -2.534773   1.000000
  540       -2.534725   1.000000
  541       -2.534684   1.000000
  542       -2.534657   1.000000
  543       -2.532902   1.000000
  544       -2.532887   1.000000
  545       -2.532749   1.000000
  546       -2.508062   1.000000
  547       -2.508006   1.000000
  548       -2.507937   1.000000
  549       -2.497520   1.000000
  550       -2.497498   1.000000
  551       -2.497474   1.000000
  552       -2.497431   1.000000
  553       -2.497339   1.000000
  554       -2.497270   1.000000
  555       -2.479703   1.000000
  556       -2.479612   1.000000
  557       -2.479551   1.000000
  558       -2.479537   1.000000
  559       -2.479450   1.000000
  560       -2.479424   1.000000
  561       -2.468436   1.000000
  562       -2.468418   1.000000
  563       -2.468407   1.000000
  564       -2.468386   1.000000
  565       -2.468361   1.000000
  566       -2.468354   1.000000
  567       -2.468315   1.000000
  568       -2.468287   1.000000
  569       -2.468265   1.000000
  570       -2.468220   1.000000
  571       -2.468167   1.000000
  572       -2.468123   1.000000
  573       -2.464331   1.000000
  574       -2.464105   1.000000
  575       -2.443673   1.000000
  576       -2.443535   1.000000
  577       -2.422629   1.000000
  578       -2.422578   1.000000
  579       -2.422528   1.000000
  580       -2.422464   1.000000
  581       -2.422450   1.000000
  582       -2.422380   1.000000
  583       -2.422268   1.000000
  584       -2.422190   1.000000
  585       -2.422112   1.000000
  586       -2.422081   1.000000
  587       -2.421917   1.000000
  588       -2.421877   1.000000
  589       -2.397345   1.000000
  590       -2.397294   1.000000
  591       -2.397239   1.000000
  592       -2.397130   1.000000
  593       -2.397102   1.000000
  594       -2.396999   1.000000
  595       -2.392448   1.000000
  596       -2.379467   1.000000
  597       -2.379449   1.000000
  598       -2.379271   1.000000
  599       -2.378055   1.000000
  600       -2.377959   1.000000
  601       -2.377798   1.000000
  602       -2.377628   1.000000
  603       -2.377461   1.000000
  604       -2.377396   1.000000
  605       -2.373447   1.000000
  606       -2.373323   1.000000
  607       -2.373208   1.000000
  608       -2.373118   1.000000
  609       -2.373019   1.000000
  610       -2.372940   1.000000
  611       -2.367413   1.000000
  612       -2.367188   1.000000
  613       -2.309364   1.000000
  614       -2.309216   1.000000
  615       -2.309189   1.000000
  616       -2.309072   1.000000
  617       -2.309000   1.000000
  618       -2.308928   1.000000
  619       -2.308469   1.000000
  620       -2.301395   1.000000
  621       -2.301236   1.000000
  622       -2.300935   1.000000
  623       -2.300853   1.000000
  624       -2.300800   1.000000
  625       -2.275775   1.000000
  626       -2.275739   1.000000
  627       -2.275667   1.000000
  628       -2.275648   1.000000
  629       -2.275558   1.000000
  630       -2.275489   1.000000
  631       -2.274224   1.000000
  632       -2.274087   1.000000
  633       -2.273937   1.000000
  634       -2.273858   1.000000
  635       -2.273747   1.000000
  636       -2.273507   1.000000
  637       -2.253944   1.000000
  638       -2.253939   1.000000
  639       -2.253835   1.000000
  640       -2.250100   1.000000
  641       -2.250077   1.000000
  642       -2.249964   1.000000
  643       -2.241119   1.000000
  644       -2.240904   1.000000
  645       -2.220006   1.000000
  646       -2.219986   1.000000
  647       -2.219924   1.000000
  648       -2.219881   1.000000
  649       -2.219862   1.000000
  650       -2.219820   1.000000
  651       -2.219813   1.000000
  652       -2.219768   1.000000
  653       -2.219687   1.000000
  654       -2.219572   1.000000
  655       -2.219542   1.000000
  656       -2.219445   1.000000
  657       -2.208786   1.000000
  658       -2.208712   1.000000
  659       -2.208685   1.000000
  660       -2.208648   1.000000
  661       -2.208555   1.000000
  662       -2.208503   1.000000
  663       -2.206560   1.000000
  664       -2.206553   1.000000
  665       -2.206522   1.000000
  666       -2.206421   1.000000
  667       -2.206290   1.000000
  668       -2.206256   1.000000
  669       -2.202341   1.000000
  670       -2.202332   1.000000
  671       -2.200657   1.000000
  672       -2.200656   1.000000
  673       -2.166091   1.000000
  674       -2.166074   1.000000
  675       -2.166026   1.000000
  676       -2.165953   1.000000
  677       -2.165850   1.000000
  678       -2.165791   1.000000
  679       -2.155780   1.000000
  680       -2.155686   1.000000
  681       -2.155638   1.000000
  682       -2.155601   1.000000
  683       -2.155522   1.000000
  684       -2.155485   1.000000
  685       -2.143515   1.000000
  686       -2.113073   1.000000
  687       -2.113040   1.000000
  688       -2.113005   1.000000
  689       -2.112941   1.000000
  690       -2.112890   1.000000
  691       -2.112867   1.000000
  692       -2.112807   1.000000
  693       -2.112728   1.000000
  694       -2.112648   1.000000
  695       -2.112615   1.000000
  696       -2.112553   1.000000
  697       -2.112438   1.000000
  698       -2.110672   1.000000
  699       -2.110479   1.000000
  700       -2.103396   1.000000
  701       -2.103173   1.000000
  702       -2.103055   1.000000
  703       -2.102941   1.000000
  704       -2.102892   1.000000
  705       -2.102670   1.000000
  706       -2.102029   1.000000
  707       -2.101831   1.000000
  708       -2.101435   1.000000
  709       -2.101430   1.000000
  710       -2.101116   1.000000
  711       -2.101097   1.000000
  712       -2.101023   1.000000
  713       -2.100881   1.000000
  714       -2.100697   1.000000
  715       -2.100579   1.000000
  716       -2.099390   1.000000
  717       -2.099385   1.000000
  718       -2.082383   1.000000
  719       -2.082318   1.000000
  720       -2.082241   1.000000
  721       -2.082000   1.000000
  722       -2.081921   1.000000
  723       -2.081790   1.000000
  724       -2.026363   1.000000
  725       -2.026353   1.000000
  726       -2.026347   1.000000
  727       -2.026294   1.000000
  728       -2.026281   1.000000
  729       -2.026202   1.000000
  730       -2.021828   1.000000
  731       -2.021806   1.000000
  732       -2.021750   1.000000
  733       -2.021702   1.000000
  734       -2.021666   1.000000
  735       -2.021595   1.000000
  736       -2.021571   1.000000
  737       -2.021536   1.000000
  738       -2.021487   1.000000
  739       -2.021419   1.000000
  740       -2.021409   1.000000
  741       -2.021355   1.000000
  742       -1.986320   1.000000
  743       -1.986245   1.000000
  744       -1.986161   1.000000
  745       -1.986019   1.000000
  746       -1.985894   1.000000
  747       -1.985758   1.000000
  748       -1.980116   1.000000
  749       -1.980059   1.000000
  750       -1.979943   1.000000
  751       -1.979883   1.000000
  752       -1.979841   1.000000
  753       -1.979748   1.000000
  754       -1.929612   1.000000
  755       -1.929594   1.000000
  756       -1.929446   1.000000
  757       -1.929378   1.000000
  758       -1.929325   1.000000
  759       -1.929256   1.000000
  760       -1.923181   1.000000
  761       -1.923111   1.000000
  762       -1.923100   1.000000
  763       -1.923073   1.000000
  764       -1.923018   1.000000
  765       -1.922975   1.000000
  766       -1.922946   1.000000
  767       -1.922926   1.000000
  768       -1.922893   1.000000
  769       -1.922859   1.000000
  770       -1.922830   1.000000
  771       -1.922771   1.000000
  772       -1.922021   1.000000
  773       -1.921911   1.000000
  774       -1.921705   1.000000
  775       -1.921670   1.000000
  776       -1.921644   1.000000
  777       -1.921429   1.000000
  778       -1.892349   1.000000
  779       -1.892317   1.000000
  780       -1.892233   1.000000
  781       -1.884839   1.000000
  782       -1.884759   1.000000
  783       -1.884646   1.000000
  784       -1.884439   1.000000
  785       -1.884289   1.000000
  786       -1.884249   1.000000
  787       -1.864054   1.000000
  788       -1.864049   1.000000
  789       -1.863894   1.000000
  790       -1.863860   1.000000
  791       -1.863692   1.000000
  792       -1.863643   1.000000
  793       -1.840621   1.000000
  794       -1.840543   1.000000
  795       -1.840437   1.000000
  796       -1.840377   1.000000
  797       -1.840253   1.000000
  798       -1.840187   1.000000
  799       -1.830480   1.000000
  800       -1.830470   1.000000
  801       -1.830454   1.000000
  802       -1.830440   1.000000
  803       -1.830421   1.000000
  804       -1.830390   1.000000
  805       -1.802673   1.000000
  806       -1.802627   1.000000
  807       -1.802569   1.000000
  808       -1.802553   1.000000
  809       -1.802482   1.000000
  810       -1.802457   1.000000
  811       -1.802380   1.000000
  812       -1.802325   1.000000
  813       -1.802283   1.000000
  814       -1.802267   1.000000
  815       -1.802200   1.000000
  816       -1.802180   1.000000
  817       -1.761983   1.000000
  818       -1.761959   1.000000
  819       -1.761932   1.000000
  820       -1.761905   1.000000
  821       -1.761889   1.000000
  822       -1.761850   1.000000
  823       -1.761820   1.000000
  824       -1.761789   1.000000
  825       -1.761719   1.000000
  826       -1.761707   1.000000
  827       -1.761684   1.000000
  828       -1.761641   1.000000
  829       -1.755559   1.000000
  830       -1.755448   1.000000
  831       -1.755350   1.000000
  832       -1.755280   1.000000
  833       -1.755209   1.000000
  834       -1.755132   1.000000
  835       -1.753419   1.000000
  836       -1.753248   1.000000
  837       -1.753084   1.000000
  838       -1.752931   1.000000
  839       -1.752812   1.000000
  840       -1.752716   1.000000
  841       -1.747729   1.000000
  842       -1.747715   1.000000
  843       -1.747588   1.000000
  844       -1.747354   1.000000
  845       -1.747295   1.000000
  846       -1.747193   1.000000
  847       -1.733027   1.000000
  848       -1.732960   1.000000
  849       -1.732942   1.000000
  850       -1.732874   1.000000
  851       -1.732779   1.000000
  852       -1.732652   1.000000
  853       -1.719279   1.000000
  854       -1.719201   1.000000
  855       -1.719119   1.000000
  856       -1.691090   1.000000
  857       -1.691057   1.000000
  858       -1.691040   1.000000
  859       -1.691023   1.000000
  860       -1.690998   1.000000
  861       -1.690992   1.000000
  862       -1.676526   1.000000
  863       -1.676489   1.000000
  864       -1.676459   1.000000
  865       -1.674914   1.000000
  866       -1.674865   1.000000
  867       -1.674747   1.000000
  868       -1.674679   1.000000
  869       -1.674637   1.000000
  870       -1.674577   1.000000
  871       -1.625901   1.000000
  872       -1.625854   1.000000
  873       -1.625763   1.000000
  874       -1.625718   1.000000
  875       -1.625687   1.000000
  876       -1.625653   1.000000
  877       -1.625575   1.000000
  878       -1.625571   1.000000
  879       -1.625505   1.000000
  880       -1.625454   1.000000
  881       -1.625436   1.000000
  882       -1.625393   1.000000
  883       -1.610991   1.000000
  884       -1.610834   1.000000
  885       -1.610772   1.000000
  886       -1.610692   1.000000
  887       -1.610637   1.000000
  888       -1.610511   1.000000
  889       -1.580504   1.000000
  890       -1.576905   1.000000
  891       -1.576825   1.000000
  892       -1.576747   1.000000
  893       -1.576627   1.000000
  894       -1.576558   1.000000
  895       -1.576489   1.000000
  896       -1.507727   1.000000
  897       -1.507657   1.000000
  898       -1.507601   1.000000
  899       -1.507576   1.000000
  900       -1.507543   1.000000
  901       -1.507466   1.000000