       N       E                     dE             d eps       ncg     rms          rms(c)
DAV:   1     0.181918081961E+05    0.18192E+05   -0.91661E+05 12240   0.112E+03
DAV:   2    -0.165511242721E+03   -0.18357E+05   -0.17376E+05 12840   0.399E+02
DAV:   3    -0.140887319582E+04   -0.12434E+04   -0.10279E+04 14052   0.103E+02
DAV:   4    -0.157456935333E+04   -0.16570E+03   -0.14718E+03 21756   0.379E+01
DAV:   5    -0.158066323950E+04   -0.60939E+01   -0.57834E+01 20244   0.702E+00    0.146E+02
DAV:   6    -0.184718610171E+04   -0.26652E+03   -0.32088E+03 13608   0.139E+02    0.246E+02
DAV:   7    -0.192473462605E+04   -0.77549E+02   -0.13553E+03 13224   0.146E+02    0.198E+02
DAV:   8    -0.153640732185E+04    0.38833E+03   -0.51984E+02 15684   0.654E+01    0.170E+02
DAV:   9    -0.146619608775E+04    0.70211E+02   -0.34807E+02 13884   0.755E+01    0.157E+02
DAV:  10    -0.237275968850E+04   -0.90656E+03   -0.26135E+02 13956   0.119E+02    0.293E+02
DAV:  11    -0.163493566603E+04    0.73782E+03   -0.25934E+02 14568   0.743E+01    0.234E+02
DAV:  12    -0.142666294634E+04    0.20827E+03   -0.19822E+02 13788   0.453E+01    0.140E+02
DAV:  13    -0.142227036369E+04    0.43926E+01   -0.11957E+02 14820   0.497E+01    0.174E+02
DAV:  14    -0.134890529718E+04    0.73365E+02   -0.67128E+01 14256   0.291E+01    0.104E+02
DAV:  15    -0.133103223983E+04    0.17873E+02   -0.45970E+01 14544   0.274E+01    0.834E+01
DAV:  16    -0.133631665739E+04   -0.52844E+01   -0.28157E+01 13248   0.263E+01    0.875E+01
DAV:  17    -0.133118240105E+04    0.51343E+01   -0.13315E+01 13416   0.109E+01    0.834E+01
DAV:  18    -0.133062583408E+04    0.55657E+00   -0.65894E+00 13176   0.865E+00    0.858E+01
DAV:  19    -0.132007235836E+04    0.10553E+02   -0.58777E+00 13200   0.103E+01    0.586E+01
DAV:  20    -0.131722727726E+04    0.28451E+01   -0.37307E+00 13344   0.881E+00    0.531E+01
DAV:  21    -0.131638852946E+04    0.83875E+00   -0.34186E+00 13416   0.816E+00    0.524E+01
DAV:  22    -0.131530440967E+04    0.10841E+01   -0.34543E+00 13344   0.815E+00    0.547E+01
DAV:  23    -0.131253842264E+04    0.27660E+01   -0.27202E+00 13296   0.690E+00    0.468E+01
DAV:  24    -0.131021614804E+04    0.23223E+01   -0.19217E+00 13272   0.544E+00    0.393E+01
DAV:  25    -0.130917242310E+04    0.10437E+01   -0.11640E+00 13260   0.397E+00    0.350E+01
DAV:  26    -0.130804877268E+04    0.11237E+01   -0.90494E-01 13260   0.370E+00    0.281E+01
DAV:  27    -0.130715048208E+04    0.89829E+00   -0.55844E-01 13248   0.308E+00    0.222E+01
DAV:  28    -0.130693010955E+04    0.22037E+00   -0.29086E-01 13440   0.226E+00    0.211E+01
DAV:  29    -0.130676618792E+04    0.16392E+00   -0.30939E-01 13344   0.229E+00    0.209E+01
DAV:  30    -0.130637625923E+04    0.38993E+00   -0.27200E-01 13320   0.213E+00    0.183E+01
DAV:  31    -0.130630818083E+04    0.68078E-01   -0.23417E-01 13296   0.198E+00    0.183E+01
DAV:  32    -0.130636952544E+04   -0.61345E-01   -0.40960E-01 13392   0.254E+00    0.190E+01
DAV:  33    -0.130635118486E+04    0.18341E-01   -0.68007E-01 13356   0.347E+00    0.197E+01
DAV:  34    -0.130590212127E+04    0.44906E+00   -0.67138E-01 13296   0.332E+00    0.178E+01
DAV:  35    -0.130576181127E+04    0.14031E+00   -0.32820E-01 13368   0.191E+00    0.172E+01
DAV:  36    -0.130567129957E+04    0.90512E-01   -0.19900E-01 13344   0.145E+00    0.167E+01
DAV:  37    -0.130550440580E+04    0.16689E+00   -0.14104E-01 13296   0.133E+00    0.154E+01
DAV:  38    -0.130538955089E+04    0.11485E+00   -0.84323E-02 13296   0.108E+00    0.144E+01
DAV:  39    -0.130531854461E+04    0.71006E-01   -0.50727E-02 13608   0.837E-01    0.138E+01
DAV:  40    -0.130523314864E+04    0.85396E-01   -0.43550E-02 13416   0.855E-01    0.126E+01
DAV:  41    -0.130511609251E+04    0.11706E+00   -0.50788E-02 13416   0.910E-01    0.109E+01
DAV:  42    -0.130503084235E+04    0.85250E-01   -0.42603E-02 13296   0.782E-01    0.948E+00
DAV:  43    -0.130499071009E+04    0.40132E-01   -0.28410E-02 13368   0.647E-01    0.878E+00
DAV:  44    -0.130496858998E+04    0.22120E-01   -0.52305E-02 13824   0.960E-01    0.874E+00
DAV:  45    -0.130489134157E+04    0.77248E-01   -0.86522E-02 13752   0.116E+00    0.731E+00
DAV:  46    -0.130482118484E+04    0.70157E-01   -0.63137E-02 13596   0.985E-01    0.559E+00
DAV:  47    -0.130481052766E+04    0.10657E-01   -0.38455E-02 13512   0.635E-01    0.523E+00
DAV:  48    -0.130481188726E+04   -0.13596E-02   -0.28243E-02 13320   0.594E-01    0.511E+00
DAV:  49    -0.130479766547E+04    0.14222E-01   -0.21737E-02 13272   0.578E-01    0.439E+00
DAV:  50    -0.130478570441E+04    0.11961E-01   -0.10342E-02 13260   0.427E-01    0.375E+00
DAV:  51    -0.130480312817E+04   -0.17424E-01   -0.48044E-02 20232   0.856E-01    0.380E+00
DAV:  52    -0.130480825734E+04   -0.51292E-02   -0.46866E-02 14400   0.804E-01    0.419E+00
DAV:  53    -0.130477656598E+04    0.31691E-01   -0.34460E-02 13836   0.693E-01    0.235E+00
DAV:  54    -0.130477095813E+04    0.56078E-02   -0.11078E-02 13356   0.388E-01    0.192E+00
DAV:  55    -0.130477260177E+04   -0.16436E-02   -0.71711E-03 13344   0.327E-01    0.196E+00
DAV:  56    -0.130476844750E+04    0.41543E-02   -0.95287E-03 13464   0.369E-01    0.119E+00
DAV:  57    -0.130476699291E+04    0.14546E-02   -0.44524E-03 13296   0.256E-01    0.976E-01
DAV:  58    -0.130476702567E+04   -0.32764E-04   -0.24044E-03 13368   0.194E-01    0.884E-01
DAV:  59    -0.130476615833E+04    0.86734E-03   -0.16294E-03 13296   0.171E-01    0.628E-01
DAV:  60    -0.130476619468E+04   -0.36342E-04   -0.10311E-03 13512   0.135E-01
   1 F= -.13047662E+04 E0= -.13040714E+04  d E =-.138958E+01
