 254 254   0   0
  0.2268316E+02  0.1514622E-08  0.1514622E-08  0.2900000E-08  0.5000000E-15
  1.000000000000000E-004
  CAR 
 NiAl                                    
      5.98133038    -22.66716923  301     -0.57441657      1.00000000
    -22.667  0.0000E+00  0.0000E+00
    -22.572  0.0000E+00  0.0000E+00
    -22.476  0.0000E+00  0.0000E+00
    -22.381  0.0000E+00  0.0000E+00
    -22.285  0.0000E+00  0.0000E+00
    -22.190  0.0000E+00  0.0000E+00
    -22.094  0.0000E+00  0.0000E+00
    -21.999  0.0000E+00  0.0000E+00
    -21.903  0.0000E+00  0.0000E+00
    -21.808  0.0000E+00  0.0000E+00
    -21.712  0.0000E+00  0.0000E+00
    -21.617  0.1109E-10  0.1059E-11
    -21.521  0.1026E-03  0.9796E-05
    -21.426  0.8933E+00  0.8532E-01
    -21.330  0.1663E+02  0.1673E+01
    -21.235  0.3421E+01  0.2000E+01
    -21.139  0.2429E-02  0.2000E+01
    -21.044  0.1826E-08  0.2000E+01
    -20.948  0.0000E+00  0.2000E+01
    -20.853  0.0000E+00  0.2000E+01
    -20.757  0.0000E+00  0.2000E+01
    -20.662  0.0000E+00  0.2000E+01
    -20.566  0.0000E+00  0.2000E+01
    -20.471  0.0000E+00  0.2000E+01
    -20.375  0.0000E+00  0.2000E+01
    -20.280  0.0000E+00  0.2000E+01
    -20.184  0.0000E+00  0.2000E+01
    -20.089  0.0000E+00  0.2000E+01
    -19.993  0.0000E+00  0.2000E+01
    -19.898  0.0000E+00  0.2000E+01
    -19.802  0.0000E+00  0.2000E+01
    -19.707  0.0000E+00  0.2000E+01
    -19.611  0.0000E+00  0.2000E+01
    -19.516  0.0000E+00  0.2000E+01
    -19.420  0.0000E+00  0.2000E+01
    -19.325  0.0000E+00  0.2000E+01
    -19.229  0.0000E+00  0.2000E+01
    -19.134  0.0000E+00  0.2000E+01
    -19.038  0.0000E+00  0.2000E+01
    -18.943  0.0000E+00  0.2000E+01
    -18.847  0.0000E+00  0.2000E+01
    -18.752  0.0000E+00  0.2000E+01
    -18.656  0.0000E+00  0.2000E+01
    -18.561  0.0000E+00  0.2000E+01
    -18.465  0.0000E+00  0.2000E+01
    -18.370  0.0000E+00  0.2000E+01
    -18.274  0.0000E+00  0.2000E+01
    -18.179  0.0000E+00  0.2000E+01
    -18.083  0.0000E+00  0.2000E+01
    -17.988  0.0000E+00  0.2000E+01
    -17.892  0.0000E+00  0.2000E+01
    -17.797  0.0000E+00  0.2000E+01
    -17.701  0.0000E+00  0.2000E+01
    -17.606  0.0000E+00  0.2000E+01
    -17.510  0.0000E+00  0.2000E+01
    -17.415  0.0000E+00  0.2000E+01
    -17.319  0.0000E+00  0.2000E+01
    -17.224  0.0000E+00  0.2000E+01
    -17.128  0.0000E+00  0.2000E+01
    -17.033  0.0000E+00  0.2000E+01
    -16.937  0.0000E+00  0.2000E+01
    -16.842  0.0000E+00  0.2000E+01
    -16.746  0.0000E+00  0.2000E+01
    -16.651  0.0000E+00  0.2000E+01
    -16.555  0.0000E+00  0.2000E+01
    -16.460  0.0000E+00  0.2000E+01
    -16.364  0.0000E+00  0.2000E+01
    -16.269  0.0000E+00  0.2000E+01
    -16.174  0.0000E+00  0.2000E+01
    -16.078  0.0000E+00  0.2000E+01
    -15.983  0.0000E+00  0.2000E+01
    -15.887  0.0000E+00  0.2000E+01
    -15.792  0.0000E+00  0.2000E+01
    -15.696  0.0000E+00  0.2000E+01
    -15.601  0.0000E+00  0.2000E+01
    -15.505  0.0000E+00  0.2000E+01
    -15.410  0.0000E+00  0.2000E+01
    -15.314  0.0000E+00  0.2000E+01
    -15.219  0.0000E+00  0.2000E+01
    -15.123  0.0000E+00  0.2000E+01
    -15.028  0.0000E+00  0.2000E+01
    -14.932  0.0000E+00  0.2000E+01
    -14.837  0.0000E+00  0.2000E+01
    -14.741  0.0000E+00  0.2000E+01
    -14.646  0.0000E+00  0.2000E+01
    -14.550  0.0000E+00  0.2000E+01
    -14.455  0.0000E+00  0.2000E+01
    -14.359  0.0000E+00  0.2000E+01
    -14.264  0.0000E+00  0.2000E+01
    -14.168  0.0000E+00  0.2000E+01
    -14.073  0.0000E+00  0.2000E+01
    -13.977  0.0000E+00  0.2000E+01
    -13.882  0.0000E+00  0.2000E+01
    -13.786  0.0000E+00  0.2000E+01
    -13.691  0.0000E+00  0.2000E+01
    -13.595  0.0000E+00  0.2000E+01
    -13.500  0.0000E+00  0.2000E+01
    -13.404  0.0000E+00  0.2000E+01
    -13.309  0.0000E+00  0.2000E+01
    -13.213  0.0000E+00  0.2000E+01
    -13.118  0.0000E+00  0.2000E+01
    -13.022  0.0000E+00  0.2000E+01
    -12.927  0.0000E+00  0.2000E+01
    -12.831  0.0000E+00  0.2000E+01
    -12.736  0.0000E+00  0.2000E+01
    -12.640  0.0000E+00  0.2000E+01
    -12.545  0.0000E+00  0.2000E+01
    -12.449  0.0000E+00  0.2000E+01
    -12.354  0.0000E+00  0.2000E+01
    -12.258  0.0000E+00  0.2000E+01
    -12.163  0.0000E+00  0.2000E+01
    -12.067  0.0000E+00  0.2000E+01
    -11.972  0.0000E+00  0.2000E+01
    -11.876  0.0000E+00  0.2000E+01
    -11.781  0.0000E+00  0.2000E+01
    -11.685  0.0000E+00  0.2000E+01
    -11.590  0.0000E+00  0.2000E+01
    -11.494  0.0000E+00  0.2000E+01
    -11.399  0.0000E+00  0.2000E+01
    -11.303  0.0000E+00  0.2000E+01
    -11.208  0.0000E+00  0.2000E+01
    -11.112  0.0000E+00  0.2000E+01
    -11.017  0.0000E+00  0.2000E+01
    -10.921  0.0000E+00  0.2000E+01
    -10.826  0.0000E+00  0.2000E+01
    -10.730  0.0000E+00  0.2000E+01
    -10.635  0.0000E+00  0.2000E+01
    -10.539  0.6465E-09  0.2000E+01
    -10.444  0.1296E-02  0.2000E+01
    -10.348  0.2673E+01  0.2255E+01
    -10.253  0.1703E+02  0.3882E+01
    -10.157  0.1235E+01  0.4000E+01
    -10.062  0.2098E-03  0.4000E+01
     -9.966  0.3426E-10  0.4000E+01
     -9.871  0.0000E+00  0.4000E+01
     -9.775  0.0000E+00  0.4000E+01
     -9.680  0.0000E+00  0.4000E+01
     -9.584  0.0000E+00  0.4000E+01
     -9.489  0.0000E+00  0.4000E+01
     -9.393  0.0000E+00  0.4000E+01
     -9.298  0.3818E-10  0.4000E+01
     -9.202  0.1335E-03  0.4000E+01
     -9.107  0.4633E+00  0.4044E+01
     -9.011  0.4310E+01  0.4456E+01
     -8.916  0.6572E+00  0.4519E+01
     -8.820  0.1801E+02  0.6238E+01
     -8.725  0.1315E+02  0.7494E+01
     -8.629  0.7047E-01  0.7501E+01
     -8.534  0.2332E+01  0.7724E+01
     -8.438  0.3912E+01  0.8097E+01
     -8.343  0.2831E+02  0.1080E+02
     -8.247  0.3174E+02  0.1383E+02
     -8.152  0.1763E+02  0.1552E+02
     -8.056  0.1544E+02  0.1699E+02
     -7.961  0.1741E+00  0.1701E+02
     -7.865  0.1382E+02  0.1833E+02
     -7.770  0.1752E+02  0.2000E+02
     -7.674  0.1082E+02  0.2103E+02
     -7.579  0.2653E+02  0.2357E+02
     -7.483  0.6333E+02  0.2961E+02
     -7.388  0.3010E+02  0.3249E+02
     -7.292  0.1184E+00  0.3250E+02
     -7.197  0.1987E+00  0.3252E+02
     -7.101  0.2347E+02  0.3476E+02
     -7.006  0.8343E+02  0.4273E+02
     -6.910  0.2110E+02  0.4474E+02
     -6.815  0.2587E+02  0.4721E+02
     -6.720  0.4565E+01  0.4765E+02
     -6.624  0.2824E+02  0.5035E+02
     -6.529  0.2016E+02  0.5227E+02
     -6.433  0.4573E+02  0.5664E+02
     -6.338  0.5233E+02  0.6164E+02
     -6.242  0.7138E+02  0.6845E+02
     -6.147  0.8981E+01  0.6931E+02
     -6.051  0.4976E+02  0.7406E+02
     -5.956  0.6341E+02  0.8012E+02
     -5.860  0.1138E+03  0.9098E+02
     -5.765  0.3147E+02  0.9399E+02
     -5.669  0.2765E+01  0.9425E+02
     -5.574  0.1557E+02  0.9574E+02
     -5.478  0.6267E+02  0.1017E+03
     -5.383  0.1299E+03  0.1141E+03
     -5.287  0.1012E+03  0.1238E+03
     -5.192  0.5720E+02  0.1293E+03
     -5.096  0.1001E+03  0.1388E+03
     -5.001  0.1081E+03  0.1491E+03
     -4.905  0.8338E+02  0.1571E+03
     -4.810  0.4410E+02  0.1613E+03
     -4.714  0.2332E+03  0.1836E+03
     -4.619  0.1977E+03  0.2025E+03
     -4.523  0.2145E+03  0.2229E+03
     -4.428  0.2248E+03  0.2444E+03
     -4.332  0.3077E+03  0.2738E+03
     -4.237  0.2449E+03  0.2972E+03
     -4.141  0.2885E+03  0.3247E+03
     -4.046  0.2422E+03  0.3479E+03
     -3.950  0.4390E+03  0.3898E+03
     -3.855  0.5177E+03  0.4392E+03
     -3.759  0.4534E+03  0.4825E+03
     -3.664  0.4721E+03  0.5276E+03
     -3.568  0.4561E+03  0.5711E+03
     -3.473  0.3801E+03  0.6074E+03
     -3.377  0.3732E+03  0.6431E+03
     -3.282  0.3404E+03  0.6756E+03
     -3.186  0.4905E+03  0.7224E+03
     -3.091  0.5381E+03  0.7738E+03
     -2.995  0.3385E+03  0.8061E+03
     -2.900  0.5489E+03  0.8585E+03
     -2.804  0.5583E+03  0.9119E+03
     -2.709  0.4830E+03  0.9580E+03
     -2.613  0.5518E+03  0.1011E+04
     -2.518  0.6213E+03  0.1070E+04
     -2.422  0.6953E+03  0.1136E+04
     -2.327  0.7947E+03  0.1212E+04
     -2.231  0.9418E+03  0.1302E+04
     -2.136  0.7818E+03  0.1377E+04
     -2.040  0.8844E+03  0.1461E+04
     -1.945  0.8383E+03  0.1541E+04
     -1.849  0.5555E+03  0.1594E+04
     -1.754  0.6157E+03  0.1653E+04
     -1.658  0.5482E+03  0.1706E+04
     -1.563  0.5453E+03  0.1758E+04
     -1.467  0.6654E+03  0.1821E+04
     -1.372  0.8157E+03  0.1899E+04
     -1.276  0.6223E+03  0.1959E+04
     -1.181  0.4727E+03  0.2004E+04
     -1.085  0.7937E+03  0.2079E+04
     -0.990  0.7739E+03  0.2153E+04
     -0.894  0.8439E+03  0.2234E+04
     -0.799  0.6200E+03  0.2293E+04
     -0.703  0.8624E+03  0.2376E+04
     -0.608  0.1186E+04  0.2489E+04
     -0.512  0.1012E+04  0.2585E+04
     -0.417  0.5511E+03  0.2638E+04
     -0.321  0.2564E+03  0.2663E+04
     -0.226  0.1205E+03  0.2674E+04
     -0.130  0.1418E+03  0.2688E+04
     -0.035  0.1640E+03  0.2703E+04
      0.061  0.1231E+03  0.2715E+04
      0.156  0.2966E+02  0.2718E+04
      0.252  0.6474E+02  0.2724E+04
      0.347  0.1378E+02  0.2725E+04
      0.443  0.1294E+03  0.2738E+04
      0.538  0.7828E+02  0.2745E+04
      0.634  0.1080E+03  0.2755E+04
      0.729  0.6833E+02  0.2762E+04
      0.825  0.1031E+03  0.2772E+04
      0.920  0.1501E+03  0.2786E+04
      1.016  0.1468E+03  0.2800E+04
      1.111  0.2275E+02  0.2802E+04
      1.207  0.2707E+02  0.2805E+04
      1.302  0.1004E+03  0.2815E+04
      1.398  0.8956E+02  0.2823E+04
      1.493  0.3118E+02  0.2826E+04
      1.589  0.6989E+02  0.2833E+04
      1.684  0.1017E+03  0.2842E+04
      1.780  0.9056E+02  0.2851E+04
      1.875  0.7119E+02  0.2858E+04
      1.971  0.1135E+03  0.2869E+04
      2.066  0.5135E+02  0.2874E+04
      2.162  0.4946E+02  0.2878E+04
      2.257  0.1033E+03  0.2888E+04
      2.353  0.1138E+03  0.2899E+04
      2.448  0.6553E+02  0.2905E+04
      2.544  0.2282E+02  0.2908E+04
      2.639  0.7759E+02  0.2915E+04
      2.735  0.2634E+02  0.2917E+04
      2.830  0.5895E+01  0.2918E+04
      2.925  0.5477E+02  0.2923E+04
      3.021  0.1015E+03  0.2933E+04
      3.116  0.2264E+03  0.2955E+04
      3.212  0.1066E+03  0.2965E+04
      3.307  0.2409E+02  0.2967E+04
      3.403  0.1794E+02  0.2969E+04
      3.498  0.1003E+03  0.2978E+04
      3.594  0.5363E+02  0.2983E+04
      3.689  0.3088E+02  0.2986E+04
      3.785  0.8679E+02  0.2995E+04
      3.880  0.1218E+02  0.2996E+04
      3.976  0.2861E+02  0.2999E+04
      4.071  0.1133E+02  0.3000E+04
      4.167  0.7425E+02  0.3007E+04
      4.262  0.4842E+02  0.3011E+04
      4.358  0.3534E+02  0.3015E+04
      4.453  0.9808E+02  0.3024E+04
      4.549  0.5001E+02  0.3029E+04
      4.644  0.4438E+02  0.3033E+04
      4.740  0.2919E+02  0.3036E+04
      4.835  0.5102E+00  0.3036E+04
      4.931  0.4680E-04  0.3036E+04
      5.026  0.4745E-11  0.3036E+04
      5.122  0.0000E+00  0.3036E+04
      5.217  0.0000E+00  0.3036E+04
      5.313  0.0000E+00  0.3036E+04
      5.408  0.0000E+00  0.3036E+04
      5.504  0.0000E+00  0.3036E+04
      5.599  0.0000E+00  0.3036E+04
      5.695  0.0000E+00  0.3036E+04
      5.790  0.0000E+00  0.3036E+04
      5.886  0.0000E+00  0.3036E+04
      5.981  0.0000E+00  0.3036E+04
