  254  254    1    1
  0.2268316E+02  0.1514622E-08  0.1514622E-08  0.2900000E-08  0.5000000E-15
  1.000000000000000E-004
  CAR 
 NiAl                                    
   2530      4   1518
 
  0.0000000E+00  0.0000000E+00  0.0000000E+00  0.2500000E+00
    1      -21.364883   1.000000
    2      -10.307980   1.000000
    3       -9.059151   1.000000
    4       -8.529263   1.000000
    5       -8.152925   1.000000
    6       -8.152780   1.000000
    7       -8.152496   1.000000
    8       -8.152267   1.000000
    9       -8.152037   1.000000
   10       -8.151762   1.000000
   11       -7.703065   1.000000
   12       -7.646838   1.000000
   13       -7.646452   1.000000
   14       -7.646371   1.000000
   15       -7.646215   1.000000
   16       -7.645853   1.000000
   17       -7.645713   1.000000
   18       -6.861597   1.000000
   19       -6.861480   1.000000
   20       -6.861405   1.000000
   21       -6.861106   1.000000
   22       -6.860939   1.000000
   23       -6.860813   1.000000
   24       -6.678493   1.000000
   25       -6.517025   1.000000
   26       -6.516932   1.000000
   27       -6.516912   1.000000
   28       -6.516825   1.000000
   29       -6.516710   1.000000
   30       -6.516629   1.000000
   31       -6.096555   1.000000
   32       -6.096379   1.000000
   33       -6.096305   1.000000
   34       -6.096142   1.000000
   35       -6.096052   1.000000
   36       -6.095974   1.000000
   37       -5.896675   1.000000
   38       -5.896060   1.000000
   39       -5.895886   1.000000
   40       -5.895859   1.000000
   41       -5.895806   1.000000
   42       -5.895718   1.000000
   43       -5.895635   1.000000
   44       -5.895584   1.000000
   45       -5.895525   1.000000
   46       -5.895501   1.000000
   47       -5.895278   1.000000
   48       -5.895116   1.000000
   49       -5.859176   1.000000
   50       -5.857328   1.000000
   51       -5.668210   1.000000
   52       -5.564147   1.000000
   53       -5.564084   1.000000
   54       -5.563986   1.000000
   55       -5.563890   1.000000
   56       -5.563781   1.000000
   57       -5.563683   1.000000
   58       -5.503018   1.000000
   59       -5.469756   1.000000
   60       -5.469685   1.000000
   61       -5.469572   1.000000
   62       -5.469529   1.000000
   63       -5.469418   1.000000
   64       -5.469328   1.000000
   65       -5.116837   1.000000
   66       -5.116769   1.000000
   67       -5.116738   1.000000
   68       -5.116585   1.000000
   69       -5.116526   1.000000
   70       -5.116471   1.000000
   71       -5.033624   1.000000
   72       -4.959793   1.000000
   73       -4.959772   1.000000
   74       -4.959708   1.000000
   75       -4.959539   1.000000
   76       -4.959374   1.000000
   77       -4.959226   1.000000
   78       -4.861726   1.000000
   79       -4.787081   1.000000
   80       -4.787046   1.000000
   81       -4.786994   1.000000
   82       -4.747677   1.000000
   83       -4.747617   1.000000
   84       -4.747510   1.000000
   85       -4.747478   1.000000
   86       -4.747447   1.000000
   87       -4.747323   1.000000
   88       -4.664195   1.000000
   89       -4.664106   1.000000
   90       -4.664060   1.000000
   91       -4.663938   1.000000
   92       -4.663889   1.000000
   93       -4.663759   1.000000
   94       -4.646191   1.000000
   95       -4.646110   1.000000
   96       -4.646016   1.000000
   97       -4.553875   1.000000
   98       -4.553690   1.000000
   99       -4.553572   1.000000
  100       -4.553492   1.000000
  101       -4.553254   1.000000
  102       -4.553079   1.000000
  103       -4.553017   1.000000
  104       -4.552945   1.000000
  105       -4.552705   1.000000
  106       -4.552568   1.000000
  107       -4.552439   1.000000
  108       -4.552385   1.000000
  109       -4.510741   1.000000
  110       -4.510658   1.000000
  111       -4.510594   1.000000
  112       -4.440441   1.000000
  113       -4.440327   1.000000
  114       -4.440229   1.000000
  115       -4.406311   1.000000
  116       -4.405896   1.000000
  117       -4.405730   1.000000
  118       -4.405415   1.000000
  119       -4.404894   1.000000
  120       -4.404493   1.000000
  121       -4.349843   1.000000
  122       -4.349744   1.000000
  123       -4.349654   1.000000
  124       -4.349508   1.000000
  125       -4.349399   1.000000
  126       -4.349344   1.000000
  127       -4.349295   1.000000
  128       -4.349275   1.000000
  129       -4.349247   1.000000
  130       -4.349071   1.000000
  131       -4.348993   1.000000
  132       -4.348855   1.000000
  133       -4.339243   1.000000
  134       -4.339187   1.000000
  135       -4.339057   1.000000
  136       -4.338849   1.000000
  137       -4.338773   1.000000
  138       -4.338719   1.000000
  139       -4.338492   1.000000
  140       -4.338471   1.000000
  141       -4.338289   1.000000
  142       -4.338186   1.000000
  143       -4.337984   1.000000
  144       -4.337947   1.000000
  145       -4.292935   1.000000
  146       -4.292676   1.000000
  147       -4.292354   1.000000
  148       -4.292303   1.000000
  149       -4.292134   1.000000
  150       -4.291755   1.000000
  151       -4.256659   1.000000
  152       -4.256606   1.000000
  153       -4.256431   1.000000
  154       -4.256347   1.000000
  155       -4.256130   1.000000
  156       -4.255949   1.000000
  157       -4.235579   1.000000
  158       -4.235464   1.000000
  159       -4.235307   1.000000
  160       -4.197912   1.000000
  161       -4.197752   1.000000
  162       -4.197637   1.000000
  163       -4.197444   1.000000
  164       -4.197394   1.000000
  165       -4.197295   1.000000
  166       -4.197236   1.000000
  167       -4.197096   1.000000
  168       -4.197046   1.000000
  169       -4.196987   1.000000
  170       -4.196890   1.000000
  171       -4.196796   1.000000
  172       -4.135128   1.000000
  173       -4.135120   1.000000
  174       -4.134941   1.000000
  175       -4.106200   1.000000
  176       -4.106054   1.000000
  177       -4.106037   1.000000
  178       -4.105896   1.000000
  179       -4.105782   1.000000
  180       -4.105690   1.000000
  181       -4.028118   1.000000
  182       -4.028111   1.000000
  183       -4.027871   1.000000
  184       -4.000423   1.000000
  185       -4.000338   1.000000
  186       -4.000145   1.000000
  187       -4.000056   1.000000
  188       -3.999786   1.000000
  189       -3.999713   1.000000
  190       -3.999545   1.000000
  191       -3.999337   1.000000
  192       -3.999196   1.000000
  193       -3.999107   1.000000
  194       -3.999022   1.000000
  195       -3.998840   1.000000
  196       -3.965656   1.000000
  197       -3.965630   1.000000
  198       -3.965489   1.000000
  199       -3.902936   1.000000
  200       -3.902887   1.000000
  201       -3.902569   1.000000
  202       -3.900689   1.000000
  203       -3.900672   1.000000
  204       -3.900560   1.000000
  205       -3.900498   1.000000
  206       -3.900461   1.000000
  207       -3.900289   1.000000
  208       -3.855987   1.000000
  209       -3.855808   1.000000
  210       -3.855637   1.000000
  211       -3.855475   1.000000
  212       -3.855390   1.000000
  213       -3.855263   1.000000
  214       -3.854997   1.000000
  215       -3.854874   1.000000
  216       -3.854783   1.000000
  217       -3.854581   1.000000
  218       -3.854539   1.000000
  219       -3.854342   1.000000
  220       -3.843969   1.000000
  221       -3.843912   1.000000
  222       -3.843726   1.000000
  223       -3.843675   1.000000
  224       -3.843536   1.000000
  225       -3.843483   1.000000
  226       -3.761183   1.000000
  227       -3.761050   1.000000
  228       -3.760905   1.000000
  229       -3.760848   1.000000
  230       -3.760639   1.000000
  231       -3.760453   1.000000
  232       -3.760387   1.000000
  233       -3.760353   1.000000
  234       -3.760128   1.000000
  235       -3.759956   1.000000
  236       -3.759900   1.000000
  237       -3.759673   1.000000
  238       -3.729029   1.000000
  239       -3.728969   1.000000
  240       -3.728925   1.000000
  241       -3.728786   1.000000
  242       -3.728741   1.000000
  243       -3.728627   1.000000
  244       -3.713591   1.000000
  245       -3.713501   1.000000
  246       -3.712954   1.000000
  247       -3.712746   1.000000
  248       -3.709456   1.000000
  249       -3.709153   1.000000
  250       -3.709037   1.000000
  251       -3.708957   1.000000
  252       -3.708879   1.000000
  253       -3.708638   1.000000
  254       -3.703773   1.000000
  255       -3.703419   1.000000
  256       -3.663555   1.000000
  257       -3.663441   1.000000
  258       -3.663217   1.000000
  259       -3.662977   1.000000
  260       -3.662875   1.000000
  261       -3.662773   1.000000
  262       -3.662716   1.000000
  263       -3.662633   1.000000
  264       -3.662549   1.000000
  265       -3.662428   1.000000
  266       -3.662333   1.000000
  267       -3.661973   1.000000
  268       -3.652862   1.000000
  269       -3.652846   1.000000
  270       -3.652712   1.000000
  271       -3.604343   1.000000
  272       -3.604184   1.000000
  273       -3.604086   1.000000
  274       -3.603859   1.000000
  275       -3.603723   1.000000
  276       -3.603518   1.000000
  277       -3.596855   1.000000
  278       -3.596827   1.000000
  279       -3.596698   1.000000
  280       -3.596635   1.000000
  281       -3.576698   1.000000
  282       -3.576659   1.000000
  283       -3.561410   1.000000
  284       -3.561218   1.000000
  285       -3.561148   1.000000
  286       -3.561059   1.000000
  287       -3.560700   1.000000
  288       -3.560634   1.000000
  289       -3.550387   1.000000
  290       -3.550329   1.000000
  291       -3.549915   1.000000
  292       -3.549878   1.000000
  293       -3.544775   1.000000
  294       -3.544738   1.000000
  295       -3.480328   1.000000
  296       -3.480319   1.000000
  297       -3.477813   1.000000
  298       -3.477789   1.000000
  299       -3.474486   1.000000
  300       -3.474369   1.000000
  301       -3.474261   1.000000
  302       -3.473914   1.000000
  303       -3.473760   1.000000
  304       -3.473626   1.000000
  305       -3.473468   1.000000
  306       -3.473348   1.000000
  307       -3.472960   1.000000
  308       -3.472945   1.000000
  309       -3.472732   1.000000
  310       -3.472677   1.000000
  311       -3.427327   1.000000
  312       -3.427105   1.000000
  313       -3.427035   1.000000
  314       -3.426864   1.000000
  315       -3.426692   1.000000
  316       -3.426540   1.000000
  317       -3.391615   1.000000
  318       -3.391437   1.000000
  319       -3.391424   1.000000
  320       -3.391273   1.000000
  321       -3.391138   1.000000
  322       -3.391032   1.000000
  323       -3.388487   1.000000
  324       -3.388448   1.000000
  325       -3.388321   1.000000
  326       -3.388180   1.000000
  327       -3.388090   1.000000
  328       -3.388037   1.000000
  329       -3.387775   1.000000
  330       -3.387705   1.000000
  331       -3.387668   1.000000
  332       -3.387596   1.000000
  333       -3.387425   1.000000
  334       -3.387407   1.000000
  335       -3.371920   1.000000
  336       -3.371663   1.000000
  337       -3.371586   1.000000
  338       -3.371388   1.000000
  339       -3.371291   1.000000
  340       -3.371246   1.000000
  341       -3.276869   1.000000
  342       -3.276864   1.000000
  343       -3.276772   1.000000
  344       -3.251441   1.000000
  345       -3.251307   1.000000
  346       -3.251200   1.000000
  347       -3.251079   1.000000
  348       -3.250972   1.000000
  349       -3.250860   1.000000
  350       -3.211327   1.000000
  351       -3.210928   1.000000
  352       -3.198868   1.000000
  353       -3.198557   1.000000
  354       -3.198477   1.000000
  355       -3.198432   1.000000
  356       -3.198366   1.000000
  357       -3.198255   1.000000
  358       -3.198040   1.000000
  359       -3.198014   1.000000
  360       -3.197864   1.000000
  361       -3.197789   1.000000
  362       -3.197701   1.000000
  363       -3.197226   1.000000
  364       -3.170785   1.000000
  365       -3.170337   1.000000
  366       -3.134004   1.000000
  367       -3.133815   1.000000
  368       -3.133441   1.000000
  369       -3.133414   1.000000
  370       -3.133279   1.000000
  371       -3.133160   1.000000
  372       -3.128220   1.000000
  373       -3.128052   1.000000
  374       -3.127946   1.000000
  375       -3.127649   1.000000
  376       -3.127438   1.000000
  377       -3.127387   1.000000
  378       -3.123857   1.000000
  379       -3.123777   1.000000
  380       -3.123465   1.000000
  381       -3.123389   1.000000
  382       -3.123125   1.000000
  383       -3.122979   1.000000
  384       -3.057811   1.000000
  385       -3.057689   1.000000
  386       -3.057535   1.000000
  387       -3.057436   1.000000
  388       -3.057325   1.000000
  389       -3.057227   1.000000
  390       -3.057136   1.000000
  391       -3.057131   1.000000
  392       -3.056938   1.000000
  393       -3.056806   1.000000
  394       -3.056730   1.000000
  395       -3.056574   1.000000
  396       -3.020341   1.000000
  397       -3.020304   1.000000
  398       -3.020226   1.000000
  399       -3.019968   1.000000
  400       -3.019887   1.000000
  401       -3.019808   1.000000
  402       -2.948793   1.000000
  403       -2.948633   1.000000
  404       -2.948415   1.000000
  405       -2.948221   1.000000
  406       -2.948068   1.000000
  407       -2.947836   1.000000
  408       -2.936936   1.000000
  409       -2.936886   1.000000
  410       -2.936852   1.000000
  411       -2.936537   1.000000
  412       -2.936474   1.000000
  413       -2.936358   1.000000
  414       -2.920858   1.000000
  415       -2.920694   1.000000
  416       -2.920577   1.000000
  417       -2.920531   1.000000
  418       -2.920373   1.000000
  419       -2.920287   1.000000
  420       -2.898421   1.000000
  421       -2.898387   1.000000
  422       -2.898263   1.000000
  423       -2.897844   1.000000
  424       -2.897796   1.000000
  425       -2.897686   1.000000
  426       -2.876821   1.000000
  427       -2.876646   1.000000
  428       -2.876533   1.000000
  429       -2.876343   1.000000
  430       -2.876230   1.000000
  431       -2.876206   1.000000
  432       -2.876029   1.000000
  433       -2.875957   1.000000
  434       -2.875842   1.000000
  435       -2.875807   1.000000
  436       -2.875629   1.000000
  437       -2.875590   1.000000
  438       -2.873569   1.000000
  439       -2.873409   1.000000
  440       -2.873256   1.000000
  441       -2.873178   1.000000
  442       -2.873123   1.000000
  443       -2.873018   1.000000
  444       -2.812983   1.000000
  445       -2.812953   1.000000
  446       -2.812763   1.000000
  447       -2.809692   1.000000
  448       -2.809634   1.000000
  449       -2.809459   1.000000
  450       -2.809345   1.000000
  451       -2.809270   1.000000
  452       -2.809107   1.000000
  453       -2.804225   1.000000
  454       -2.804001   1.000000
  455       -2.803707   1.000000
  456       -2.803664   1.000000
  457       -2.803332   1.000000
  458       -2.803175   1.000000
  459       -2.803002   1.000000
  460       -2.802957   1.000000
  461       -2.802820   1.000000
  462       -2.802660   1.000000
  463       -2.802574   1.000000
  464       -2.802300   1.000000
  465       -2.752090   1.000000
  466       -2.752043   1.000000
  467       -2.751168   1.000000
  468       -2.751152   1.000000
  469       -2.719102   1.000000
  470       -2.719016   1.000000
  471       -2.718849   1.000000
  472       -2.718598   1.000000
  473       -2.718273   1.000000
  474       -2.718114   1.000000
  475       -2.716525   1.000000
  476       -2.716110   1.000000
  477       -2.715780   1.000000
  478       -2.715622   1.000000
  479       -2.715600   1.000000
  480       -2.715362   1.000000
  481       -2.711827   1.000000
  482       -2.711613   1.000000
  483       -2.711537   1.000000
  484       -2.710821   1.000000
  485       -2.710616   1.000000
  486       -2.710499   1.000000
  487       -2.696108   1.000000
  488       -2.696042   1.000000
  489       -2.695871   1.000000
  490       -2.695765   1.000000
  491       -2.695673   1.000000
  492       -2.695533   1.000000
  493       -2.695348   1.000000
  494       -2.695330   1.000000
  495       -2.695071   1.000000
  496       -2.694953   1.000000
  497       -2.694872   1.000000
  498       -2.694701   1.000000
  499       -2.688891   1.000000
  500       -2.688790   1.000000
  501       -2.659590   1.000000
  502       -2.659325   1.000000
  503       -2.659070   1.000000
  504       -2.658987   1.000000
  505       -2.658740   1.000000
  506       -2.658618   1.000000
  507       -2.625298   1.000000
  508       -2.625276   1.000000
  509       -2.625210   1.000000
  510       -2.625175   1.000000
  511       -2.625150   1.000000
  512       -2.625080   1.000000
  513       -2.621574   1.000000
  514       -2.592040   1.000000
  515       -2.592015   1.000000
  516       -2.591480   1.000000
  517       -2.591434   1.000000
  518       -2.586736   1.000000
  519       -2.586637   1.000000
  520       -2.586417   1.000000
  521       -2.586018   1.000000
  522       -2.585678   1.000000
  523       -2.585652   1.000000
  524       -2.580081   1.000000
  525       -2.534089   1.000000
  526       -2.533979   1.000000
  527       -2.533819   1.000000
  528       -2.533782   1.000000
  529       -2.533745   1.000000
  530       -2.533610   1.000000
  531       -2.533445   1.000000
  532       -2.533379   1.000000
  533       -2.533186   1.000000
  534       -2.533049   1.000000
  535       -2.532998   1.000000
  536       -2.532805   1.000000
  537       -2.523197   1.000000
  538       -2.523109   1.000000
  539       -2.522914   1.000000
  540       -2.522545   1.000000
  541       -2.522292   1.000000
  542       -2.522207   1.000000
  543       -2.520686   1.000000
  544       -2.520656   1.000000
  545       -2.520516   1.000000
  546       -2.496192   1.000000
  547       -2.496131   1.000000
  548       -2.496009   1.000000
  549       -2.485506   1.000000
  550       -2.485360   1.000000
  551       -2.485298   1.000000
  552       -2.485219   1.000000
  553       -2.485056   1.000000
  554       -2.484756   1.000000
  555       -2.467611   1.000000
  556       -2.467556   1.000000
  557       -2.467332   1.000000
  558       -2.467191   1.000000
  559       -2.467112   1.000000
  560       -2.467030   1.000000
  561       -2.456586   1.000000
  562       -2.456505   1.000000
  563       -2.456450   1.000000
  564       -2.456305   1.000000
  565       -2.456186   1.000000
  566       -2.456042   1.000000
  567       -2.455971   1.000000
  568       -2.455863   1.000000
  569       -2.455684   1.000000
  570       -2.455626   1.000000
  571       -2.455410   1.000000
  572       -2.455323   1.000000
  573       -2.452358   1.000000
  574       -2.452125   1.000000
  575       -2.431728   1.000000
  576       -2.431576   1.000000
  577       -2.411126   1.000000
  578       -2.410961   1.000000
  579       -2.410808   1.000000
  580       -2.410684   1.000000
  581       -2.410570   1.000000
  582       -2.410316   1.000000
  583       -2.410069   1.000000
  584       -2.409952   1.000000
  585       -2.409810   1.000000
  586       -2.409718   1.000000
  587       -2.409669   1.000000
  588       -2.409626   1.000000
  589       -2.385431   1.000000
  590       -2.385238   1.000000
  591       -2.385179   1.000000
  592       -2.384856   1.000000
  593       -2.384752   1.000000
  594       -2.384636   1.000000
  595       -2.380487   1.000000
  596       -2.367426   1.000000
  597       -2.367410   1.000000
  598       -2.367214   1.000000
  599       -2.366260   1.000000
  600       -2.366088   1.000000
  601       -2.365928   1.000000
  602       -2.365769   1.000000
  603       -2.365681   1.000000
  604       -2.365505   1.000000
  605       -2.361751   1.000000
  606       -2.361449   1.000000
  607       -2.361392   1.000000
  608       -2.360992   1.000000
  609       -2.360905   1.000000
  610       -2.360808   1.000000
  611       -2.355072   1.000000
  612       -2.354849   1.000000
  613       -2.298710   1.000000
  614       -2.298243   1.000000
  615       -2.297784   1.000000
  616       -2.297226   1.000000
  617       -2.296818   1.000000
  618       -2.296586   1.000000
  619       -2.295419   1.000000
  620       -2.289283   1.000000
  621       -2.289154   1.000000
  622       -2.288706   1.000000
  623       -2.288381   1.000000
  624       -2.288286   1.000000
  625       -2.264164   1.000000
  626       -2.264027   1.000000
  627       -2.263902   1.000000
  628       -2.263462   1.000000
  629       -2.263344   1.000000
  630       -2.263266   1.000000
  631       -2.262660   1.000000
  632       -2.262407   1.000000
  633       -2.262086   1.000000
  634       -2.261929   1.000000
  635       -2.261498   1.000000
  636       -2.261271   1.000000
  637       -2.241742   1.000000
  638       -2.241621   1.000000
  639       -2.241470   1.000000
  640       -2.237854   1.000000
  641       -2.237842   1.000000
  642       -2.237823   1.000000
  643       -2.228870   1.000000
  644       -2.228649   1.000000
  645       -2.208241   1.000000
  646       -2.208006   1.000000
  647       -2.207788   1.000000
  648       -2.207693   1.000000
  649       -2.207686   1.000000
  650       -2.207640   1.000000
  651       -2.207514   1.000000
  652       -2.207404   1.000000
  653       -2.207334   1.000000
  654       -2.207111   1.000000
  655       -2.207007   1.000000
  656       -2.206828   1.000000
  657       -2.196555   1.000000
  658       -2.196501   1.000000
  659       -2.196375   1.000000
  660       -2.196242   1.000000
  661       -2.195903   1.000000
  662       -2.195866   1.000000
  663       -2.194734   1.000000
  664       -2.194624   1.000000
  665       -2.194409   1.000000
  666       -2.194099   1.000000
  667       -2.193702   1.000000
  668       -2.193460   1.000000
  669       -2.191192   1.000000
  670       -2.191178   1.000000
  671       -2.188792   1.000000
  672       -2.188779   1.000000
  673       -2.154200   1.000000
  674       -2.153916   1.000000
  675       -2.153826   1.000000
  676       -2.153699   1.000000
  677       -2.153439   1.000000
  678       -2.153366   1.000000
  679       -2.143965   1.000000
  680       -2.143605   1.000000
  681       -2.143464   1.000000
  682       -2.143295   1.000000
  683       -2.143006   1.000000
  684       -2.142852   1.000000
  685       -2.130546   1.000000
  686       -2.101339   1.000000
  687       -2.101113   1.000000
  688       -2.100965   1.000000
  689       -2.100781   1.000000
  690       -2.100583   1.000000
  691       -2.100412   1.000000
  692       -2.100281   1.000000
  693       -2.100103   1.000000
  694       -2.099966   1.000000
  695       -2.099843   1.000000
  696       -2.099746   1.000000
  697       -2.099493   1.000000
  698       -2.099435   1.000000
  699       -2.099303   1.000000
  700       -2.092152   1.000000
  701       -2.091786   1.000000
  702       -2.091474   1.000000
  703       -2.091140   1.000000
  704       -2.091060   1.000000
  705       -2.090900   1.000000
  706       -2.090771   1.000000
  707       -2.090387   1.000000
  708       -2.089748   1.000000
  709       -2.089730   1.000000
  710       -2.089251   1.000000
  711       -2.089104   1.000000
  712       -2.088714   1.000000
  713       -2.088494   1.000000
  714       -2.088232   1.000000
  715       -2.087863   1.000000
  716       -2.086500   1.000000
  717       -2.086481   1.000000
  718       -2.070829   1.000000
  719       -2.070553   1.000000
  720       -2.070263   1.000000
  721       -2.069908   1.000000
  722       -2.069565   1.000000
  723       -2.069546   1.000000
  724       -2.014061   1.000000
  725       -2.013892   1.000000
  726       -2.013883   1.000000
  727       -2.013771   1.000000
  728       -2.013655   1.000000
  729       -2.013622   1.000000
  730       -2.010373   1.000000
  731       -2.010271   1.000000
  732       -2.010109   1.000000
  733       -2.010078   1.000000
  734       -2.009780   1.000000
  735       -2.009580   1.000000
  736       -2.009522   1.000000
  737       -2.009431   1.000000
  738       -2.009046   1.000000
  739       -2.009003   1.000000
  740       -2.008864   1.000000
  741       -2.008729   1.000000
  742       -1.974721   1.000000
  743       -1.974184   1.000000
  744       -1.973923   1.000000
  745       -1.973739   1.000000
  746       -1.973284   1.000000
  747       -1.973228   1.000000
  748       -1.968560   1.000000
  749       -1.968430   1.000000
  750       -1.968021   1.000000
  751       -1.967873   1.000000
  752       -1.967579   1.000000
  753       -1.967417   1.000000
  754       -1.917724   1.000000
  755       -1.917639   1.000000
  756       -1.917563   1.000000
  757       -1.917214   1.000000
  758       -1.917123   1.000000
  759       -1.917102   1.000000
  760       -1.911657   1.000000
  761       -1.911508   1.000000
  762       -1.911393   1.000000
  763       -1.911210   1.000000
  764       -1.911110   1.000000
  765       -1.910981   1.000000
  766       -1.910832   1.000000
  767       -1.910703   1.000000
  768       -1.910604   1.000000
  769       -1.910492   1.000000
  770       -1.910251   1.000000
  771       -1.910167   1.000000
  772       -1.909752   1.000000
  773       -1.909583   1.000000
  774       -1.909354   1.000000
  775       -1.909237   1.000000
  776       -1.909196   1.000000
  777       -1.909100   1.000000
  778       -1.880056   1.000000
  779       -1.879965   1.000000
  780       -1.879705   1.000000
  781       -1.872724   1.000000
  782       -1.872626   1.000000
  783       -1.872413   1.000000
  784       -1.872231   1.000000
  785       -1.871972   1.000000
  786       -1.871610   1.000000
  787       -1.852660   1.000000
  788       -1.852382   1.000000
  789       -1.852055   1.000000
  790       -1.851952   1.000000
  791       -1.851707   1.000000
  792       -1.851687   1.000000
  793       -1.828868   1.000000
  794       -1.828478   1.000000
  795       -1.828049   1.000000
  796       -1.827766   1.000000
  797       -1.827650   1.000000
  798       -1.827587   1.000000
  799       -1.818845   1.000000
  800       -1.818742   1.000000
  801       -1.818229   1.000000
  802       -1.818206   1.000000
  803       -1.818088   1.000000
  804       -1.818083   1.000000
  805       -1.791653   1.000000
  806       -1.791539   1.000000
  807       -1.791483   1.000000
  808       -1.791221   1.000000
  809       -1.791122   1.000000
  810       -1.791012   1.000000
  811       -1.790689   1.000000
  812       -1.790406   1.000000
  813       -1.790329   1.000000
  814       -1.790008   1.000000
  815       -1.789881   1.000000
  816       -1.789813   1.000000
  817       -1.750964   1.000000
  818       -1.750885   1.000000
  819       -1.750780   1.000000
  820       -1.750690   1.000000
  821       -1.750473   1.000000
  822       -1.750340   1.000000
  823       -1.750064   1.000000
  824       -1.749669   1.000000
  825       -1.749405   1.000000
  826       -1.749288   1.000000
  827       -1.749235   1.000000
  828       -1.749138   1.000000
  829       -1.744904   1.000000
  830       -1.744541   1.000000
  831       -1.744158   1.000000
  832       -1.743888   1.000000
  833       -1.743564   1.000000
  834       -1.743207   1.000000
  835       -1.741373   1.000000
  836       -1.741282   1.000000
  837       -1.741168   1.000000
  838       -1.740749   1.000000
  839       -1.740452   1.000000
  840       -1.740354   1.000000
  841       -1.735547   1.000000
  842       -1.735463   1.000000
  843       -1.735402   1.000000
  844       -1.735274   1.000000
  845       -1.735223   1.000000
  846       -1.735023   1.000000
  847       -1.721121   1.000000
  848       -1.720897   1.000000
  849       -1.720734   1.000000
  850       -1.720693   1.000000
  851       -1.720541   1.000000
  852       -1.720409   1.000000
  853       -1.706825   1.000000
  854       -1.706613   1.000000
  855       -1.706500   1.000000
  856       -1.679157   1.000000
  857       -1.679131   1.000000
  858       -1.679067   1.000000
  859       -1.678935   1.000000
  860       -1.678891   1.000000
  861       -1.678819   1.000000
  862       -1.664104   1.000000
  863       -1.663920   1.000000
  864       -1.663816   1.000000
  865       -1.662823   1.000000
  866       -1.662482   1.000000
  867       -1.662238   1.000000
  868       -1.662008   1.000000
  869       -1.661767   1.000000
  870       -1.661720   1.000000
  871       -1.614130   1.000000
  872       -1.614080   1.000000
  873       -1.614002   1.000000
  874       -1.613948   1.000000
  875       -1.613782   1.000000
  876       -1.613661   1.000000
  877       -1.613397   1.000000
  878       -1.613328   1.000000
  879       -1.613242   1.000000
  880       -1.613035   1.000000
  881       -1.612958   1.000000
  882       -1.612858   1.000000
  883       -1.598938   1.000000
  884       -1.598605   1.000000
  885       -1.598556   1.000000
  886       -1.598195   1.000000
  887       -1.598139   1.000000
  888       -1.597989   1.000000
  889       -1.568511   1.000000
  890       -1.565920   1.000000
  891       -1.565398   1.000000
  892       -1.565161   1.000000
  893       -1.565059   1.000000
  894       -1.564929   1.000000
  895       -1.564803   1.000000
  896       -1.496160   1.000000
  897       -1.495823   1.000000
  898       -1.495595   1.000000
  899       -1.495346   1.000000
  900       -1.495249   1.000000
  901       -1.495053   1.000000