       N       E                     dE             d eps       ncg     rms          rms(c)
DAV:   1     0.181847420678E+05    0.18185E+05   -0.91666E+05 12240   0.112E+03
DAV:   2    -0.168190431913E+03   -0.18353E+05   -0.17372E+05 12852   0.399E+02
DAV:   3    -0.140721838489E+04   -0.12390E+04   -0.10232E+04 14028   0.103E+02
DAV:   4    -0.157301125315E+04   -0.16579E+03   -0.14739E+03 21840   0.379E+01
DAV:   5    -0.157901964991E+04   -0.60084E+01   -0.56983E+01 20244   0.696E+00    0.146E+02
DAV:   6    -0.184606284864E+04   -0.26704E+03   -0.32079E+03 13656   0.139E+02    0.246E+02
DAV:   7    -0.192310266943E+04   -0.77040E+02   -0.13551E+03 13272   0.147E+02    0.198E+02
DAV:   8    -0.153413915476E+04    0.38896E+03   -0.53220E+02 16092   0.651E+01    0.170E+02
DAV:   9    -0.145347137027E+04    0.80668E+02   -0.35898E+02 14076   0.744E+01    0.140E+02
DAV:  10    -0.184443321300E+04   -0.39096E+03   -0.31832E+02 14160   0.944E+01    0.273E+02
DAV:  11    -0.176290227899E+04    0.81531E+02   -0.20064E+02 13836   0.719E+01    0.268E+02
DAV:  12    -0.139759861775E+04    0.36530E+03   -0.12121E+02 14496   0.507E+01    0.122E+02
DAV:  13    -0.135936800909E+04    0.38231E+02   -0.95550E+01 13836   0.504E+01    0.100E+02
DAV:  14    -0.138335535977E+04   -0.23987E+02   -0.56983E+01 13728   0.488E+01    0.132E+02
DAV:  15    -0.136144663409E+04    0.21909E+02   -0.49877E+01 12996   0.263E+01    0.119E+02
DAV:  16    -0.132944820336E+04    0.31998E+02   -0.20066E+01 12924   0.197E+01    0.703E+01
DAV:  17    -0.132409688986E+04    0.53513E+01   -0.10285E+01 13632   0.109E+01    0.616E+01
DAV:  18    -0.131918173377E+04    0.49152E+01   -0.43150E+00 13188   0.699E+00    0.532E+01
DAV:  19    -0.131780573640E+04    0.13760E+01   -0.21901E+00 19236   0.272E+00    0.500E+01
DAV:  20    -0.131742897573E+04    0.37676E+00   -0.26816E-01 15588   0.891E-01    0.493E+01
DAV:  21    -0.131639406484E+04    0.10349E+01   -0.13868E-01 18024   0.154E+00    0.481E+01
DAV:  22    -0.131539396115E+04    0.10001E+01   -0.42321E-01 16560   0.247E+00    0.471E+01
DAV:  23    -0.131412779979E+04    0.12662E+01   -0.50282E-01 16464   0.300E+00    0.444E+01
DAV:  24    -0.131441579896E+04   -0.28800E+00   -0.11248E+00 16320   0.486E+00    0.479E+01
DAV:  25    -0.131387119463E+04    0.54460E+00   -0.17821E+00 16104   0.633E+00    0.484E+01
DAV:  26    -0.131106037342E+04    0.28108E+01   -0.19372E+00 14880   0.609E+00    0.392E+01
DAV:  27    -0.130951787806E+04    0.15425E+01   -0.13558E+00 13596   0.486E+00    0.357E+01
DAV:  28    -0.130823370794E+04    0.12842E+01   -0.11434E+00 13356   0.440E+00    0.311E+01
DAV:  29    -0.130780045219E+04    0.43326E+00   -0.10355E+00 13416   0.437E+00    0.303E+01
DAV:  30    -0.130748742600E+04    0.31303E+00   -0.13498E+00 13392   0.478E+00    0.300E+01
DAV:  31    -0.130630418495E+04    0.11832E+01   -0.11040E+00 13392   0.454E+00    0.242E+01
DAV:  32    -0.130608086278E+04    0.22332E+00   -0.70433E-01 13314   0.363E+00    0.240E+01
DAV:  33    -0.130618617960E+04   -0.10532E+00   -0.55142E-01 13308   0.315E+00    0.261E+01
DAV:  34    -0.130565826360E+04    0.52792E+00   -0.45299E-01 13320   0.273E+00    0.226E+01
DAV:  35    -0.130520200419E+04    0.45626E+00   -0.31660E-01 13416   0.228E+00    0.197E+01
DAV:  36    -0.130496033356E+04    0.24167E+00   -0.21344E-01 13308   0.180E+00    0.178E+01
DAV:  37    -0.130481559010E+04    0.14474E+00   -0.19146E-01 13296   0.164E+00    0.165E+01
DAV:  38    -0.130476784750E+04    0.47743E-01   -0.22199E-01 13320   0.189E+00    0.167E+01
DAV:  39    -0.130476395881E+04    0.38887E-02   -0.27091E-01 13320   0.209E+00    0.176E+01
DAV:  40    -0.130460722395E+04    0.15673E+00   -0.21325E-01 13272   0.186E+00    0.164E+01
DAV:  41    -0.130446992554E+04    0.13730E+00   -0.12743E-01 13320   0.144E+00    0.151E+01
DAV:  42    -0.130435705909E+04    0.11287E+00   -0.12538E-01 13344   0.140E+00    0.142E+01
DAV:  43    -0.130415455962E+04    0.20250E+00   -0.14250E-01 13320   0.145E+00    0.116E+01
DAV:  44    -0.130398991967E+04    0.16464E+00   -0.84688E-02 13296   0.121E+00    0.921E+00
DAV:  45    -0.130393157600E+04    0.58344E-01   -0.43654E-02 13848   0.703E-01    0.850E+00
DAV:  46    -0.130390330774E+04    0.28268E-01   -0.53048E-02 13536   0.859E-01    0.867E+00
DAV:  47    -0.130387079260E+04    0.32515E-01   -0.72530E-02 13416   0.106E+00    0.875E+00
DAV:  48    -0.130383452803E+04    0.36265E-01   -0.36675E-02 13404   0.695E-01    0.804E+00
DAV:  49    -0.130379716557E+04    0.37362E-01   -0.70978E-02 13752   0.110E+00    0.748E+00
DAV:  50    -0.130372117018E+04    0.75995E-01   -0.81346E-02 13368   0.104E+00    0.558E+00
DAV:  51    -0.130371478367E+04    0.63865E-02   -0.65034E-02 14724   0.101E+00    0.569E+00
DAV:  52    -0.130368272851E+04    0.32055E-01   -0.34652E-02 13272   0.692E-01    0.441E+00
DAV:  53    -0.130364363834E+04    0.39090E-01   -0.25261E-02 13344   0.726E-01    0.261E+00
DAV:  54    -0.130363814082E+04    0.54975E-02   -0.19013E-02 13128   0.554E-01    0.230E+00
DAV:  55    -0.130365233307E+04   -0.14192E-01   -0.22924E-02 13272   0.642E-01    0.295E+00
DAV:  56    -0.130363598883E+04    0.16344E-01   -0.32340E-02 13620   0.793E-01    0.208E+00
DAV:  57    -0.130364523129E+04   -0.92425E-02   -0.26151E-02 13296   0.669E-01    0.252E+00
DAV:  58    -0.130363018127E+04    0.15050E-01   -0.18484E-02 13236   0.589E-01    0.120E+00
DAV:  59    -0.130363058920E+04   -0.40794E-03   -0.69222E-03 13296   0.350E-01    0.121E+00
DAV:  60    -0.130363199488E+04   -0.14057E-02   -0.62944E-03 13224   0.322E-01
   1 F= -.13036320E+04 E0= -.13029366E+04  d E =-.139084E+01
