LAMMPS (24 Mar 2022)
OMP_NUM_THREADS environment is not set. Defaulting to 1 thread. (src/comm.cpp:98)
  using 1 OpenMP thread(s) per MPI task
Reading data file ...
  orthogonal box = (0 0 0) to (14.5 14.5 14.5)
  1 by 1 by 1 MPI processor grid
  reading atoms ...
  250 atoms
  read_data CPU = 0.001 seconds
WARNING: Using 'neigh_modify every 1 delay 0 check yes' setting during minimization (src/min.cpp:187)
Neighbor list info ...
  update every 1 steps, delay 0 steps, check yes
  max neighbors/atom: 2000, page size: 100000
  master list distance cutoff = 8.28721
  ghost atom cutoff = 8.28721
  binsize = 4.143605, bins = 4 4 4
  1 neighbor lists, perpetual/occasional/extra = 1 0 0
  (1) pair eam/alloy, perpetual
      attributes: half, newton on
      pair build: half/bin/atomonly/newton
      stencil: half/bin/3d
      bin: standard
Setting up cg style minimization ...
  Unit style    : metal
  Current step  : 0
Per MPI rank memory allocation (min/avg/max) = 4.521 | 4.521 | 4.521 Mbytes
   Step          Temp          E_pair         E_mol          TotEng         Press     
         0   0             -1120.1511      0             -1120.1511     -96403.23     
Loop time of 3.075e-06 on 1 procs for 0 steps with 250 atoms

97.6% CPU use with 1 MPI tasks x 1 OpenMP threads

Minimization stats:
  Stopping criterion = max iterations
  Energy initial, next-to-last, final = 
     -1120.15109744951                  0  -1120.15109744951
  Force two-norm initial, final = 3.1998332 3.1998332
  Force max component initial, final = 2.0197347 2.0197347
  Final line search alpha, max atom move = 0 0
  Iterations, force evaluations = 0 0

MPI task timing breakdown:
Section |  min time  |  avg time  |  max time  |%varavg| %total
---------------------------------------------------------------
Pair    | 0          | 0          | 0          |   0.0 |  0.00
Neigh   | 0          | 0          | 0          |   0.0 |  0.00
Comm    | 0          | 0          | 0          |   0.0 |  0.00
Output  | 0          | 0          | 0          |   0.0 |  0.00
Modify  | 0          | 0          | 0          |   0.0 |  0.00
Other   |            | 3.075e-06  |            |       |100.00

Nlocal:            250 ave         250 max         250 min
Histogram: 1 0 0 0 0 0 0 0 0 0
Nghost:           2081 ave        2081 max        2081 min
Histogram: 1 0 0 0 0 0 0 0 0 0
Neighs:          22494 ave       22494 max       22494 min
Histogram: 1 0 0 0 0 0 0 0 0 0

Total # of neighbors = 22494
Ave neighs/atom = 89.976
Neighbor list builds = 0
Dangerous builds = 0
Setting up Verlet run ...
  Unit style    : metal
  Current step  : 0
  Time step     : 0.01
Per MPI rank memory allocation (min/avg/max) = 4.405 | 4.405 | 4.405 Mbytes
   Step          Temp          E_pair         E_mol          TotEng         Press     
         0   300           -1120.1511      0             -1110.4954     -93020.243    
       100   154.74062     -1115.2138      0             -1110.2333     -86576.739    
       200   167.44243     -1115.6581      0             -1110.2689     -87475.551    
       300   167.12484     -1115.6311      0             -1110.2521     -87503.661    
       400   154.07931     -1115.2056      0             -1110.2465     -86614.642    
       500   163.77319     -1115.5265      0             -1110.2553     -87074.933    
       600   164.24765     -1115.5294      0             -1110.243      -87338.542    
       700   172.65218     -1115.8231      0             -1110.2662     -87661.17     
       800   152.26675     -1115.1449      0             -1110.2441     -86552.022    
       900   163.01981     -1115.4864      0             -1110.2394     -87469.923    
      1000   164.28541     -1115.5418      0             -1110.2542     -87127.886    
      1100   150.93        -1115.0893      0             -1110.2315     -86450.449    
      1200   159.54447     -1115.3833      0             -1110.2482     -86625.245    
      1300   160.97087     -1115.4356      0             -1110.2546     -86860.877    
      1400   166.01116     -1115.5977      0             -1110.2545     -87398.591    
      1500   165.03613     -1115.5724      0             -1110.2606     -87430.25     
      1600   167.03757     -1115.6258      0             -1110.2495     -87519.328    
      1700   166.4872      -1115.6135      0             -1110.255      -87436.802    
      1800   165.44042     -1115.5863      0             -1110.2615     -87124.861    
      1900   165.28702     -1115.5722      0             -1110.2523     -87721.473    
      2000   167.87368     -1115.6554      0             -1110.2523     -87634.661    
      2100   157.80584     -1115.3144      0             -1110.2353     -87216.587    
      2200   158.69163     -1115.3538      0             -1110.2462     -87102.776    
      2300   157.15324     -1115.3063      0             -1110.2482     -86658.649    
      2400   164.64203     -1115.5525      0             -1110.2534     -87270.064    
      2500   163.56837     -1115.5155      0             -1110.251      -87382.02     
      2600   155.75041     -1115.2481      0             -1110.2351     -87484.261    
      2700   157.20431     -1115.3186      0             -1110.2588     -86769.333    
      2800   162.09394     -1115.4733      0             -1110.2562     -87530.75     
      2900   155.61613     -1115.2477      0             -1110.2391     -86841.158    
      3000   167.80037     -1115.6527      0             -1110.2519     -86929.659    
      3100   157.52888     -1115.3182      0             -1110.2481     -86846.663    
      3200   154.22671     -1115.2019      0             -1110.238      -87172.35     
      3300   164.79498     -1115.5599      0             -1110.2558     -87627.994    
      3400   163.14124     -1115.4891      0             -1110.2382     -87740.829    
      3500   166.49901     -1115.6126      0             -1110.2537     -87804.136    
      3600   155.13581     -1115.2343      0             -1110.2411     -87232.922    
      3700   159.94461     -1115.3984      0             -1110.2504     -86906.222    
      3800   152.38415     -1115.1416      0             -1110.237      -87014.997    
      3900   161.59674     -1115.4471      0             -1110.246      -87400.237    
      4000   155.93322     -1115.2415      0             -1110.2227     -87128.929    
      4100   164.15038     -1115.5333      0             -1110.25       -87135.709    
      4200   154.92117     -1115.2313      0             -1110.2451     -86388.951    
      4300   166.04168     -1115.5957      0             -1110.2515     -87251.443    
      4400   166.32612     -1115.6163      0             -1110.2629     -87270.434    
      4500   156.91164     -1115.3034      0             -1110.2531     -86793.354    
      4600   163.63976     -1115.5082      0             -1110.2413     -87270.35     
      4700   167.91568     -1115.6618      0             -1110.2573     -87411.762    
      4800   169.46159     -1115.715       0             -1110.2607     -87516.696    
      4900   164.13458     -1115.5333      0             -1110.2505     -87423.229    
      5000   150.58815     -1115.0679      0             -1110.2211     -87098.031    
      5100   162.0814      -1115.465       0             -1110.2483     -87194.016    
      5200   156.66387     -1115.2898      0             -1110.2474     -86687.794    
      5300   161.24293     -1115.4346      0             -1110.2449     -87175.624    
      5400   172.83513     -1115.8234      0             -1110.2606     -87761.933    
      5500   165.21796     -1115.5529      0             -1110.2352     -87706.392    
      5600   158.67743     -1115.3496      0             -1110.2424     -86932.701    
      5700   163.58653     -1115.5096      0             -1110.2445     -87719.606    
      5800   153.53195     -1115.1646      0             -1110.223      -87084.578    
      5900   155.41806     -1115.2361      0             -1110.2338     -86925.054    
      6000   157.3245      -1115.2949      0             -1110.2313     -87110.354    
      6100   162.57189     -1115.4824      0             -1110.2499     -86877.57     
      6200   165.68909     -1115.5907      0             -1110.2578     -87102.941    
      6300   160.48064     -1115.4028      0             -1110.2376     -87267.098    
      6400   168.99891     -1115.7138      0             -1110.2744     -87521.912    
      6500   164.55136     -1115.5385      0             -1110.2423     -87578.091    
      6600   164.02204     -1115.523       0             -1110.2438     -87685.133    
      6700   161.32404     -1115.4278      0             -1110.2354     -87351.015    
      6800   154.02454     -1115.1813      0             -1110.2239     -86902.936    
      6900   162.23931     -1115.4677      0             -1110.2459     -87112.876    
      7000   163.81696     -1115.5078      0             -1110.2353     -87573.58     
      7100   167.55887     -1115.6389      0             -1110.2459     -87558.394    
      7200   170.43496     -1115.737       0             -1110.2514     -87949.596    
      7300   171.81822     -1115.7962      0             -1110.2661     -87380.689    
      7400   163.40103     -1115.5058      0             -1110.2466     -86982.593    
      7500   161.7919      -1115.4394      0             -1110.232      -87110.945    
      7600   154.70142     -1115.2025      0             -1110.2234     -86621.928    
      7700   159.86731     -1115.3745      0             -1110.2291     -87311.847    
      7800   163.85591     -1115.5181      0             -1110.2443     -87334.669    
      7900   162.64953     -1115.4762      0             -1110.2411     -87633.662    
      8000   165.72957     -1115.5911      0             -1110.257      -87064.242    
      8100   165.27783     -1115.5575      0             -1110.2379     -87492.857    
      8200   167.51535     -1115.6364      0             -1110.2448     -87620.182    
      8300   158.89304     -1115.3527      0             -1110.2386     -87131.545    
      8400   168.35338     -1115.6855      0             -1110.2669     -87032.36     
      8500   159.02533     -1115.3626      0             -1110.2442     -86895.171    
      8600   160.62624     -1115.4157      0             -1110.2458     -86867.14     
      8700   157.54822     -1115.2991      0             -1110.2283     -86738.256    
      8800   160.02184     -1115.3713      0             -1110.2208     -87075.358    
      8900   162.97796     -1115.4812      0             -1110.2356     -87350.584    
      9000   149.61106     -1115.0368      0             -1110.2214     -86282.913    
      9100   170.12361     -1115.7342      0             -1110.2586     -87417.883    
      9200   165.91086     -1115.5761      0             -1110.2362     -87245.795    
      9300   148.59827     -1115.0003      0             -1110.2176     -86395.055    
      9400   153.68076     -1115.1622      0             -1110.2159     -86944.291    
      9500   162.7977      -1115.4781      0             -1110.2383     -87470.241    
      9600   157.22883     -1115.2949      0             -1110.2344     -86489.429    
      9700   163.30295     -1115.4955      0             -1110.2394     -86721.794    
      9800   161.83683     -1115.4589      0             -1110.2501     -87031.212    
      9900   156.78359     -1115.2783      0             -1110.2321     -86822.218    
     10000   170.511       -1115.7277      0             -1110.2397     -87608.793    
Loop time of 7.06814 on 1 procs for 10000 steps with 250 atoms

Performance: 1222.386 ns/day, 0.020 hours/ns, 1414.799 timesteps/s
99.9% CPU use with 1 MPI tasks x 1 OpenMP threads

MPI task timing breakdown:
Section |  min time  |  avg time  |  max time  |%varavg| %total
---------------------------------------------------------------
Pair    | 6.7636     | 6.7636     | 6.7636     |   0.0 | 95.69
Neigh   | 0          | 0          | 0          |   0.0 |  0.00
Comm    | 0.082496   | 0.082496   | 0.082496   |   0.0 |  1.17
Output  | 0.17794    | 0.17794    | 0.17794    |   0.0 |  2.52
Modify  | 0.02161    | 0.02161    | 0.02161    |   0.0 |  0.31
Other   |            | 0.02248    |            |       |  0.32

Nlocal:            250 ave         250 max         250 min
Histogram: 1 0 0 0 0 0 0 0 0 0
Nghost:           2081 ave        2081 max        2081 min
Histogram: 1 0 0 0 0 0 0 0 0 0
Neighs:          22494 ave       22494 max       22494 min
Histogram: 1 0 0 0 0 0 0 0 0 0

Total # of neighbors = 22494
Ave neighs/atom = 89.976
Neighbor list builds = 0
Dangerous builds = 0
System init for write_restart ...
Total wall time: 0:00:07
