 254 254   0   0
  0.3019211E+02  0.1718057E-08  0.1718057E-08  0.3000000E-08  0.5000000E-15
  1.000000000000000E-004
  CAR 
 NiAl                                    
      5.01867472    -15.27874283  301      1.73171909      1.00000000
    -15.279  0.0000E+00  0.0000E+00
    -15.211  0.0000E+00  0.0000E+00
    -15.143  0.0000E+00  0.0000E+00
    -15.076  0.0000E+00  0.0000E+00
    -15.008  0.0000E+00  0.0000E+00
    -14.940  0.0000E+00  0.0000E+00
    -14.873  0.0000E+00  0.0000E+00
    -14.805  0.0000E+00  0.0000E+00
    -14.737  0.0000E+00  0.0000E+00
    -14.670  0.0000E+00  0.0000E+00
    -14.602  0.5043E-10  0.3412E-11
    -14.535  0.6670E-05  0.4513E-06
    -14.467  0.2563E-01  0.1734E-02
    -14.399  0.3270E+01  0.2230E+00
    -14.332  0.1907E+02  0.1513E+01
    -14.264  0.7064E+01  0.1991E+01
    -14.196  0.1343E+00  0.2000E+01
    -14.129  0.9040E-04  0.2000E+01
    -14.061  0.1813E-08  0.2000E+01
    -13.993  0.0000E+00  0.2000E+01
    -13.926  0.0000E+00  0.2000E+01
    -13.858  0.0000E+00  0.2000E+01
    -13.790  0.0000E+00  0.2000E+01
    -13.723  0.0000E+00  0.2000E+01
    -13.655  0.0000E+00  0.2000E+01
    -13.587  0.0000E+00  0.2000E+01
    -13.520  0.0000E+00  0.2000E+01
    -13.452  0.0000E+00  0.2000E+01
    -13.384  0.0000E+00  0.2000E+01
    -13.317  0.0000E+00  0.2000E+01
    -13.249  0.0000E+00  0.2000E+01
    -13.181  0.0000E+00  0.2000E+01
    -13.114  0.0000E+00  0.2000E+01
    -13.046  0.0000E+00  0.2000E+01
    -12.978  0.0000E+00  0.2000E+01
    -12.911  0.0000E+00  0.2000E+01
    -12.843  0.0000E+00  0.2000E+01
    -12.775  0.0000E+00  0.2000E+01
    -12.708  0.0000E+00  0.2000E+01
    -12.640  0.0000E+00  0.2000E+01
    -12.572  0.0000E+00  0.2000E+01
    -12.505  0.0000E+00  0.2000E+01
    -12.437  0.0000E+00  0.2000E+01
    -12.369  0.0000E+00  0.2000E+01
    -12.302  0.0000E+00  0.2000E+01
    -12.234  0.0000E+00  0.2000E+01
    -12.166  0.0000E+00  0.2000E+01
    -12.099  0.0000E+00  0.2000E+01
    -12.031  0.0000E+00  0.2000E+01
    -11.963  0.0000E+00  0.2000E+01
    -11.896  0.0000E+00  0.2000E+01
    -11.828  0.0000E+00  0.2000E+01
    -11.761  0.0000E+00  0.2000E+01
    -11.693  0.0000E+00  0.2000E+01
    -11.625  0.0000E+00  0.2000E+01
    -11.558  0.0000E+00  0.2000E+01
    -11.490  0.0000E+00  0.2000E+01
    -11.422  0.0000E+00  0.2000E+01
    -11.355  0.0000E+00  0.2000E+01
    -11.287  0.0000E+00  0.2000E+01
    -11.219  0.0000E+00  0.2000E+01
    -11.152  0.0000E+00  0.2000E+01
    -11.084  0.0000E+00  0.2000E+01
    -11.016  0.0000E+00  0.2000E+01
    -10.949  0.0000E+00  0.2000E+01
    -10.881  0.0000E+00  0.2000E+01
    -10.813  0.0000E+00  0.2000E+01
    -10.746  0.0000E+00  0.2000E+01
    -10.678  0.0000E+00  0.2000E+01
    -10.610  0.0000E+00  0.2000E+01
    -10.543  0.0000E+00  0.2000E+01
    -10.475  0.0000E+00  0.2000E+01
    -10.407  0.0000E+00  0.2000E+01
    -10.340  0.0000E+00  0.2000E+01
    -10.272  0.0000E+00  0.2000E+01
    -10.204  0.0000E+00  0.2000E+01
    -10.137  0.0000E+00  0.2000E+01
    -10.069  0.0000E+00  0.2000E+01
    -10.001  0.0000E+00  0.2000E+01
     -9.934  0.0000E+00  0.2000E+01
     -9.866  0.0000E+00  0.2000E+01
     -9.798  0.0000E+00  0.2000E+01
     -9.731  0.0000E+00  0.2000E+01
     -9.663  0.0000E+00  0.2000E+01
     -9.595  0.0000E+00  0.2000E+01
     -9.528  0.4272E-10  0.2000E+01
     -9.460  0.5901E-05  0.2000E+01
     -9.392  0.2366E-01  0.2002E+01
     -9.325  0.3143E+01  0.2214E+01
     -9.257  0.1912E+02  0.3508E+01
     -9.190  0.1035E+02  0.4208E+01
     -9.122  0.4091E+01  0.4484E+01
     -9.054  0.6657E+01  0.4935E+01
     -8.987  0.2922E+02  0.6911E+01
     -8.919  0.8616E+01  0.7494E+01
     -8.851  0.2055E+01  0.7633E+01
     -8.784  0.4809E+01  0.7959E+01
     -8.716  0.1151E+02  0.8738E+01
     -8.648  0.5558E+02  0.1250E+02
     -8.581  0.2329E+02  0.1407E+02
     -8.513  0.2323E+02  0.1565E+02
     -8.445  0.1912E+02  0.1694E+02
     -8.378  0.4887E+01  0.1727E+02
     -8.310  0.2778E+02  0.1915E+02
     -8.242  0.1308E+02  0.2003E+02
     -8.175  0.2013E+02  0.2140E+02
     -8.107  0.2923E+02  0.2337E+02
     -8.039  0.3538E+02  0.2577E+02
     -7.972  0.8473E+02  0.3150E+02
     -7.904  0.1465E+02  0.3249E+02
     -7.836  0.1262E+00  0.3250E+02
     -7.769  0.8973E+00  0.3256E+02
     -7.701  0.4099E+02  0.3533E+02
     -7.633  0.1130E+03  0.4298E+02
     -7.566  0.2489E+02  0.4466E+02
     -7.498  0.2594E+02  0.4642E+02
     -7.430  0.1573E+02  0.4748E+02
     -7.363  0.1332E+02  0.4838E+02
     -7.295  0.3318E+02  0.5063E+02
     -7.227  0.1774E+02  0.5183E+02
     -7.160  0.5792E+02  0.5575E+02
     -7.092  0.2281E+02  0.5729E+02
     -7.024  0.8007E+02  0.6271E+02
     -6.957  0.8701E+02  0.6860E+02
     -6.889  0.1748E+02  0.6978E+02
     -6.821  0.5749E+02  0.7367E+02
     -6.754  0.2370E+02  0.7527E+02
     -6.686  0.7977E+02  0.8067E+02
     -6.619  0.8803E+02  0.8662E+02
     -6.551  0.2047E+02  0.8801E+02
     -6.483  0.2641E+02  0.8980E+02
     -6.416  0.3002E+01  0.9000E+02
     -6.348  0.1178E+01  0.9008E+02
     -6.280  0.6253E+01  0.9050E+02
     -6.213  0.5500E+02  0.9422E+02
     -6.145  0.1317E+03  0.1031E+03
     -6.077  0.5827E+02  0.1071E+03
     -6.010  0.1157E+03  0.1149E+03
     -5.942  0.3857E+02  0.1175E+03
     -5.874  0.2248E+02  0.1190E+03
     -5.807  0.4957E+02  0.1224E+03
     -5.739  0.5203E+02  0.1259E+03
     -5.671  0.1286E+03  0.1346E+03
     -5.604  0.5586E+02  0.1384E+03
     -5.536  0.2640E+02  0.1402E+03
     -5.468  0.1924E+02  0.1415E+03
     -5.401  0.3137E+02  0.1436E+03
     -5.333  0.8606E+02  0.1494E+03
     -5.265  0.2378E+02  0.1510E+03
     -5.198  0.7267E+02  0.1560E+03
     -5.130  0.8645E+02  0.1618E+03
     -5.062  0.7098E+02  0.1666E+03
     -4.995  0.7212E+02  0.1715E+03
     -4.927  0.8443E+01  0.1721E+03
     -4.859  0.2905E+02  0.1740E+03
     -4.792  0.6306E+02  0.1783E+03
     -4.724  0.1240E+03  0.1867E+03
     -4.656  0.9091E+02  0.1928E+03
     -4.589  0.4114E+02  0.1956E+03
     -4.521  0.6829E+02  0.2002E+03
     -4.453  0.2807E+02  0.2021E+03
     -4.386  0.4581E+02  0.2052E+03
     -4.318  0.7587E+02  0.2104E+03
     -4.250  0.8691E+02  0.2162E+03
     -4.183  0.1486E+03  0.2263E+03
     -4.115  0.7508E+02  0.2314E+03
     -4.048  0.8444E+02  0.2371E+03
     -3.980  0.1857E+02  0.2383E+03
     -3.912  0.6250E+02  0.2426E+03
     -3.845  0.9064E+02  0.2487E+03
     -3.777  0.6058E+02  0.2528E+03
     -3.709  0.1046E+03  0.2599E+03
     -3.642  0.4194E+02  0.2627E+03
     -3.574  0.7007E+02  0.2675E+03
     -3.506  0.5030E+02  0.2709E+03
     -3.439  0.9137E+01  0.2715E+03
     -3.371  0.8298E+01  0.2720E+03
     -3.303  0.6241E+02  0.2763E+03
     -3.236  0.9774E+02  0.2829E+03
     -3.168  0.7557E+02  0.2880E+03
     -3.100  0.1271E+03  0.2966E+03
     -3.033  0.7978E+02  0.3020E+03
     -2.965  0.8614E+02  0.3078E+03
     -2.897  0.1572E+03  0.3185E+03
     -2.830  0.1598E+03  0.3293E+03
     -2.762  0.1814E+03  0.3415E+03
     -2.694  0.2876E+02  0.3435E+03
     -2.627  0.2745E+00  0.3435E+03
     -2.559  0.3889E+01  0.3438E+03
     -2.491  0.3609E+02  0.3462E+03
     -2.424  0.7300E+02  0.3511E+03
     -2.356  0.1237E+03  0.3595E+03
     -2.288  0.1281E+03  0.3682E+03
     -2.221  0.4833E+02  0.3715E+03
     -2.153  0.1122E+03  0.3790E+03
     -2.085  0.6625E+02  0.3835E+03
     -2.018  0.5813E+02  0.3875E+03
     -1.950  0.9435E+02  0.3938E+03
     -1.882  0.1044E+03  0.4009E+03
     -1.815  0.1759E+03  0.4128E+03
     -1.747  0.7437E+02  0.4178E+03
     -1.679  0.2527E+02  0.4196E+03
     -1.612  0.7128E+02  0.4244E+03
     -1.544  0.8632E+02  0.4302E+03
     -1.476  0.4687E+02  0.4334E+03
     -1.409  0.1378E+03  0.4427E+03
     -1.341  0.1919E+03  0.4557E+03
     -1.274  0.8455E+02  0.4614E+03
     -1.206  0.1693E+03  0.4729E+03
     -1.138  0.7151E+02  0.4777E+03
     -1.071  0.7513E+02  0.4828E+03
     -1.003  0.7037E+02  0.4876E+03
     -0.935  0.1129E+03  0.4952E+03
     -0.868  0.1462E+03  0.5051E+03
     -0.800  0.7052E+02  0.5099E+03
     -0.732  0.6826E+02  0.5145E+03
     -0.665  0.3230E+02  0.5167E+03
     -0.597  0.4824E+02  0.5199E+03
     -0.529  0.1214E+03  0.5281E+03
     -0.462  0.2359E+03  0.5441E+03
     -0.394  0.1105E+03  0.5516E+03
     -0.326  0.8594E+02  0.5574E+03
     -0.259  0.1635E+03  0.5684E+03
     -0.191  0.4887E+02  0.5718E+03
     -0.123  0.4473E+02  0.5748E+03
     -0.056  0.2416E+02  0.5764E+03
      0.012  0.1170E+03  0.5843E+03
      0.080  0.9229E+02  0.5906E+03
      0.147  0.7843E+02  0.5959E+03
      0.215  0.1011E+03  0.6027E+03
      0.283  0.7539E+02  0.6078E+03
      0.350  0.6655E+02  0.6123E+03
      0.418  0.1411E+03  0.6219E+03
      0.486  0.1332E+03  0.6309E+03
      0.553  0.6269E+02  0.6351E+03
      0.621  0.6835E+02  0.6398E+03
      0.689  0.2957E+02  0.6418E+03
      0.756  0.5078E+02  0.6452E+03
      0.824  0.6385E+02  0.6495E+03
      0.892  0.1666E+03  0.6608E+03
      0.959  0.2850E+03  0.6801E+03
      1.027  0.1349E+03  0.6892E+03
      1.095  0.1070E+03  0.6964E+03
      1.162  0.7495E+02  0.7015E+03
      1.230  0.7455E+02  0.7065E+03
      1.297  0.6014E+02  0.7106E+03
      1.365  0.8940E+02  0.7167E+03
      1.433  0.9081E+02  0.7228E+03
      1.500  0.1436E+03  0.7325E+03
      1.568  0.1670E+03  0.7438E+03
      1.636  0.1917E+03  0.7568E+03
      1.703  0.1059E+03  0.7640E+03
      1.771  0.6039E+02  0.7680E+03
      1.839  0.6646E+02  0.7725E+03
      1.906  0.1506E+03  0.7827E+03
      1.974  0.1849E+03  0.7952E+03
      2.042  0.7598E+02  0.8004E+03
      2.109  0.7109E+02  0.8052E+03
      2.177  0.8524E+02  0.8110E+03
      2.245  0.5128E+02  0.8144E+03
      2.312  0.6163E+02  0.8186E+03
      2.380  0.1331E+03  0.8276E+03
      2.448  0.8735E+02  0.8335E+03
      2.515  0.9497E+02  0.8399E+03
      2.583  0.1574E+03  0.8506E+03
      2.651  0.8126E+02  0.8561E+03
      2.718  0.6754E+02  0.8607E+03
      2.786  0.7496E+02  0.8657E+03
      2.854  0.2156E+03  0.8803E+03
      2.921  0.3306E+03  0.9027E+03
      2.989  0.1778E+03  0.9147E+03
      3.057  0.6231E+02  0.9189E+03
      3.124  0.4206E+02  0.9218E+03
      3.192  0.9764E+02  0.9284E+03
      3.260  0.1145E+03  0.9361E+03
      3.327  0.1309E+03  0.9450E+03
      3.395  0.1712E+03  0.9566E+03
      3.463  0.1039E+03  0.9636E+03
      3.530  0.6768E+02  0.9682E+03
      3.598  0.8868E+02  0.9742E+03
      3.666  0.1150E+03  0.9820E+03
      3.733  0.8013E+02  0.9874E+03
      3.801  0.6236E+02  0.9916E+03
      3.868  0.1398E+03  0.1001E+04
      3.936  0.1875E+03  0.1014E+04
      4.004  0.1552E+03  0.1024E+04
      4.071  0.8031E+02  0.1030E+04
      4.139  0.3140E+02  0.1032E+04
      4.207  0.2960E+01  0.1032E+04
      4.274  0.1821E-01  0.1032E+04
      4.342  0.4173E-05  0.1032E+04
      4.410  0.2888E-10  0.1032E+04
      4.477  0.0000E+00  0.1032E+04
      4.545  0.0000E+00  0.1032E+04
      4.613  0.0000E+00  0.1032E+04
      4.680  0.0000E+00  0.1032E+04
      4.748  0.0000E+00  0.1032E+04
      4.816  0.0000E+00  0.1032E+04
      4.883  0.0000E+00  0.1032E+04
      4.951  0.0000E+00  0.1032E+04
      5.019  0.0000E+00  0.1032E+04
