       N       E                     dE             d eps       ncg     rms          rms(c)
DAV:   1     0.211803184630E+04    0.21180E+04   -0.18387E+05  3120   0.734E+02
DAV:   2    -0.739403935704E+03   -0.28574E+04   -0.26990E+04  4224   0.192E+02
DAV:   3    -0.946262073987E+03   -0.20686E+03   -0.19434E+03  4212   0.398E+01
DAV:   4    -0.956336923110E+03   -0.10075E+02   -0.98937E+01  4476   0.911E+00
DAV:   5    -0.956833483727E+03   -0.49656E+00   -0.49432E+00  5244   0.211E+00    0.180E+01
DAV:   6    -0.974105060018E+03   -0.17272E+02   -0.19121E+02  4608   0.162E+01    0.213E+01
DAV:   7    -0.931752585262E+03    0.42352E+02   -0.14331E+02  3912   0.152E+01    0.978E+00
DAV:   8    -0.935581918677E+03   -0.38293E+01   -0.43055E+01  4056   0.671E+00    0.671E+00
DAV:   9    -0.934564482758E+03    0.10174E+01   -0.45413E+00  4092   0.724E+00    0.562E+00
DAV:  10    -0.929685757111E+03    0.48787E+01   -0.51078E+00  4092   0.418E+00    0.132E+00
DAV:  11    -0.929564421713E+03    0.12134E+00   -0.20071E+00  3876   0.161E+00    0.363E+00
DAV:  12    -0.929598780739E+03   -0.34359E-01   -0.16995E+00  3996   0.619E-01    0.118E+00
DAV:  13    -0.929709392978E+03   -0.11061E+00   -0.89692E-02  3828   0.315E-01    0.125E+01
DAV:  14    -0.929375881422E+03    0.33351E+00   -0.19217E+00  3732   0.207E-01    0.135E+00
DAV:  15    -0.929498814646E+03   -0.12293E+00   -0.47767E-02  3552   0.172E-01    0.104E+00
DAV:  16    -0.929500735845E+03   -0.19212E-02   -0.15732E-02  3996   0.117E-01    0.933E-01
DAV:  17    -0.929498268023E+03    0.24678E-02   -0.87865E-03  3540   0.101E-01    0.761E-01
DAV:  18    -0.929507242008E+03   -0.89740E-02   -0.83248E-03  3528   0.903E-02    0.687E-01
DAV:  19    -0.929512828655E+03   -0.55866E-02   -0.35348E-03  3540   0.600E-02    0.449E-01
DAV:  20    -0.929518141399E+03   -0.53127E-02   -0.92387E-04  3600   0.290E-02    0.648E-02
DAV:  21    -0.929525862807E+03   -0.77214E-02   -0.12886E-03  3336   0.237E-02    0.908E-01
DAV:  22    -0.929523291358E+03    0.25714E-02   -0.38993E-04  3336   0.218E-02    0.724E-01
DAV:  23    -0.929522397736E+03    0.89362E-03   -0.39234E-04  3720   0.959E-03    0.118E-01
DAV:  24    -0.929525608601E+03   -0.32109E-02   -0.16963E-04  3096   0.938E-03    0.102E-01
DAV:  25    -0.929526714583E+03   -0.11060E-02   -0.94295E-05  3072   0.767E-03    0.286E-02
DAV:  26    -0.929527627783E+03   -0.91320E-03   -0.78547E-05  2880   0.521E-03    0.397E-02
DAV:  27    -0.929528321750E+03   -0.69397E-03   -0.27974E-05  2820   0.366E-03    0.343E-02
DAV:  28    -0.929528878407E+03   -0.55666E-03   -0.36336E-05  2760   0.325E-03    0.586E-02
DAV:  29    -0.929528994136E+03   -0.11573E-03   -0.56691E-06  2628   0.195E-03    0.481E-02
DAV:  30    -0.929529045217E+03   -0.51080E-04   -0.26036E-06  2232   0.116E-03    0.184E-02
DAV:  31    -0.929529119840E+03   -0.74623E-04   -0.39029E-06  2304   0.110E-03    0.894E-03
DAV:  32    -0.929529136157E+03   -0.16317E-04   -0.60892E-07  2184   0.857E-04    0.511E-03
DAV:  33    -0.929529139224E+03   -0.30679E-05   -0.18179E-07  1836   0.447E-04
   1 F= -.92952914E+03 E0= -.92949140E+03  d E =-.754738E-01
