 vasp.5.4.4.18Apr17-6-g9f103f2a35 (build May 02 2017 15:33:50) complex          
  
 executed on Intel-16.0.3.210-OMP date 2018.08.08  23:51:39
 running on    6 total cores
 distrk:  each k-point on    6 cores,    1 groups
 distr:  one band on NCORES_PER_BAND=   1 cores,    6 groups


--------------------------------------------------------------------------------------------------------


 INCAR:
 POTCAR:    PAW Al_GW 19Mar2012                   
 POTCAR:    PAW_PBE N 08Apr2002                   

 ----------------------------------------------------------------------------- 
|                                                                             |
|           W    W    AA    RRRRR   N    N  II  N    N   GGGG   !!!           |
|           W    W   A  A   R    R  NN   N  II  NN   N  G    G  !!!           |
|           W    W  A    A  R    R  N N  N  II  N N  N  G       !!!           |
|           W WW W  AAAAAA  RRRRR   N  N N  II  N  N N  G  GGG   !            |
|           WW  WW  A    A  R   R   N   NN  II  N   NN  G    G                |
|           W    W  A    A  R    R  N    N  II  N    N   GGGG   !!!           |
|                                                                             |
|      For optimal performance we recommend to set                            |
|        NCORE= 4 - approx SQRT( number of cores)                             |
|      NCORE specifies how many cores store one orbital (NPAR=cpu/NCORE).     |
|      This setting can  greatly improve the performance of VASP for DFT.     |
|      The default,   NCORE=1            might be grossly inefficient         |
|      on modern multi-core architectures or massively parallel machines.     |
|      Do your own testing !!!!                                               |
|      Unfortunately you need to use the default for GW and RPA calculations. |
|      (for HF NCORE is supported but not extensively tested yet)             |
|                                                                             |
 ----------------------------------------------------------------------------- 

 POTCAR:    PAW Al_GW 19Mar2012                   
   VRHFIN =Al: s2p1                                                             
   LEXCH  = PE                                                                  
   EATOM  =    53.5387 eV,    3.9350 Ry                                         
                                                                                
   TITEL  = PAW Al_GW 19Mar2012                                                 
   LULTRA =        F    use ultrasoft PP ?                                      
   IUNSCR =        1    unscreen: 0-lin 1-nonlin 2-no                           
   RPACOR =    1.500    partial core radius                                     
   POMASS =   26.982; ZVAL   =    3.000    mass and valenz                      
   RCORE  =    2.000    outmost cutoff radius                                   
   RWIGS  =    2.000; RWIGS  =    1.058    wigner-seitz radius (au A)           
   ENMAX  =  240.300; ENMIN  =  180.225 eV                                      
   ICORE  =        3    local potential                                         
   LCOR   =        T    correct aug charges                                     
   LPAW   =        T    paw PP                                                  
   EAUG   =  482.059                                                            
   DEXC   =    0.000                                                            
   RMAX   =    2.051    core radius for proj-oper                               
   RAUG   =    1.300    factor for augmentation sphere                          
   RDEP   =    2.096    radius for radial grids                                 
   RDEPT  =    1.856    core radius for aug-charge                              
                                                                                
   Atomic configuration                                                         
    7 entries                                                                   
     n  l   j            E        occ.                                          
     1  0  0.50     -1511.1048   2.0000                                         
     2  0  0.50      -108.1629   2.0000                                         
     2  1  1.50       -69.6402   6.0000                                         
     3  0  0.50        -7.7528   2.0000                                         
     3  1  1.50        -2.7121   1.0000                                         
     3  2  2.50        -2.7212   0.0000                                         
     4  3  2.50        -2.7212   0.0000                                         
   Description                                                                  
     l       E           TYP  RCUT    TYP  RCUT                                 
     0     -7.7528455     23  1.900                                             
     0     68.0291300     23  1.900                                             
     1     -2.7120682     23  1.900                                             
     1     68.0291300     23  1.900                                             
     2     -1.3605826     23  1.900                                             
     2     81.6349560     23  1.900                                             
     3     74.8320430     23  2.000                                             
  local pseudopotential read in
  partial core-charges read in
  partial kinetic energy density read in
  kinetic energy density of atom read in
  atomic valenz-charges read in
  non local Contribution for L=           0  read in
    real space projection operators read in
  non local Contribution for L=           0  read in
    real space projection operators read in
  non local Contribution for L=           1  read in
    real space projection operators read in
  non local Contribution for L=           1  read in
    real space projection operators read in
  non local Contribution for L=           2  read in
    real space projection operators read in
  non local Contribution for L=           2  read in
    real space projection operators read in
    PAW grid and wavefunctions read in
 
   number of l-projection  operators is LMAX  =           6
   number of lm-projection operators is LMMAX =          18
 
 POTCAR:    PAW_PBE N 08Apr2002                   
   VRHFIN =N: s2p3                                                              
   LEXCH  = PE                                                                  
   EATOM  =   264.5486 eV,   19.4438 Ry                                         
                                                                                
   TITEL  = PAW_PBE N 08Apr2002                                                 
   LULTRA =        F    use ultrasoft PP ?                                      
   IUNSCR =        1    unscreen: 0-lin 1-nonlin 2-no                           
   RPACOR =    1.200    partial core radius                                     
   POMASS =   14.001; ZVAL   =    5.000    mass and valenz                      
   RCORE  =    1.500    outmost cutoff radius                                   
   RWIGS  =    1.400; RWIGS  =    0.741    wigner-seitz radius (au A)           
   ENMAX  =  400.000; ENMIN  =  300.000 eV                                      
   ICORE  =        2    local potential                                         
   LCOR   =        T    correct aug charges                                     
   LPAW   =        T    paw PP                                                  
   EAUG   =  627.112                                                            
   DEXC   =    0.000                                                            
   RMAX   =    1.529    core radius for proj-oper                               
   RAUG   =    1.300    factor for augmentation sphere                          
   RDEP   =    1.514    radius for radial grids                                 
   RDEPT  =    1.338    core radius for aug-charge                              
                                                                                
   Atomic configuration                                                         
    4 entries                                                                   
     n  l   j            E        occ.                                          
     1  0  0.50      -384.7179   2.0000                                         
     2  0  0.50       -18.5828   2.0000                                         
     2  1  0.50        -7.0898   3.0000                                         
     3  2  1.50        -6.8029   0.0000                                         
   Description                                                                  
     l       E           TYP  RCUT    TYP  RCUT                                 
     0    -18.5828119     23  1.200                                             
     0    -13.5018863     23  1.200                                             
     1     -7.0897853     23  1.500                                             
     1      9.5240782     23  1.500                                             
     2     -6.8029130      7  1.500                                             
  local pseudopotential read in
  partial core-charges read in
  partial kinetic energy density read in
  atomic valenz-charges read in
  non local Contribution for L=           0  read in
    real space projection operators read in
  non local Contribution for L=           0  read in
    real space projection operators read in
  non local Contribution for L=           1  read in
    real space projection operators read in
  non local Contribution for L=           1  read in
    real space projection operators read in
    PAW grid and wavefunctions read in
 
   number of l-projection  operators is LMAX  =           4
   number of lm-projection operators is LMMAX =           8
 
 Optimization of the real space projectors (new method)

 maximal supplied QI-value         = 18.90
 optimisation between [QCUT,QGAM] = [  8.69, 17.57] = [ 21.16, 86.49] Ry 
 Optimized for a Real-space Cutoff    1.59 Angstroem

   l    n(q)    QCUT    max X(q) W(low)/X(q) W(high)/X(q)  e(spline) 
   0      8     8.693    11.519    0.12E-03    0.31E-04    0.21E-06
   0      8     8.693     5.834    0.89E-04    0.32E-04    0.16E-06
   1      8     8.693    10.132    0.25E-03    0.39E-03    0.25E-06
   1      8     8.693     3.004    0.16E-03    0.27E-03    0.22E-06
   2      7     8.693     3.169    0.39E-03    0.93E-03    0.44E-06
   2      7     8.693     1.605    0.70E-04    0.91E-04    0.19E-06
 Optimization of the real space projectors (new method)

 maximal supplied QI-value         = 25.13
 optimisation between [QCUT,QGAM] = [  8.80, 17.59] = [ 21.67, 86.68] Ry 
 Optimized for a Real-space Cutoff    2.14 Angstroem

   l    n(q)    QCUT    max X(q) W(low)/X(q) W(high)/X(q)  e(spline) 
   0     11     8.797    79.467    0.70E-04    0.19E-04    0.19E-05
   0     11     8.797    66.151    0.68E-04    0.18E-04    0.19E-05
   1     11     8.797     6.738    0.26E-03    0.11E-02    0.73E-05
   1     11     8.797     5.013    0.25E-03    0.11E-02    0.72E-05
  PAW Al_GW 19Mar2012                   :
 energy of atom  1       EATOM=  -53.5387
 kinetic energy error for atom=    0.0011 (will be added to EATOM!!)
  PAW_PBE N 08Apr2002                   :
 energy of atom  2       EATOM= -264.5486
 kinetic energy error for atom=    0.6882 (will be added to EATOM!!)
 
 
 POSCAR: New structure                           
  positions in cartesian coordinates
  No initial velocities read in
 exchange correlation table for  LEXCH =        8
   RHO(1)=    0.500       N(1)  =     2000
   RHO(2)=  100.500       N(2)  =     4000
 


--------------------------------------------------------------------------------------------------------


 ion  position               nearest neighbor table
   1  0.444  0.444  0.079-
   2  0.444  0.778  0.079-
   3  0.444  0.111  0.079-
   4  0.778  0.444  0.079-
   5  0.778  0.778  0.079-
   6  0.778  0.111  0.079-
   7  0.111  0.444  0.079-
   8  0.111  0.778  0.079-
   9  0.111  0.111  0.079-
  10  0.556  0.556  0.157-
  11  0.556  0.889  0.157-
  12  0.556  0.222  0.157-
  13  0.889  0.556  0.157-
  14  0.889  0.889  0.157-
  15  0.889  0.222  0.157-
  16  0.222  0.556  0.157-
  17  0.222  0.889  0.157-
  18  0.222  0.222  0.157-
  19  0.667  0.667  0.234-
  20  0.667  0.000  0.234-
  21  0.667  0.333  0.234-
  22  0.000  0.667  0.234-
  23  0.000  0.000  0.234-
  24  0.000  0.333  0.234-
  25  0.333  0.667  0.234-
  26  0.333  0.000  0.234-
  27  0.333  0.333  0.234-
  28  0.778  0.778  0.312-
  29  0.778  0.111  0.312-
  30  0.778  0.444  0.312-
  31  0.111  0.778  0.312-
  32  0.111  0.111  0.312-
  33  0.111  0.444  0.312-
  34  0.444  0.778  0.312-
  35  0.444  0.111  0.312-
  36  0.444  0.444  0.312-
  37  0.889  0.889  0.390-
  38  0.889  0.222  0.390-
  39  0.889  0.556  0.390-
  40  0.222  0.889  0.390-
  41  0.222  0.222  0.390-
  42  0.222  0.556  0.390-
  43  0.556  0.889  0.390-
  44  0.556  0.222  0.390-
  45  0.556  0.556  0.390-
  46  0.000  0.000  0.466-
  47  0.000  0.333  0.466-
  48  0.000  0.667  0.466-
  49  0.333  0.000  0.466-
  50  0.333  0.333  0.466-
  51  0.333  0.667  0.466-
  52  0.667  0.000  0.466-
  53  0.667  0.333  0.466-
  54  0.667  0.667  0.466-
  55  0.111  0.111  0.545-
  56  0.111  0.444  0.545-
  57  0.111  0.778  0.545-
  58  0.444  0.111  0.545-
  59  0.444  0.444  0.545-
  60  0.444  0.778  0.545-
  61  0.778  0.111  0.545-
  62  0.778  0.444  0.545-
  63  0.778  0.778  0.545-
  64  0.278  0.278  0.079-
  65  0.278  0.611  0.079-
  66  0.278  0.944  0.079-
  67  0.611  0.278  0.079-
  68  0.611  0.611  0.079-
  69  0.611  0.944  0.079-
  70  0.944  0.278  0.079-
  71  0.944  0.611  0.079-
  72  0.944  0.944  0.079-
  73  0.389  0.389  0.157-
  74  0.389  0.722  0.157-
  75  0.389  0.056  0.157-
  76  0.722  0.389  0.157-
  77  0.722  0.722  0.157-
  78  0.722  0.056  0.157-
  79  0.056  0.389  0.157-
  80  0.056  0.722  0.157-
  81  0.056  0.056  0.157-
  82  0.500  0.500  0.234-
  83  0.500  0.833  0.234-
  84  0.500  0.167  0.234-
  85  0.833  0.500  0.234-
  86  0.833  0.833  0.234-
  87  0.833  0.167  0.234-
  88  0.167  0.500  0.234-
  89  0.167  0.833  0.234-
  90  0.167  0.167  0.234-
  91  0.611  0.611  0.312-
  92  0.611  0.944  0.312-
  93  0.611  0.278  0.312-
  94  0.944  0.611  0.312-
  95  0.944  0.944  0.312-
  96  0.944  0.278  0.312-
  97  0.278  0.611  0.312-
  98  0.278  0.944  0.312-
  99  0.278  0.278  0.312-
 100  0.722  0.722  0.390-
 101  0.722  0.056  0.390-
 102  0.722  0.389  0.390-
 103  0.056  0.722  0.390-
 104  0.056  0.056  0.390-
 105  0.056  0.389  0.390-
 106  0.389  0.722  0.390-
 107  0.389  0.056  0.390-
 108  0.389  0.389  0.390-
 109  0.833  0.833  0.466-
 110  0.833  0.167  0.466-
 111  0.833  0.500  0.466-
 112  0.167  0.833  0.466-
 113  0.167  0.167  0.466-
 114  0.167  0.500  0.466-
 115  0.500  0.833  0.466-
 116  0.500  0.167  0.466-
 117  0.500  0.500  0.466-
 118  0.944  0.944  0.545-
 119  0.944  0.278  0.545-
 120  0.944  0.611  0.545-
 121  0.278  0.944  0.545-
 122  0.278  0.278  0.545-
 123  0.278  0.611  0.545-
 124  0.611  0.944  0.545-
 125  0.611  0.278  0.545-
 126  0.611  0.611  0.545-
 127  0.278  0.444  0.079-
 128  0.278  0.778  0.079-
 129  0.278  0.111  0.079-
 130  0.611  0.444  0.079-
 131  0.611  0.778  0.079-
 132  0.611  0.111  0.079-
 133  0.944  0.444  0.079-
 134  0.944  0.778  0.079-
 135  0.944  0.111  0.079-
 136  0.389  0.556  0.157-
 137  0.389  0.889  0.157-
 138  0.389  0.222  0.157-
 139  0.722  0.556  0.157-
 140  0.722  0.889  0.157-
 141  0.722  0.222  0.157-
 142  0.056  0.556  0.157-
 143  0.056  0.889  0.157-
 144  0.056  0.222  0.157-
 145  0.500  0.667  0.234-
 146  0.500  0.000  0.234-
 147  0.500  0.333  0.234-
 148  0.833  0.667  0.234-
 149  0.833  0.000  0.234-
 150  0.833  0.333  0.234-
 151  0.167  0.667  0.234-
 152  0.167  0.000  0.234-
 153  0.167  0.333  0.234-
 154  0.611  0.778  0.312-
 155  0.611  0.111  0.312-
 156  0.611  0.444  0.312-
 157  0.944  0.778  0.312-
 158  0.944  0.111  0.312-
 159  0.944  0.444  0.312-
 160  0.278  0.778  0.312-
 161  0.278  0.111  0.312-
 162  0.278  0.444  0.312-
 163  0.722  0.889  0.390-
 164  0.722  0.222  0.390-
 165  0.722  0.556  0.390-
 166  0.056  0.889  0.390-
 167  0.056  0.222  0.390-
 168  0.056  0.556  0.390-
 169  0.389  0.889  0.390-
 170  0.389  0.222  0.390-
 171  0.389  0.556  0.390-
 172  0.833  0.000  0.466-
 173  0.833  0.333  0.466-
 174  0.833  0.667  0.466-
 175  0.167  0.000  0.466-
 176  0.167  0.333  0.466-
 177  0.167  0.667  0.466-
 178  0.500  0.000  0.466-
 179  0.500  0.333  0.466-
 180  0.500  0.667  0.466-
 181  0.944  0.111  0.545-
 182  0.944  0.444  0.545-
 183  0.944  0.778  0.545-
 184  0.278  0.111  0.545-
 185  0.278  0.444  0.545-
 186  0.278  0.778  0.545-
 187  0.611  0.111  0.545-
 188  0.611  0.444  0.545-
 189  0.611  0.778  0.545-
 190  0.444  0.278  0.079-
 191  0.444  0.611  0.079-
 192  0.444  0.944  0.079-
 193  0.778  0.278  0.079-
 194  0.778  0.611  0.079-
 195  0.778  0.944  0.079-
 196  0.111  0.278  0.079-
 197  0.111  0.611  0.079-
 198  0.111  0.944  0.079-
 199  0.556  0.389  0.157-
 200  0.556  0.722  0.157-
 201  0.556  0.056  0.157-
 202  0.889  0.389  0.157-
 203  0.889  0.722  0.157-
 204  0.889  0.056  0.157-
 205  0.222  0.389  0.157-
 206  0.222  0.722  0.157-
 207  0.222  0.056  0.157-
 208  0.667  0.500  0.234-
 209  0.667  0.833  0.234-
 210  0.667  0.167  0.234-
 211  1.000  0.500  0.234-
 212  1.000  0.833  0.234-
 213  1.000  0.167  0.234-
 214  0.333  0.500  0.234-
 215  0.333  0.833  0.234-
 216  0.333  0.167  0.234-
 217  0.778  0.611  0.312-
 218  0.778  0.944  0.312-
 219  0.778  0.278  0.312-
 220  0.111  0.611  0.312-
 221  0.111  0.944  0.312-
 222  0.111  0.278  0.312-
 223  0.444  0.611  0.312-
 224  0.444  0.944  0.312-
 225  0.444  0.278  0.312-
 226  0.889  0.722  0.390-
 227  0.889  0.056  0.390-
 228  0.889  0.389  0.390-
 229  0.222  0.722  0.390-
 230  0.222  0.056  0.390-
 231  0.222  0.389  0.390-
 232  0.556  0.722  0.390-
 233  0.556  0.056  0.390-
 234  0.556  0.389  0.390-
 235  1.000  0.833  0.466-
 236  1.000  0.167  0.466-
 237  1.000  0.500  0.466-
 238  0.333  0.833  0.466-
 239  0.333  0.167  0.466-
 240  0.333  0.500  0.466-
 241  0.667  0.833  0.466-
 242  0.667  0.167  0.466-
 243  0.667  0.500  0.466-
 244  0.111  0.944  0.545-
 245  0.111  0.278  0.545-
 246  0.111  0.611  0.545-
 247  0.444  0.944  0.545-
 248  0.444  0.278  0.545-
 249  0.444  0.611  0.545-
 250  0.778  0.944  0.545-
 251  0.778  0.278  0.545-
 252  0.778  0.611  0.545-
 253  0.333  0.500  0.701- 254 1.65
 254  0.389  0.389  0.701- 253 1.65
 
  LATTYP: Found a hexagonal cell.
 ALAT       =    17.1805734625
 C/A-ratio  =     1.7461582447
  
  Lattice vectors:
  
 A1 = (   0.0000000000,  -8.5902867312,  14.8788130701)
 A2 = (   0.0000000000,  17.1805734625,   0.0000000000)
 A3 = ( -30.0000000000,   0.0000000000,   0.0000000000)


Analysis of symmetry for initial positions (statically):
=====================================================================
 Subroutine PRICEL returns:
 Original cell was already a primitive cell.
 

 Routine SETGRP: Setting up the symmetry group for a 
 hexagonal supercell.


 Subroutine GETGRP returns: Found  2 space group operations
 (whereof  1 operations were pure point group operations)
 out of a pool of 24 trial point group operations.


The static configuration has the point symmetry C_1 .
 The point group associated with its full space group is C_1h.


Analysis of symmetry for dynamics (positions and initial velocities):
=====================================================================
 Subroutine PRICEL returns:
 Original cell was already a primitive cell.
 

 Routine SETGRP: Setting up the symmetry group for a 
 hexagonal supercell.


 Subroutine GETGRP returns: Found  2 space group operations
 (whereof  1 operations were pure point group operations)
 out of a pool of 24 trial point group operations.


The dynamic configuration has the point symmetry C_1 .
 The point group associated with its full space group is C_1h.


 Subroutine INISYM returns: Found  2 space group operations
 (whereof  1 operations are pure point group operations),
 and found     1 'primitive' translations

 
 
 KPOINTS: Automatic generation                    

Automatic generation of k-mesh.
Space group operators:
 irot       det(A)        alpha          n_x          n_y          n_z        tau_x        tau_y        tau_z
    1     1.000000     0.000000     1.000000     0.000000     0.000000     0.000000     0.000000     0.000000
    2    -1.000000   180.000000     0.000000     1.000000     0.000000    -0.833333     0.000000     0.000000
 
 Subroutine IBZKPT returns following result:
 ===========================================
 
 Found      3 irreducible k-points:
 
 Following reciprocal coordinates:
            Coordinates               Weight
  0.000000  0.000000  0.000000      1.000000
  0.500000  0.000000  0.000000      2.000000
  0.000000  0.500000  0.000000      1.000000
 
 Following cartesian coordinates:
            Coordinates               Weight
  0.000000  0.000000  0.000000      1.000000
  0.000000 -0.029103  0.016802      2.000000
  0.000000  0.000000 -0.033605      1.000000
 


--------------------------------------------------------------------------------------------------------




 Dimension of arrays:
   k-points           NKPTS =      3   k-points in BZ     NKDIM =      3   number of bands    NBANDS=    516
   number of dos      NEDOS =    301   number of ions     NIONS =    254
   non local maximal  LDIM  =      6   non local SUM 2l+1 LMDIM =     18
   total plane-waves  NPLWV = 819200
   max r-space proj   IRMAX =   4449   max aug-charges    IRDMAX=   4357
   dimension x,y,z NGX =    80 NGY =   80 NGZ =  128
   dimension x,y,z NGXF=   160 NGYF=  160 NGZF=  256
   support grid    NGXF=   160 NGYF=  160 NGZF=  256
   ions per type =             252   2
   NGX,Y,Z   is equivalent  to a cutoff of   7.74,  7.74,  7.09 a.u.
   NGXF,Y,Z  is equivalent  to a cutoff of  15.48, 15.48, 14.19 a.u.

 SYSTEM =  NiAl                                    
 POSCAR =  New structure                           

 Startparameter for this run:
   NWRITE =      2    write-flag & timer
   PREC   = normal    normal or accurate (medium, high low for compatibility)
   ISTART =      0    job   : 0-new  1-cont  2-samecut
   ICHARG =      2    charge: 1-file 2-atom 10-const
   ISPIN  =      1    spin polarized calculation?
   LNONCOLLINEAR =      F non collinear calculations
   LSORBIT =      F    spin-orbit coupling
   INIWAV =      1    electr: 0-lowe 1-rand  2-diag
   LASPH  =      F    aspherical Exc in radial PAW
   METAGGA=      F    non-selfconsistent MetaGGA calc.

 Electronic Relaxation 1
   ENCUT  =  300.0 eV  22.05 Ry    4.70 a.u.  24.26 24.26 42.37*2*pi/ulx,y,z
   ENINI  =  300.0     initial cutoff
   ENAUG  =  627.1 eV  augmentation charge cutoff
   NELM   =     60;   NELMIN=  6; NELMDL= -5     # of ELM steps 
   EDIFF  = 0.5E-05   stopping-criterion for ELM
   LREAL  =      T    real-space projection
   NLSPLINE    = F    spline interpolate recip. space projectors
   LCOMPAT=      F    compatible to vasp.4.4
   GGA_COMPAT  = T    GGA compatible to vasp.4.4-vasp.4.6
   LMAXPAW     = -100 max onsite density
   LMAXMIX     =    2 max onsite mixed and CHGCAR
   VOSKOWN=      0    Vosko Wilk Nusair interpolation
   ROPT   =   -0.00050  -0.00050
 Ionic relaxation
   EDIFFG = 0.5E-04   stopping-criterion for IOM
   NSW    =      0    number of steps for IOM
   NBLOCK =      1;   KBLOCK =      1    inner block; outer block 
   IBRION =     -1    ionic relax: 0-MD 1-quasi-New 2-CG
   NFREE  =      0    steps in history (QN), initial steepest desc. (CG)
   ISIF   =      0    stress and relaxation
   IWAVPR =     10    prediction:  0-non 1-charg 2-wave 3-comb
   ISYM   =      2    0-nonsym 1-usesym 2-fastsym
   LCORR  =      T    Harris-Foulkes like correction to forces

   POTIM  = 0.5000    time-step for ionic-motion
   TEIN   =    0.0    initial temperature
   TEBEG  =    0.0;   TEEND  =   0.0 temperature during run
   SMASS  =  -3.00    Nose mass-parameter (am)
   estimated Nose-frequenzy (Omega)   =  0.10E-29 period in steps =****** mass=  -0.675E-26a.u.
   SCALEE = 1.0000    scale energy and forces
   NPACO  =    256;   APACO  = 16.0  distance and # of slots for P.C.
   PSTRESS=    0.0 pullay stress

  Mass of Ions in am
   POMASS =  26.98 14.00
  Ionic Valenz
   ZVAL   =   3.00  5.00
  Atomic Wigner-Seitz radii
   RWIGS  =  -1.00 -1.00
  virtual crystal weights 
   VCA    =   1.00  1.00
   NELECT =     766.0000    total number of electrons
   NUPDOWN=      -1.0000    fix difference up-down

 DOS related values:
   EMIN   =  10.00;   EMAX   =-10.00  energy-range for DOS
   EFERMI =   0.00
   ISMEAR =     0;   SIGMA  =   0.05  broadening in eV -4-tet -1-fermi 0-gaus

 Electronic relaxation 2 (details)
   IALGO  =     38    algorithm
   LDIAG  =      T    sub-space diagonalisation (order eigenvalues)
   LSUBROT=      F    optimize rotation matrix (better conditioning)
   TURBO    =      0    0=normal 1=particle mesh
   IRESTART =      0    0=no restart 2=restart with 2 vectors
   NREBOOT  =      0    no. of reboots
   NMIN     =      0    reboot dimension
   EREF     =   0.00    reference energy to select bands
   IMIX   =      4    mixing-type and parameters
     AMIX     =   0.40;   BMIX     =  1.00
     AMIX_MAG =   1.60;   BMIX_MAG =  1.00
     AMIN     =   0.10
     WC   =   100.;   INIMIX=   1;  MIXPRE=   1;  MAXMIX= -45

 Intra band minimization:
   WEIMIN = 0.0000     energy-eigenvalue tresh-hold
   EBREAK =  0.24E-08  absolut break condition
   DEPER  =   0.30     relativ break condition  

   TIME   =   0.40     timestep for ELM

  volume/ion in A,a.u.               =      30.19       203.75
  Fermi-wavevector in a.u.,A,eV,Ry     =   0.759583  1.435404  7.850108  0.576967
  Thomas-Fermi vector in A             =   1.858410
 
 Write flags
   LWAVE        =      F    write WAVECAR
   LDOWNSAMPLE  =      F    k-point downsampling of WAVECAR
   LCHARG       =      F    write CHGCAR
   LVTOT        =      F    write LOCPOT, total local potential
   LVHAR        =      F    write LOCPOT, Hartree potential only
   LELF         =      F    write electronic localiz. function (ELF)
   LORBIT       =      0    0 simple, 1 ext, 2 COOP (PROOUT), +10 PAW based schemes


 Dipole corrections
   LMONO  =      F    monopole corrections only (constant potential shift)
   LDIPOL =      F    correct potential (dipole corrections)
   IDIPOL =      0    1-x, 2-y, 3-z, 4-all directions 
   EPSILON=  1.0000000 bulk dielectric constant

 Exchange correlation treatment:
   GGA     =    --    GGA type
   LEXCH   =     8    internal setting for exchange type
   VOSKOWN=      0    Vosko Wilk Nusair interpolation
   LHFCALC =     F    Hartree Fock is set to
   LHFONE  =     F    Hartree Fock one center treatment
   AEXX    =    0.0000 exact exchange contribution

 Linear response parameters
   LEPSILON=     F    determine dielectric tensor
   LRPA    =     F    only Hartree local field effects (RPA)
   LNABLA  =     F    use nabla operator in PAW spheres
   LVEL    =     F    velocity operator in full k-point grid
   LINTERFAST=   F  fast interpolation
   KINTER  =     0    interpolate to denser k-point grid
   CSHIFT  =0.1000    complex shift for real part using Kramers Kronig
   OMEGAMAX=  -1.0    maximum frequency
   DEG_THRESHOLD= 0.2000000E-02 threshold for treating states as degnerate
   RTIME   =   -0.100 relaxation time in fs
  (WPLASMAI=    0.000 imaginary part of plasma frequency in eV, 0.658/RTIME)
   DFIELD  = 0.0000000 0.0000000 0.0000000 field for delta impulse in time
 
 Orbital magnetization related:
   ORBITALMAG=     F  switch on orbital magnetization
   LCHIMAG   =     F  perturbation theory with respect to B field
   DQ        =  0.001000  dq finite difference perturbation B field
   LLRAUG    =     F  two centre corrections for induced B field



--------------------------------------------------------------------------------------------------------


 Static calculation
 charge density and potential will be updated during run
 non-spin polarized calculation
 Variant of blocked Davidson
 Davidson routine will perform the subspace rotation
 perform sub-space diagonalisation
    after iterative eigenvector-optimisation
 modified Broyden-mixing scheme, WC =      100.0
 initial mixing is a Kerker type mixing with AMIX =  0.4000 and BMIX =      1.0000
 Hartree-type preconditioning will be used
 using additional bands          133
 real space projection scheme for non local part
 use partial core corrections
 calculate Harris-corrections to forces 
   (improved forces if not selfconsistent)
 use gradient corrections 
 use of overlap-Matrix (Vanderbilt PP)
 Gauss-broadening in eV      SIGMA  =   0.05


--------------------------------------------------------------------------------------------------------


  energy-cutoff  :      300.00
  volume of cell :     7668.80
      direct lattice vectors                 reciprocal lattice vectors
     0.000000000-17.180573462  0.000000000     0.000000000 -0.058205275  0.033604831
     0.000000000 -8.590286731-14.878813070     0.000000000  0.000000000 -0.067209662
    30.000000000  0.000000000  0.000000000     0.033333333  0.000000000  0.000000000

  length of vectors
    17.180573462 17.180573462 30.000000000     0.067209662  0.067209662  0.033333333


 
 k-points in units of 2pi/SCALE and weight: Automatic generation                    
   0.00000000  0.00000000  0.00000000       0.250
   0.00000000 -0.02910264  0.01680242       0.500
   0.00000000  0.00000000 -0.03360483       0.250
 
 k-points in reciprocal lattice and weights: Automatic generation                    
   0.00000000  0.00000000  0.00000000       0.250
   0.50000000  0.00000000  0.00000000       0.500
   0.00000000  0.50000000  0.00000000       0.250
 
 position of ions in fractional coordinates (direct lattice) 
   0.44444456  0.44444473  0.07873467
   0.44444419  0.77777777  0.07873467
   0.44444468  0.11111101  0.07873467
   0.77777744  0.44444473  0.07873467
   0.77777765  0.77777777  0.07873467
   0.77777756  0.11111101  0.07873467
   0.11111110  0.44444473  0.07873467
   0.11111131  0.77777777  0.07873467
   0.11111122  0.11111101  0.07873467
   0.55555520  0.55555574  0.15702600
   0.55555541  0.88888878  0.15702600
   0.55555591  0.22222203  0.15702600
   0.88888866  0.55555574  0.15702600
   0.88888887  0.88888878  0.15702600
   0.88888878  0.22222203  0.15702600
   0.22222232  0.55555574  0.15702600
   0.22222253  0.88888878  0.15702600
   0.22222245  0.22222203  0.15702600
   0.66666642  0.66666675  0.23375733
   0.66666692  0.00000000  0.23375733
   0.66666655  0.33333304  0.23375733
   0.00000008  0.66666675  0.23375733
   0.00000000  0.00000000  0.23375733
   0.00000021  0.33333304  0.23375733
   0.33333354  0.66666675  0.23375733
   0.33333346  0.00000000  0.23375733
   0.33333367  0.33333304  0.23375733
   0.77777765  0.77777777  0.31173067
   0.77777756  0.11111101  0.31173067
   0.77777744  0.44444473  0.31173067
   0.11111131  0.77777777  0.31173067
   0.11111122  0.11111101  0.31173067
   0.11111110  0.44444473  0.31173067
   0.44444419  0.77777777  0.31173067
   0.44444468  0.11111101  0.31173067
   0.44444456  0.44444473  0.31173067
   0.88888887  0.88888878  0.38970400
   0.88888878  0.22222203  0.38970400
   0.88888866  0.55555574  0.38970400
   0.22222253  0.88888878  0.38970400
   0.22222245  0.22222203  0.38970400
   0.22222232  0.55555574  0.38970400
   0.55555541  0.88888878  0.38970400
   0.55555591  0.22222203  0.38970400
   0.55555520  0.55555574  0.38970400
   0.00000000  0.00000000  0.46643533
   0.00000021  0.33333304  0.46643533
   0.00000008  0.66666675  0.46643533
   0.33333346  0.00000000  0.46643533
   0.33333367  0.33333304  0.46643533
   0.33333354  0.66666675  0.46643533
   0.66666692  0.00000000  0.46643533
   0.66666655  0.33333304  0.46643533
   0.66666642  0.66666675  0.46643533
   0.11111122  0.11111101  0.54472667
   0.11111110  0.44444473  0.54472667
   0.11111131  0.77777777  0.54472667
   0.44444468  0.11111101  0.54472667
   0.44444456  0.44444473  0.54472667
   0.44444419  0.77777777  0.54472667
   0.77777756  0.11111101  0.54472667
   0.77777744  0.44444473  0.54472667
   0.77777765  0.77777777  0.54472667
   0.27777777  0.27777753  0.07873467
   0.27777764  0.61111125  0.07873467
   0.27777785  0.94444429  0.07873467
   0.61111123  0.27777753  0.07873467
   0.61111110  0.61111125  0.07873467
   0.61111131  0.94444429  0.07873467
   0.94444469  0.27777753  0.07873467
   0.94444456  0.61111125  0.07873467
   0.94444477  0.94444429  0.07873467
   0.38888865  0.38888922  0.15702600
   0.38888886  0.72222226  0.15702600
   0.38888878  0.05555551  0.15702600
   0.72222211  0.38888922  0.15702600
   0.72222232  0.72222226  0.15702600
   0.72222224  0.05555551  0.15702600
   0.05555519  0.38888922  0.15702600
   0.05555540  0.72222226  0.15702600
   0.05555532  0.05555551  0.15702600
   0.49999988  0.50000023  0.23375733
   0.50000009  0.83333327  0.23375733
   0.50000000  0.16666652  0.23375733
   0.83333334  0.50000023  0.23375733
   0.83333355  0.83333327  0.23375733
   0.83333346  0.16666652  0.23375733
   0.16666642  0.50000023  0.23375733
   0.16666663  0.83333327  0.23375733
   0.16666654  0.16666652  0.23375733
   0.61111110  0.61111125  0.31173067
   0.61111131  0.94444429  0.31173067
   0.61111123  0.27777753  0.31173067
   0.94444456  0.61111125  0.31173067
   0.94444477  0.94444429  0.31173067
   0.94444469  0.27777753  0.31173067
   0.27777764  0.61111125  0.31173067
   0.27777785  0.94444429  0.31173067
   0.27777777  0.27777753  0.31173067
   0.72222232  0.72222226  0.38970400
   0.72222224  0.05555551  0.38970400
   0.72222211  0.38888922  0.38970400
   0.05555540  0.72222226  0.38970400
   0.05555532  0.05555551  0.38970400
   0.05555519  0.38888922  0.38970400
   0.38888886  0.72222226  0.38970400
   0.38888878  0.05555551  0.38970400
   0.38888865  0.38888922  0.38970400
   0.83333355  0.83333327  0.46643533
   0.83333346  0.16666652  0.46643533
   0.83333334  0.50000023  0.46643533
   0.16666663  0.83333327  0.46643533
   0.16666654  0.16666652  0.46643533
   0.16666642  0.50000023  0.46643533
   0.50000009  0.83333327  0.46643533
   0.50000000  0.16666652  0.46643533
   0.49999988  0.50000023  0.46643533
   0.94444477  0.94444429  0.54472667
   0.94444469  0.27777753  0.54472667
   0.94444456  0.61111125  0.54472667
   0.27777785  0.94444429  0.54472667
   0.27777777  0.27777753  0.54472667
   0.27777764  0.61111125  0.54472667
   0.61111131  0.94444429  0.54472667
   0.61111123  0.27777753  0.54472667
   0.61111110  0.61111125  0.54472667
   0.27777783  0.44444473  0.07873467
   0.27777804  0.77777777  0.07873467
   0.27777795  0.11111101  0.07873467
   0.61111071  0.44444473  0.07873467
   0.61111092  0.77777777  0.07873467
   0.61111141  0.11111101  0.07873467
   0.94444417  0.44444473  0.07873467
   0.94444438  0.77777777  0.07873467
   0.94444429  0.11111101  0.07873467
   0.38888905  0.55555574  0.15702600
   0.38888868  0.88888878  0.15702600
   0.38888918  0.22222203  0.15702600
   0.72222193  0.55555574  0.15702600
   0.72222214  0.88888878  0.15702600
   0.72222205  0.22222203  0.15702600
   0.05555559  0.55555574  0.15702600
   0.05555580  0.88888878  0.15702600
   0.05555572  0.22222203  0.15702600
   0.49999969  0.66666675  0.23375733
   0.50000019  0.00000000  0.23375733
   0.50000040  0.33333304  0.23375733
   0.83333315  0.66666675  0.23375733
   0.83333307  0.00000000  0.23375733
   0.83333328  0.33333304  0.23375733
   0.16666681  0.66666675  0.23375733
   0.16666673  0.00000000  0.23375733
   0.16666694  0.33333304  0.23375733
   0.61111092  0.77777777  0.31173067
   0.61111141  0.11111101  0.31173067
   0.61111071  0.44444473  0.31173067
   0.94444438  0.77777777  0.31173067
   0.94444429  0.11111101  0.31173067
   0.94444417  0.44444473  0.31173067
   0.27777804  0.77777777  0.31173067
   0.27777795  0.11111101  0.31173067
   0.27777783  0.44444473  0.31173067
   0.72222214  0.88888878  0.38970400
   0.72222205  0.22222203  0.38970400
   0.72222193  0.55555574  0.38970400
   0.05555580  0.88888878  0.38970400
   0.05555572  0.22222203  0.38970400
   0.05555559  0.55555574  0.38970400
   0.38888868  0.88888878  0.38970400
   0.38888918  0.22222203  0.38970400
   0.38888905  0.55555574  0.38970400
   0.83333307  0.00000000  0.46643533
   0.83333328  0.33333304  0.46643533
   0.83333315  0.66666675  0.46643533
   0.16666673  0.00000000  0.46643533
   0.16666694  0.33333304  0.46643533
   0.16666681  0.66666675  0.46643533
   0.50000019  0.00000000  0.46643533
   0.50000040  0.33333304  0.46643533
   0.49999969  0.66666675  0.46643533
   0.94444429  0.11111101  0.54472667
   0.94444417  0.44444473  0.54472667
   0.94444438  0.77777777  0.54472667
   0.27777795  0.11111101  0.54472667
   0.27777783  0.44444473  0.54472667
   0.27777804  0.77777777  0.54472667
   0.61111141  0.11111101  0.54472667
   0.61111071  0.44444473  0.54472667
   0.61111092  0.77777777  0.54472667
   0.44444450  0.27777753  0.07873467
   0.44444437  0.61111125  0.07873467
   0.44444458  0.94444429  0.07873467
   0.77777796  0.27777753  0.07873467
   0.77777783  0.61111125  0.07873467
   0.77777804  0.94444429  0.07873467
   0.11111104  0.27777753  0.07873467
   0.11111091  0.61111125  0.07873467
   0.11111112  0.94444429  0.07873467
   0.55555538  0.38888922  0.15702600
   0.55555559  0.72222226  0.15702600
   0.55555551  0.05555551  0.15702600
   0.88888884  0.38888922  0.15702600
   0.88888905  0.72222226  0.15702600
   0.88888897  0.05555551  0.15702600
   0.22222192  0.38888922  0.15702600
   0.22222213  0.72222226  0.15702600
   0.22222205  0.05555551  0.15702600
   0.66666661  0.50000023  0.23375733
   0.66666682  0.83333327  0.23375733
   0.66666673  0.16666652  0.23375733
   0.99999969  0.50000023  0.23375733
   0.99999990  0.83333327  0.23375733
   0.99999981  0.16666652  0.23375733
   0.33333315  0.50000023  0.23375733
   0.33333336  0.83333327  0.23375733
   0.33333327  0.16666652  0.23375733
   0.77777783  0.61111125  0.31173067
   0.77777804  0.94444429  0.31173067
   0.77777796  0.27777753  0.31173067
   0.11111091  0.61111125  0.31173067
   0.11111112  0.94444429  0.31173067
   0.11111104  0.27777753  0.31173067
   0.44444437  0.61111125  0.31173067
   0.44444458  0.94444429  0.31173067
   0.44444450  0.27777753  0.31173067
   0.88888905  0.72222226  0.38970400
   0.88888897  0.05555551  0.38970400
   0.88888884  0.38888922  0.38970400
   0.22222213  0.72222226  0.38970400
   0.22222205  0.05555551  0.38970400
   0.22222192  0.38888922  0.38970400
   0.55555559  0.72222226  0.38970400
   0.55555551  0.05555551  0.38970400
   0.55555538  0.38888922  0.38970400
   0.99999990  0.83333327  0.46643533
   0.99999981  0.16666652  0.46643533
   0.99999969  0.50000023  0.46643533
   0.33333336  0.83333327  0.46643533
   0.33333327  0.16666652  0.46643533
   0.33333315  0.50000023  0.46643533
   0.66666682  0.83333327  0.46643533
   0.66666673  0.16666652  0.46643533
   0.66666661  0.50000023  0.46643533
   0.11111112  0.94444429  0.54472667
   0.11111104  0.27777753  0.54472667
   0.11111091  0.61111125  0.54472667
   0.44444458  0.94444429  0.54472667
   0.44444450  0.27777753  0.54472667
   0.44444437  0.61111125  0.54472667
   0.77777804  0.94444429  0.54472667
   0.77777796  0.27777753  0.54472667
   0.77777783  0.61111125  0.54472667
   0.33333315  0.50000023  0.70133333
   0.38888907  0.38888877  0.70133333
 
 position of ions in cartesian coordinates  (Angst):
   2.36204000-11.45372000 -6.61281000
   2.36204000-14.31714000-11.57241000
   2.36204000 -8.59029000 -1.65320000
   2.36204000-17.18057000 -6.61281000
   2.36204000-20.04400000-11.57241000
   2.36204000-14.31714000 -1.65320000
   2.36204000 -5.72686000 -6.61281000
   2.36204000 -8.59029000-11.57241000
   2.36204000 -2.86343000 -1.65320000
   4.71078000-14.31714000 -8.26601000
   4.71078000-17.18057000-13.22561000
   4.71078000-11.45372000 -3.30640000
   4.71078000-20.04400000 -8.26601000
   4.71078000-22.90743000-13.22561000
   4.71078000-17.18057000 -3.30640000
   4.71078000 -8.59029000 -8.26601000
   4.71078000-11.45372000-13.22561000
   4.71078000 -5.72686000 -3.30640000
   7.01272000-17.18057000 -9.91921000
   7.01272000-11.45372000  0.00000000
   7.01272000-14.31714000 -4.95960000
   7.01272000 -5.72686000 -9.91921000
   7.01272000  0.00000000  0.00000000
   7.01272000 -2.86343000 -4.95960000
   7.01272000-11.45372000 -9.91921000
   7.01272000 -5.72686000  0.00000000
   7.01272000 -8.59029000 -4.95960000
   9.35192000-20.04400000-11.57241000
   9.35192000-14.31714000 -1.65320000
   9.35192000-17.18057000 -6.61281000
   9.35192000 -8.59029000-11.57241000
   9.35192000 -2.86343000 -1.65320000
   9.35192000 -5.72686000 -6.61281000
   9.35192000-14.31714000-11.57241000
   9.35192000 -8.59029000 -1.65320000
   9.35192000-11.45372000 -6.61281000
  11.69112000-22.90743000-13.22561000
  11.69112000-17.18057000 -3.30640000
  11.69112000-20.04400000 -8.26601000
  11.69112000-11.45372000-13.22561000
  11.69112000 -5.72686000 -3.30640000
  11.69112000 -8.59029000 -8.26601000
  11.69112000-17.18057000-13.22561000
  11.69112000-11.45372000 -3.30640000
  11.69112000-14.31714000 -8.26601000
  13.99306000  0.00000000  0.00000000
  13.99306000 -2.86343000 -4.95960000
  13.99306000 -5.72686000 -9.91921000
  13.99306000 -5.72686000  0.00000000
  13.99306000 -8.59029000 -4.95960000
  13.99306000-11.45372000 -9.91921000
  13.99306000-11.45372000  0.00000000
  13.99306000-14.31714000 -4.95960000
  13.99306000-17.18057000 -9.91921000
  16.34180000 -2.86343000 -1.65320000
  16.34180000 -5.72686000 -6.61281000
  16.34180000 -8.59029000-11.57241000
  16.34180000 -8.59029000 -1.65320000
  16.34180000-11.45372000 -6.61281000
  16.34180000-14.31714000-11.57241000
  16.34180000-14.31714000 -1.65320000
  16.34180000-17.18057000 -6.61281000
  16.34180000-20.04400000-11.57241000
   2.36204000 -7.15857000 -4.13300000
   2.36204000-10.02200000 -9.09261000
   2.36204000-12.88543000-14.05221000
   2.36204000-12.88543000 -4.13300000
   2.36204000-15.74886000 -9.09261000
   2.36204000-18.61229000-14.05221000
   2.36204000-18.61229000 -4.13300000
   2.36204000-21.47572000 -9.09261000
   2.36204000-24.33915000-14.05221000
   4.71078000-10.02200000 -5.78621000
   4.71078000-12.88543000-10.74581000
   4.71078000 -7.15857000 -0.82660000
   4.71078000-15.74886000 -5.78621000
   4.71078000-18.61229000-10.74581000
   4.71078000-12.88543000 -0.82660000
   4.71078000 -4.29514000 -5.78621000
   4.71078000 -7.15857000-10.74581000
   4.71078000 -1.43171000 -0.82660000
   7.01272000-12.88543000 -7.43941000
   7.01272000-15.74886000-12.39901000
   7.01272000-10.02200000 -2.47980000
   7.01272000-18.61229000 -7.43941000
   7.01272000-21.47572000-12.39901000
   7.01272000-15.74886000 -2.47980000
   7.01272000 -7.15857000 -7.43941000
   7.01272000-10.02200000-12.39901000
   7.01272000 -4.29514000 -2.47980000
   9.35192000-15.74886000 -9.09261000
   9.35192000-18.61229000-14.05221000
   9.35192000-12.88543000 -4.13300000
   9.35192000-21.47572000 -9.09261000
   9.35192000-24.33915000-14.05221000
   9.35192000-18.61229000 -4.13300000
   9.35192000-10.02200000 -9.09261000
   9.35192000-12.88543000-14.05221000
   9.35192000 -7.15857000 -4.13300000
  11.69112000-18.61229000-10.74581000
  11.69112000-12.88543000 -0.82660000
  11.69112000-15.74886000 -5.78621000
  11.69112000 -7.15857000-10.74581000
  11.69112000 -1.43171000 -0.82660000
  11.69112000 -4.29514000 -5.78621000
  11.69112000-12.88543000-10.74581000
  11.69112000 -7.15857000 -0.82660000
  11.69112000-10.02200000 -5.78621000
  13.99306000-21.47572000-12.39901000
  13.99306000-15.74886000 -2.47980000
  13.99306000-18.61229000 -7.43941000
  13.99306000-10.02200000-12.39901000
  13.99306000 -4.29514000 -2.47980000
  13.99306000 -7.15857000 -7.43941000
  13.99306000-15.74886000-12.39901000
  13.99306000-10.02200000 -2.47980000
  13.99306000-12.88543000 -7.43941000
  16.34180000-24.33915000-14.05221000
  16.34180000-18.61229000 -4.13300000
  16.34180000-21.47572000 -9.09261000
  16.34180000-12.88543000-14.05221000
  16.34180000 -7.15857000 -4.13300000
  16.34180000-10.02200000 -9.09261000
  16.34180000-18.61229000-14.05221000
  16.34180000-12.88543000 -4.13300000
  16.34180000-15.74886000 -9.09261000
   2.36204000 -8.59029000 -6.61281000
   2.36204000-11.45372000-11.57241000
   2.36204000 -5.72686000 -1.65320000
   2.36204000-14.31714000 -6.61281000
   2.36204000-17.18057000-11.57241000
   2.36204000-11.45372000 -1.65320000
   2.36204000-20.04400000 -6.61281000
   2.36204000-22.90743000-11.57241000
   2.36204000-17.18057000 -1.65320000
   4.71078000-11.45372000 -8.26601000
   4.71078000-14.31714000-13.22561000
   4.71078000 -8.59029000 -3.30640000
   4.71078000-17.18057000 -8.26601000
   4.71078000-20.04400000-13.22561000
   4.71078000-14.31714000 -3.30640000
   4.71078000 -5.72686000 -8.26601000
   4.71078000 -8.59029000-13.22561000
   4.71078000 -2.86343000 -3.30640000
   7.01272000-14.31714000 -9.91921000
   7.01272000 -8.59029000  0.00000000
   7.01272000-11.45372000 -4.95960000
   7.01272000-20.04400000 -9.91921000
   7.01272000-14.31714000  0.00000000
   7.01272000-17.18057000 -4.95960000
   7.01272000 -8.59029000 -9.91921000
   7.01272000 -2.86343000  0.00000000
   7.01272000 -5.72686000 -4.95960000
   9.35192000-17.18057000-11.57241000
   9.35192000-11.45372000 -1.65320000
   9.35192000-14.31714000 -6.61281000
   9.35192000-22.90743000-11.57241000
   9.35192000-17.18057000 -1.65320000
   9.35192000-20.04400000 -6.61281000
   9.35192000-11.45372000-11.57241000
   9.35192000 -5.72686000 -1.65320000
   9.35192000 -8.59029000 -6.61281000
  11.69112000-20.04400000-13.22561000
  11.69112000-14.31714000 -3.30640000
  11.69112000-17.18057000 -8.26601000
  11.69112000 -8.59029000-13.22561000
  11.69112000 -2.86343000 -3.30640000
  11.69112000 -5.72686000 -8.26601000
  11.69112000-14.31714000-13.22561000
  11.69112000 -8.59029000 -3.30640000
  11.69112000-11.45372000 -8.26601000
  13.99306000-14.31714000  0.00000000
  13.99306000-17.18057000 -4.95960000
  13.99306000-20.04400000 -9.91921000
  13.99306000 -2.86343000  0.00000000
  13.99306000 -5.72686000 -4.95960000
  13.99306000 -8.59029000 -9.91921000
  13.99306000 -8.59029000  0.00000000
  13.99306000-11.45372000 -4.95960000
  13.99306000-14.31714000 -9.91921000
  16.34180000-17.18057000 -1.65320000
  16.34180000-20.04400000 -6.61281000
  16.34180000-22.90743000-11.57241000
  16.34180000 -5.72686000 -1.65320000
  16.34180000 -8.59029000 -6.61281000
  16.34180000-11.45372000-11.57241000
  16.34180000-11.45372000 -1.65320000
  16.34180000-14.31714000 -6.61281000
  16.34180000-17.18057000-11.57241000
   2.36204000-10.02200000 -4.13300000
   2.36204000-12.88543000 -9.09261000
   2.36204000-15.74886000-14.05221000
   2.36204000-15.74886000 -4.13300000
   2.36204000-18.61229000 -9.09261000
   2.36204000-21.47572000-14.05221000
   2.36204000 -4.29514000 -4.13300000
   2.36204000 -7.15857000 -9.09261000
   2.36204000-10.02200000-14.05221000
   4.71078000-12.88543000 -5.78621000
   4.71078000-15.74886000-10.74581000
   4.71078000-10.02200000 -0.82660000
   4.71078000-18.61229000 -5.78621000
   4.71078000-21.47572000-10.74581000
   4.71078000-15.74886000 -0.82660000
   4.71078000 -7.15857000 -5.78621000
   4.71078000-10.02200000-10.74581000
   4.71078000 -4.29514000 -0.82660000
   7.01272000-15.74886000 -7.43941000
   7.01272000-18.61229000-12.39901000
   7.01272000-12.88543000 -2.47980000
   7.01272000-21.47571346 -7.43941000
   7.01272000-24.33914346-12.39901000
   7.01272000-18.61228346 -2.47980000
   7.01272000-10.02200000 -7.43941000
   7.01272000-12.88543000-12.39901000
   7.01272000 -7.15857000 -2.47980000
   9.35192000-18.61229000 -9.09261000
   9.35192000-21.47572000-14.05221000
   9.35192000-15.74886000 -4.13300000
   9.35192000 -7.15857000 -9.09261000
   9.35192000-10.02200000-14.05221000
   9.35192000 -4.29514000 -4.13300000
   9.35192000-12.88543000 -9.09261000
   9.35192000-15.74886000-14.05221000
   9.35192000-10.02200000 -4.13300000
  11.69112000-21.47572000-10.74581000
  11.69112000-15.74886000 -0.82660000
  11.69112000-18.61229000 -5.78621000
  11.69112000-10.02200000-10.74581000
  11.69112000 -4.29514000 -0.82660000
  11.69112000 -7.15857000 -5.78621000
  11.69112000-15.74886000-10.74581000
  11.69112000-10.02200000 -0.82660000
  11.69112000-12.88543000 -5.78621000
  13.99306000-24.33914346-12.39901000
  13.99306000-18.61228346 -2.47980000
  13.99306000-21.47571346 -7.43941000
  13.99306000-12.88543000-12.39901000
  13.99306000 -7.15857000 -2.47980000
  13.99306000-10.02200000 -7.43941000
  13.99306000-18.61229000-12.39901000
  13.99306000-12.88543000 -2.47980000
  13.99306000-15.74886000 -7.43941000
  16.34180000-10.02200000-14.05221000
  16.34180000 -4.29514000 -4.13300000
  16.34180000 -7.15857000 -9.09261000
  16.34180000-15.74886000-14.05221000
  16.34180000-10.02200000 -4.13300000
  16.34180000-12.88543000 -9.09261000
  16.34180000-21.47572000-14.05221000
  16.34180000-15.74886000 -4.13300000
  16.34180000-18.61229000 -9.09261000
  21.04000000-10.02200000 -7.43941000
  21.04000000-10.02200333 -5.78620333
 


--------------------------------------------------------------------------------------------------------


 k-point  1 :   0.0000 0.0000 0.0000  plane waves:   90499
 k-point  2 :   0.5000 0.0000 0.0000  plane waves:   90530
 k-point  3 :   0.0000 0.5000 0.0000  plane waves:   90530

 maximum and minimum number of plane-waves per node :     90530    90499

 maximum number of plane-waves:     90530
 maximum index in each direction: 
   IXMAX=   24   IYMAX=   24   IZMAX=   42
   IXMIN=  -24   IYMIN=  -24   IZMIN=  -42


 serial   3D FFT for wavefunctions
 parallel 3D FFT for charge:
    minimum data exchange during FFTs selected (reduces bandwidth)


 total amount of memory used by VASP MPI-rank0   652144. kBytes
=======================================================================

   base      :      30000. kBytes
   nonlr-proj:      89923. kBytes
   fftplans  :      40601. kBytes
   grid      :      95147. kBytes
   one-center:       3950. kBytes
   wavefun   :     392523. kBytes
 
     INWAV:  cpu time    0.0001: real time    0.0001
 Broyden mixing: mesh for mixing (old mesh)
   NGX = 49   NGY = 49   NGZ = 85
  (NGX  =160   NGY  =160   NGZ  =256)
  gives a total of 204085 points

 initial charge density was supplied:
 charge density of overlapping atoms calculated
 number of electron     766.0000000 magnetization 
 keeping initial charge density in first step


--------------------------------------------------------------------------------------------------------


 Maximum index for non-local projection operator         4276
 Maximum index for augmentation-charges          758 (set IRDMAX)


--------------------------------------------------------------------------------------------------------


 First call to EWALD:  gamma=   0.090
 Maximum number of real-space cells 3x 3x 2
 Maximum number of reciprocal cells 2x 2x 4

    FEWALD:  cpu time    0.0277: real time    0.0277


----------------------------------------- Iteration    1(   1)  ---------------------------------------


    POTLOK:  cpu time    0.7684: real time    0.8269
    SETDIJ:  cpu time    0.0887: real time    0.0895
     EDDAV:  cpu time   18.8646: real time   21.2418
       DOS:  cpu time    0.0285: real time    0.0285
    --------------------------------------------
      LOOP:  cpu time   19.7524: real time   22.2054

 eigenvalue-minimisations  :  3120
 total energy-change (2. order) : 0.2118032E+04  (-0.1838686E+05)
 number of electron     766.0000000 magnetization 
 augmentation part      766.0000000 magnetization 

 Free energy of the ion-electron system (eV)
  ---------------------------------------------------
  alpha Z        PSCENC =       505.22967617
  Ewald energy   TEWEN  =     85947.46802649
  -Hartree energ DENC   =   -100038.88145547
  -exchange      EXHF   =         0.00000000
  -V(xc)+E(xc)   XCENC  =     -6607.83187096
  PAW double counting   =     17092.30507181    -9042.14386232
  entropy T*S    EENTRO =        -0.06892949
  eigenvalues    EBANDS =       242.75321432
  atomic energy  EATOM  =     14019.20197576
  Solvation  Ediel_sol  =         0.00000000
  ---------------------------------------------------
  free energy    TOTEN  =      2118.03184630 eV

  energy without entropy =     2118.10077579  energy(sigma->0) =     2118.06631104


--------------------------------------------------------------------------------------------------------




----------------------------------------- Iteration    1(   2)  ---------------------------------------


     EDDAV:  cpu time   23.6629: real time   26.5069
       DOS:  cpu time    0.0019: real time    0.0019
    --------------------------------------------
      LOOP:  cpu time   23.6661: real time   26.5117

 eigenvalue-minimisations  :  4224
 total energy-change (2. order) :-0.2857436E+04  (-0.2699048E+04)
 number of electron     766.0000000 magnetization 
 augmentation part      766.0000000 magnetization 

 Free energy of the ion-electron system (eV)
  ---------------------------------------------------
  alpha Z        PSCENC =       505.22967617
  Ewald energy   TEWEN  =     85947.46802649
  -Hartree energ DENC   =   -100038.88145547
  -exchange      EXHF   =         0.00000000
  -V(xc)+E(xc)   XCENC  =     -6607.83187096
  PAW double counting   =     17092.30507181    -9042.14386232
  entropy T*S    EENTRO =        -0.11462337
  eigenvalues    EBANDS =     -2614.63687381
  atomic energy  EATOM  =     14019.20197576
  Solvation  Ediel_sol  =         0.00000000
  ---------------------------------------------------
  free energy    TOTEN  =      -739.40393570 eV

  energy without entropy =     -739.28931234  energy(sigma->0) =     -739.34662402


--------------------------------------------------------------------------------------------------------




----------------------------------------- Iteration    1(   3)  ---------------------------------------


     EDDAV:  cpu time   23.6536: real time   26.5271
       DOS:  cpu time    0.0019: real time    0.0019
    --------------------------------------------
      LOOP:  cpu time   23.6568: real time   26.5323

 eigenvalue-minimisations  :  4212
 total energy-change (2. order) :-0.2068581E+03  (-0.1943366E+03)
 number of electron     766.0000000 magnetization 
 augmentation part      766.0000000 magnetization 

 Free energy of the ion-electron system (eV)
  ---------------------------------------------------
  alpha Z        PSCENC =       505.22967617
  Ewald energy   TEWEN  =     85947.46802649
  -Hartree energ DENC   =   -100038.88145547
  -exchange      EXHF   =         0.00000000
  -V(xc)+E(xc)   XCENC  =     -6607.83187096
  PAW double counting   =     17092.30507181    -9042.14386232
  entropy T*S    EENTRO =        -0.23375361
  eigenvalues    EBANDS =     -2821.37588185
  atomic energy  EATOM  =     14019.20197576
  Solvation  Ediel_sol  =         0.00000000
  ---------------------------------------------------
  free energy    TOTEN  =      -946.26207399 eV

  energy without entropy =     -946.02832037  energy(sigma->0) =     -946.14519718


--------------------------------------------------------------------------------------------------------




----------------------------------------- Iteration    1(   4)  ---------------------------------------


     EDDAV:  cpu time   24.7832: real time   27.7678
       DOS:  cpu time    0.0021: real time    0.0021
    --------------------------------------------
      LOOP:  cpu time   24.7866: real time   27.7728

 eigenvalue-minimisations  :  4476
 total energy-change (2. order) :-0.1007485E+02  (-0.9893660E+01)
 number of electron     766.0000000 magnetization 
 augmentation part      766.0000000 magnetization 

 Free energy of the ion-electron system (eV)
  ---------------------------------------------------
  alpha Z        PSCENC =       505.22967617
  Ewald energy   TEWEN  =     85947.46802649
  -Hartree energ DENC   =   -100038.88145547
  -exchange      EXHF   =         0.00000000
  -V(xc)+E(xc)   XCENC  =     -6607.83187096
  PAW double counting   =     17092.30507181    -9042.14386232
  entropy T*S    EENTRO =        -0.25792473
  eigenvalues    EBANDS =     -2831.42655985
  atomic energy  EATOM  =     14019.20197576
  Solvation  Ediel_sol  =         0.00000000
  ---------------------------------------------------
  free energy    TOTEN  =      -956.33692311 eV

  energy without entropy =     -956.07899837  energy(sigma->0) =     -956.20796074


--------------------------------------------------------------------------------------------------------




----------------------------------------- Iteration    1(   5)  ---------------------------------------


     EDDAV:  cpu time   28.1898: real time   31.4781
       DOS:  cpu time    0.0015: real time    0.0015
    CHARGE:  cpu time    1.7223: real time    1.7883
    MIXING:  cpu time    0.0243: real time    0.0243
    --------------------------------------------
      LOOP:  cpu time   29.9393: real time   33.2949

 eigenvalue-minimisations  :  5244
 total energy-change (2. order) :-0.4965606E+00  (-0.4943240E+00)
 number of electron     765.9999991 magnetization 
 augmentation part      -10.1223429 magnetization 

 Broyden mixing:
  rms(total) = 0.18023E+01    rms(broyden)= 0.18017E+01
  rms(prec ) = 0.25740E+01
  weight for this iteration     100.00

 Free energy of the ion-electron system (eV)
  ---------------------------------------------------
  alpha Z        PSCENC =       505.22967617
  Ewald energy   TEWEN  =     85947.46802649
  -Hartree energ DENC   =   -100038.88145547
  -exchange      EXHF   =         0.00000000
  -V(xc)+E(xc)   XCENC  =     -6607.83187096
  PAW double counting   =     17092.30507181    -9042.14386232
  entropy T*S    EENTRO =        -0.25944434
  eigenvalues    EBANDS =     -2831.92160086
  atomic energy  EATOM  =     14019.20197576
  Solvation  Ediel_sol  =         0.00000000
  ---------------------------------------------------
  free energy    TOTEN  =      -956.83348373 eV

  energy without entropy =     -956.57403939  energy(sigma->0) =     -956.70376156


--------------------------------------------------------------------------------------------------------




----------------------------------------- Iteration    1(   6)  ---------------------------------------


    POTLOK:  cpu time    0.7529: real time    0.7533
    SETDIJ:  cpu time    0.0885: real time    0.0885
     EDDAV:  cpu time   25.4017: real time   28.3606
       DOS:  cpu time    0.0248: real time    0.0248
    CHARGE:  cpu time    1.7213: real time    1.7536
    MIXING:  cpu time    0.0268: real time    0.0271
    --------------------------------------------
      LOOP:  cpu time   28.0178: real time   31.0107

 eigenvalue-minimisations  :  4608
 total energy-change (2. order) :-0.1727158E+02  (-0.1912149E+02)
 number of electron     765.9999972 magnetization 
 augmentation part       -9.6996037 magnetization 

 Broyden mixing:
  rms(total) = 0.21314E+01    rms(broyden)= 0.21290E+01
  rms(prec ) = 0.44825E+01
  weight for this iteration     100.00

 eigenvalues of (default mixing * dielectric matrix)
  average eigenvalue GAMMA=   0.5092
  0.5092

 Free energy of the ion-electron system (eV)
  ---------------------------------------------------
  alpha Z        PSCENC =       505.22967617
  Ewald energy   TEWEN  =     85947.46802649
  -Hartree energ DENC   =   -100953.24358588
  -exchange      EXHF   =         0.00000000
  -V(xc)+E(xc)   XCENC  =     -6598.28067363
  PAW double counting   =     18941.03272045   -10892.08578544
  entropy T*S    EENTRO =        -0.24718146
  eigenvalues    EBANDS =     -1943.18023248
  atomic energy  EATOM  =     14019.20197576
  Solvation  Ediel_sol  =         0.00000000
  ---------------------------------------------------
  free energy    TOTEN  =      -974.10506002 eV

  energy without entropy =     -973.85787856  energy(sigma->0) =     -973.98146929


--------------------------------------------------------------------------------------------------------




----------------------------------------- Iteration    1(   7)  ---------------------------------------


    POTLOK:  cpu time    0.7441: real time    0.7449
    SETDIJ:  cpu time    0.0888: real time    0.0888
     EDDAV:  cpu time   22.3910: real time   25.0310
       DOS:  cpu time    0.0201: real time    0.0201
    CHARGE:  cpu time    1.7500: real time    1.7823
    MIXING:  cpu time    0.0264: real time    0.0265
    --------------------------------------------
      LOOP:  cpu time   25.0221: real time   27.6964

 eigenvalue-minimisations  :  3912
 total energy-change (2. order) : 0.4235247E+02  (-0.1433051E+02)
 number of electron     765.9999993 magnetization 
 augmentation part      -10.1342960 magnetization 

 Broyden mixing:
  rms(total) = 0.97780E+00    rms(broyden)= 0.97396E+00
  rms(prec ) = 0.11894E+01
  weight for this iteration     100.00

 eigenvalues of (default mixing * dielectric matrix)
  average eigenvalue GAMMA=   1.0262
  1.7898  0.2626

 Free energy of the ion-electron system (eV)
  ---------------------------------------------------
  alpha Z        PSCENC =       505.22967617
  Ewald energy   TEWEN  =     85947.46802649
  -Hartree energ DENC   =   -100425.52535514
  -exchange      EXHF   =         0.00000000
  -V(xc)+E(xc)   XCENC  =     -6595.47070706
  PAW double counting   =     19289.38054680   -11240.60440766
  entropy T*S    EENTRO =        -0.05600241
  eigenvalues    EBANDS =     -2431.37633822
  atomic energy  EATOM  =     14019.20197576
  Solvation  Ediel_sol  =         0.00000000
  ---------------------------------------------------
  free energy    TOTEN  =      -931.75258526 eV

  energy without entropy =     -931.69658285  energy(sigma->0) =     -931.72458406


--------------------------------------------------------------------------------------------------------




----------------------------------------- Iteration    1(   8)  ---------------------------------------


    POTLOK:  cpu time    0.7499: real time    0.7502
    SETDIJ:  cpu time    0.0906: real time    0.0906
     EDDAV:  cpu time   22.9548: real time   25.7643
       DOS:  cpu time    0.0031: real time    0.0031
    CHARGE:  cpu time    1.7233: real time    1.7561
    MIXING:  cpu time    0.0276: real time    0.0276
    --------------------------------------------
      LOOP:  cpu time   25.5510: real time   28.3947

 eigenvalue-minimisations  :  4056
 total energy-change (2. order) :-0.3829333E+01  (-0.4305484E+01)
 number of electron     765.9999989 magnetization 
 augmentation part      -10.2583415 magnetization 

 Broyden mixing:
  rms(total) = 0.67095E+00    rms(broyden)= 0.67075E+00
  rms(prec ) = 0.17124E+01
  weight for this iteration     100.00

 eigenvalues of (default mixing * dielectric matrix)
  average eigenvalue GAMMA=   1.0578
  2.2735  0.6005  0.2994

 Free energy of the ion-electron system (eV)
  ---------------------------------------------------
  alpha Z        PSCENC =       505.22967617
  Ewald energy   TEWEN  =     85947.46802649
  -Hartree energ DENC   =   -100530.57998390
  -exchange      EXHF   =         0.00000000
  -V(xc)+E(xc)   XCENC  =     -6587.66599094
  PAW double counting   =     20565.36919672   -12517.26069611
  entropy T*S    EENTRO =        -0.05454286
  eigenvalues    EBANDS =     -2337.28958002
  atomic energy  EATOM  =     14019.20197576
  Solvation  Ediel_sol  =         0.00000000
  ---------------------------------------------------
  free energy    TOTEN  =      -935.58191868 eV

  energy without entropy =     -935.52737582  energy(sigma->0) =     -935.55464725


--------------------------------------------------------------------------------------------------------




----------------------------------------- Iteration    1(   9)  ---------------------------------------


    POTLOK:  cpu time    0.7513: real time    0.7517
    SETDIJ:  cpu time    0.0892: real time    0.0892
     EDDAV:  cpu time   23.1911: real time   25.8997
       DOS:  cpu time    0.0134: real time    0.0134
    CHARGE:  cpu time    1.7155: real time    1.7483
    MIXING:  cpu time    0.0310: real time    0.0310
    --------------------------------------------
      LOOP:  cpu time   25.7931: real time   28.5360

 eigenvalue-minimisations  :  4092
 total energy-change (2. order) : 0.1017436E+01  (-0.4541315E+00)
 number of electron     765.9999995 magnetization 
 augmentation part      -10.2727899 magnetization 

 Broyden mixing:
  rms(total) = 0.56242E+00    rms(broyden)= 0.56242E+00
  rms(prec ) = 0.16244E+01
  weight for this iteration     100.00

 eigenvalues of (default mixing * dielectric matrix)
  average eigenvalue GAMMA=   0.9113
  2.4561  0.7452  0.2980  0.1459

 Free energy of the ion-electron system (eV)
  ---------------------------------------------------
  alpha Z        PSCENC =       505.22967617
  Ewald energy   TEWEN  =     85947.46802649
  -Hartree energ DENC   =   -100588.13982578
  -exchange      EXHF   =         0.00000000
  -V(xc)+E(xc)   XCENC  =     -6584.99361707
  PAW double counting   =     20983.71152019   -12935.89352675
  entropy T*S    EENTRO =        -0.05799810
  eigenvalues    EBANDS =     -2281.09071368
  atomic energy  EATOM  =     14019.20197576
  Solvation  Ediel_sol  =         0.00000000
  ---------------------------------------------------
  free energy    TOTEN  =      -934.56448276 eV

  energy without entropy =     -934.50648466  energy(sigma->0) =     -934.53548371


--------------------------------------------------------------------------------------------------------




----------------------------------------- Iteration    1(  10)  ---------------------------------------


    POTLOK:  cpu time    0.7521: real time    0.7526
    SETDIJ:  cpu time    0.0885: real time    0.0885
     EDDAV:  cpu time   23.1967: real time   25.9760
       DOS:  cpu time    0.0012: real time    0.0012
    CHARGE:  cpu time    1.7375: real time    1.7698
    MIXING:  cpu time    0.0310: real time    0.0310
    --------------------------------------------
      LOOP:  cpu time   25.8085: real time   28.6216

 eigenvalue-minimisations  :  4092
 total energy-change (2. order) : 0.4878726E+01  (-0.5107792E+00)
 number of electron     765.9999992 magnetization 
 augmentation part      -10.3086628 magnetization 

 Broyden mixing:
  rms(total) = 0.13241E+00    rms(broyden)= 0.13239E+00
  rms(prec ) = 0.27048E+00
  weight for this iteration     100.00

 eigenvalues of (default mixing * dielectric matrix)
  average eigenvalue GAMMA=   0.9129
  2.4841  1.0132  0.6374  0.2873  0.1424

 Free energy of the ion-electron system (eV)
  ---------------------------------------------------
  alpha Z        PSCENC =       505.22967617
  Ewald energy   TEWEN  =     85947.46802649
  -Hartree energ DENC   =   -100711.52744198
  -exchange      EXHF   =         0.00000000
  -V(xc)+E(xc)   XCENC  =     -6579.46480306
  PAW double counting   =     21819.60535164   -13772.46043480
  entropy T*S    EENTRO =        -0.05388237
  eigenvalues    EBANDS =     -2157.68422497
  atomic energy  EATOM  =     14019.20197576
  Solvation  Ediel_sol  =         0.00000000
  ---------------------------------------------------
  free energy    TOTEN  =      -929.68575711 eV

  energy without entropy =     -929.63187474  energy(sigma->0) =     -929.65881593


--------------------------------------------------------------------------------------------------------




----------------------------------------- Iteration    1(  11)  ---------------------------------------


    POTLOK:  cpu time    0.7646: real time    0.7651
    SETDIJ:  cpu time    0.0888: real time    0.0888
     EDDAV:  cpu time   22.1581: real time   24.8778
       DOS:  cpu time    0.0021: real time    0.0021
    CHARGE:  cpu time    1.7330: real time    1.7654
    MIXING:  cpu time    0.0315: real time    0.0318
    --------------------------------------------
      LOOP:  cpu time   24.7797: real time   27.5338

 eigenvalue-minimisations  :  3876
 total energy-change (2. order) : 0.1213354E+00  (-0.2007101E+00)
 number of electron     765.9999983 magnetization 
 augmentation part      -10.2296509 magnetization 

 Broyden mixing:
  rms(total) = 0.36275E+00    rms(broyden)= 0.36050E+00
  rms(prec ) = 0.40514E+00
  weight for this iteration     100.00

 eigenvalues of (default mixing * dielectric matrix)
  average eigenvalue GAMMA=   0.7706
  2.4933  0.8280  0.5725  0.1426  0.3244  0.2625

 Free energy of the ion-electron system (eV)
  ---------------------------------------------------
  alpha Z        PSCENC =       505.22967617
  Ewald energy   TEWEN  =     85947.46802649
  -Hartree energ DENC   =   -100787.79768261
  -exchange      EXHF   =         0.00000000
  -V(xc)+E(xc)   XCENC  =     -6578.09047716
  PAW double counting   =     21934.09641772   -13887.23999262
  entropy T*S    EENTRO =        -0.11916696
  eigenvalues    EBANDS =     -2082.31319851
  atomic energy  EATOM  =     14019.20197576
  Solvation  Ediel_sol  =         0.00000000
  ---------------------------------------------------
  free energy    TOTEN  =      -929.56442171 eV

  energy without entropy =     -929.44525476  energy(sigma->0) =     -929.50483824


--------------------------------------------------------------------------------------------------------




----------------------------------------- Iteration    1(  12)  ---------------------------------------


    POTLOK:  cpu time    0.7502: real time    0.7506
    SETDIJ:  cpu time    0.0928: real time    0.0929
     EDDAV:  cpu time   22.7639: real time   25.4570
       DOS:  cpu time    0.0163: real time    0.0163
    CHARGE:  cpu time    1.7183: real time    1.7502
    MIXING:  cpu time    0.0334: real time    0.0334
    --------------------------------------------
      LOOP:  cpu time   25.3765: real time   28.1031

 eigenvalue-minimisations  :  3996
 total energy-change (2. order) :-0.3435903E-01  (-0.1699450E+00)
 number of electron     765.9999992 magnetization 
 augmentation part      -10.3666727 magnetization 

 Broyden mixing:
  rms(total) = 0.11760E+00    rms(broyden)= 0.11332E+00
  rms(prec ) = 0.14481E+00
  weight for this iteration     100.00

 eigenvalues of (default mixing * dielectric matrix)
  average eigenvalue GAMMA=   0.8930
  2.1727  2.1727  0.6191  0.6191  0.2866  0.1425  0.2379

 Free energy of the ion-electron system (eV)
  ---------------------------------------------------
  alpha Z        PSCENC =       505.22967617
  Ewald energy   TEWEN  =     85947.46802649
  -Hartree energ DENC   =   -100783.68772688
  -exchange      EXHF   =         0.00000000
  -V(xc)+E(xc)   XCENC  =     -6577.94424928
  PAW double counting   =     21943.60308511   -13896.76802528
  entropy T*S    EENTRO =        -0.05502971
  eigenvalues    EBANDS =     -2086.64651313
  atomic energy  EATOM  =     14019.20197576
  Solvation  Ediel_sol  =         0.00000000
  ---------------------------------------------------
  free energy    TOTEN  =      -929.59878074 eV

  energy without entropy =     -929.54375103  energy(sigma->0) =     -929.57126589


--------------------------------------------------------------------------------------------------------




----------------------------------------- Iteration    1(  13)  ---------------------------------------


    POTLOK:  cpu time    0.7593: real time    0.7596
    SETDIJ:  cpu time    0.0889: real time    0.0889
     EDDAV:  cpu time   22.0149: real time   24.6770
       DOS:  cpu time    0.0011: real time    0.0011
    CHARGE:  cpu time    1.7375: real time    1.7692
    MIXING:  cpu time    0.0345: real time    0.0345
    --------------------------------------------
      LOOP:  cpu time   24.6377: real time   27.3330

 eigenvalue-minimisations  :  3828
 total energy-change (2. order) :-0.1106122E+00  (-0.8969164E-02)
 number of electron     765.9999972 magnetization 
 augmentation part       -9.9373455 magnetization 

 Broyden mixing:
  rms(total) = 0.12546E+01    rms(broyden)= 0.12495E+01
  rms(prec ) = 0.14409E+01
  weight for this iteration     100.00

 eigenvalues of (default mixing * dielectric matrix)
  average eigenvalue GAMMA=   0.8123
  2.1893  2.1893  0.6570  0.6570  0.2900  0.2948  0.1425  0.0788

 Free energy of the ion-electron system (eV)
  ---------------------------------------------------
  alpha Z        PSCENC =       505.22967617
  Ewald energy   TEWEN  =     85947.46802649
  -Hartree energ DENC   =   -100832.16865218
  -exchange      EXHF   =         0.00000000
  -V(xc)+E(xc)   XCENC  =     -6577.69353874
  PAW double counting   =     21904.95132844   -13858.44876111
  entropy T*S    EENTRO =        -0.13938555
  eigenvalues    EBANDS =     -2038.11006225
  atomic energy  EATOM  =     14019.20197576
  Solvation  Ediel_sol  =         0.00000000
  ---------------------------------------------------
  free energy    TOTEN  =      -929.70939298 eV

  energy without entropy =     -929.57000743  energy(sigma->0) =     -929.63970020


--------------------------------------------------------------------------------------------------------




----------------------------------------- Iteration    1(  14)  ---------------------------------------


    POTLOK:  cpu time    0.7510: real time    0.7510
    SETDIJ:  cpu time    0.0892: real time    0.0892
     EDDAV:  cpu time   21.5424: real time   24.2223
       DOS:  cpu time    0.0012: real time    0.0012
    CHARGE:  cpu time    1.7198: real time    1.7516
    MIXING:  cpu time    0.0358: real time    0.0358
    --------------------------------------------
      LOOP:  cpu time   24.1411: real time   26.8539

 eigenvalue-minimisations  :  3732
 total energy-change (2. order) : 0.3335116E+00  (-0.1921670E+00)
 number of electron     765.9999992 magnetization 
 augmentation part      -10.3567333 magnetization 

 Broyden mixing:
  rms(total) = 0.13463E+00    rms(broyden)= 0.94450E-01
  rms(prec ) = 0.11889E+00
  weight for this iteration     100.00
  WARNING: grid for Broyden might be to small

 eigenvalues of (default mixing * dielectric matrix)
  average eigenvalue GAMMA=   0.8735
  2.4905  2.4905  0.7619  0.7619  0.2850  0.4201  0.4201  0.1425  0.0889

 Free energy of the ion-electron system (eV)
  ---------------------------------------------------
  alpha Z        PSCENC =       505.22967617
  Ewald energy   TEWEN  =     85947.46802649
  -Hartree energ DENC   =   -100836.54844921
  -exchange      EXHF   =         0.00000000
  -V(xc)+E(xc)   XCENC  =     -6577.38530835
  PAW double counting   =     21913.75786056   -13867.32759741
  entropy T*S    EENTRO =        -0.05519260
  eigenvalues    EBANDS =     -2033.71687284
  atomic energy  EATOM  =     14019.20197576
  Solvation  Ediel_sol  =         0.00000000
  ---------------------------------------------------
  free energy    TOTEN  =      -929.37588142 eV

  energy without entropy =     -929.32068882  energy(sigma->0) =     -929.34828512


--------------------------------------------------------------------------------------------------------




----------------------------------------- Iteration    1(  15)  ---------------------------------------


    POTLOK:  cpu time    0.7597: real time    0.7597
    SETDIJ:  cpu time    0.0889: real time    0.0889
     EDDAV:  cpu time   20.8444: real time   23.3593
       DOS:  cpu time    0.0015: real time    0.0015
    CHARGE:  cpu time    1.7196: real time    1.7515
    MIXING:  cpu time    0.0392: real time    0.0392
    --------------------------------------------
      LOOP:  cpu time   23.4549: real time   26.0029

 eigenvalue-minimisations  :  3552
 total energy-change (2. order) :-0.1229332E+00  (-0.4776736E-02)
 number of electron     765.9999991 magnetization 
 augmentation part      -10.3534037 magnetization 

 Broyden mixing:
  rms(total) = 0.10420E+00    rms(broyden)= 0.10246E+00
  rms(prec ) = 0.12013E+00
  weight for this iteration     100.00

 eigenvalues of (default mixing * dielectric matrix)
  average eigenvalue GAMMA=   0.8658
  2.5348  2.5348  0.8108  0.8108  0.7778  0.3357  0.3357  0.2860  0.1425  0.0895

 Free energy of the ion-electron system (eV)
  ---------------------------------------------------
  alpha Z        PSCENC =       505.22967617
  Ewald energy   TEWEN  =     85947.46802649
  -Hartree energ DENC   =   -100870.61065794
  -exchange      EXHF   =         0.00000000
  -V(xc)+E(xc)   XCENC  =     -6576.83108705
  PAW double counting   =     21947.72514982   -13901.47309411
  entropy T*S    EENTRO =        -0.05617730
  eigenvalues    EBANDS =     -2000.15262650
  atomic energy  EATOM  =     14019.20197576
  Solvation  Ediel_sol  =         0.00000000
  ---------------------------------------------------
  free energy    TOTEN  =      -929.49881465 eV

  energy without entropy =     -929.44263735  energy(sigma->0) =     -929.47072600


--------------------------------------------------------------------------------------------------------




----------------------------------------- Iteration    1(  16)  ---------------------------------------


    POTLOK:  cpu time    0.7565: real time    0.7565
    SETDIJ:  cpu time    0.0881: real time    0.0881
     EDDAV:  cpu time   22.6897: real time   25.4123
       DOS:  cpu time    0.0014: real time    0.0014
    CHARGE:  cpu time    1.7061: real time    1.7376
    MIXING:  cpu time    0.0424: real time    0.0424
    --------------------------------------------
      LOOP:  cpu time   25.2859: real time   28.0412

 eigenvalue-minimisations  :  3996
 total energy-change (2. order) :-0.1921199E-02  (-0.1573216E-02)
 number of electron     765.9999991 magnetization 
 augmentation part      -10.3544320 magnetization 

 Broyden mixing:
  rms(total) = 0.93310E-01    rms(broyden)= 0.93181E-01
  rms(prec ) = 0.10944E+00
  weight for this iteration     100.00

 eigenvalues of (default mixing * dielectric matrix)
  average eigenvalue GAMMA=   0.8718
  2.5512  2.5512  1.0677  1.0677  0.5904  0.5904  0.2858  0.3267  0.3267  0.1425
  0.0895

 Free energy of the ion-electron system (eV)
  ---------------------------------------------------
  alpha Z        PSCENC =       505.22967617
  Ewald energy   TEWEN  =     85947.46802649
  -Hartree energ DENC   =   -100883.89683499
  -exchange      EXHF   =         0.00000000
  -V(xc)+E(xc)   XCENC  =     -6576.56116914
  PAW double counting   =     21963.98373868   -13917.75907607
  entropy T*S    EENTRO =        -0.05573817
  eigenvalues    EBANDS =     -1987.11133457
  atomic energy  EATOM  =     14019.20197576
  Solvation  Ediel_sol  =         0.00000000
  ---------------------------------------------------
  free energy    TOTEN  =      -929.50073585 eV

  energy without entropy =     -929.44499767  energy(sigma->0) =     -929.47286676


--------------------------------------------------------------------------------------------------------




----------------------------------------- Iteration    1(  17)  ---------------------------------------


    POTLOK:  cpu time    0.7590: real time    0.7590
    SETDIJ:  cpu time    0.0881: real time    0.0881
     EDDAV:  cpu time   20.7761: real time   23.2900
       DOS:  cpu time    0.0012: real time    0.0012
    CHARGE:  cpu time    1.7174: real time    1.7492
    MIXING:  cpu time    0.0425: real time    0.0425
[...]
     11.69112     -8.59029     -8.26601        -0.000317     -0.000644      0.001216
     11.69112    -17.18057    -13.22561         0.000632      0.000132      0.000261
     11.69112    -11.45372     -3.30640        -0.000458     -0.000164     -0.000320
     11.69112    -14.31714     -8.26601         0.000618     -0.000038      0.000486
     13.99306      0.00000      0.00000        -0.002260      0.000002     -0.000434
     13.99306     -2.86343     -4.95960        -0.002680     -0.000255     -0.000177
     13.99306     -5.72686     -9.91921        -0.003165     -0.000541      0.000020
     13.99306     -5.72686      0.00000        -0.002567     -0.000151     -0.000360
     13.99306     -8.59029     -4.95960        -0.009016     -0.000044     -0.001437
     13.99306    -11.45372     -9.91921        -0.005769     -0.000143      0.000169
     13.99306    -11.45372      0.00000        -0.003146      0.000135     -0.000771
     13.99306    -14.31714     -4.95960        -0.004313     -0.000122     -0.000318
     13.99306    -17.18057     -9.91921        -0.002722      0.000216     -0.000300
     16.34180     -2.86343     -1.65320        -0.000739      0.000008      0.000018
     16.34180     -5.72686     -6.61281         0.001515     -0.001356      0.000422
     16.34180     -8.59029    -11.57241         0.000757     -0.000688      0.001063
     16.34180     -8.59029     -1.65320         0.000299     -0.000084     -0.001540
     16.34180    -11.45372     -6.61281         0.015563      0.002460      0.000687
     16.34180    -14.31714    -11.57241        -0.000460      0.000481      0.000781
     16.34180    -14.31714     -1.65320        -0.000485      0.000211     -0.000846
     16.34180    -17.18057     -6.61281        -0.000654      0.001052      0.000199
     16.34180    -20.04400    -11.57241        -0.000692     -0.000148     -0.000105
      2.36204     -7.15857     -4.13300        -0.000891      0.000351     -0.001608
      2.36204    -10.02200     -9.09261        -0.001866      0.000000      0.001050
      2.36204    -12.88543    -14.05221        -0.000973      0.000179      0.000242
      2.36204    -12.88543     -4.13300        -0.000891     -0.000351     -0.001608
      2.36204    -15.74886     -9.09261        -0.000028      0.000233     -0.000073
      2.36204    -18.61229    -14.05221        -0.000052      0.000000     -0.000900
      2.36204    -18.61229     -4.13300        -0.000371      0.000000      0.000391
      2.36204    -21.47572     -9.09261        -0.000028     -0.000233     -0.000073
      2.36204    -24.33915    -14.05221        -0.000973     -0.000179      0.000242
      4.71078    -10.02200     -5.78621        -0.002818      0.000000     -0.001335
      4.71078    -12.88543    -10.74581        -0.000505     -0.000273     -0.000568
      4.71078     -7.15857     -0.82660        -0.001143      0.000077      0.000578
      4.71078    -15.74886     -5.78621        -0.000421     -0.000273      0.000331
      4.71078    -18.61229    -10.74581        -0.001058      0.000000     -0.000722
      4.71078    -12.88543     -0.82660        -0.001143     -0.000077      0.000578
      4.71078     -4.29514     -5.78621        -0.000421      0.000273      0.000331
      4.71078     -7.15857    -10.74581        -0.000505      0.000273     -0.000568
      4.71078     -1.43171     -0.82660        -0.000490      0.000000     -0.000320
      7.01272    -12.88543     -7.43941         0.000995      0.000726      0.000728
      7.01272    -15.74886    -12.39901         0.001012     -0.000340      0.000377
      7.01272    -10.02200     -2.47980         0.001044      0.000000      0.000949
      7.01272    -18.61229     -7.43941         0.001051      0.000000      0.000686
      7.01272    -21.47572    -12.39901         0.001012      0.000340      0.000377
      7.01272    -15.74886     -2.47980         0.001007     -0.000200      0.000449
      7.01272     -7.15857     -7.43941         0.000995     -0.000726      0.000728
      7.01272    -10.02200    -12.39901         0.001135      0.000000      0.000116
      7.01272     -4.29514     -2.47980         0.001007      0.000200      0.000449
      9.35192    -15.74886     -9.09261         0.000030      0.000007     -0.000106
      9.35192    -18.61229    -14.05221        -0.000116      0.000000     -0.000088
      9.35192    -12.88543     -4.13300         0.000851      0.000348     -0.000731
      9.35192    -21.47572     -9.09261         0.000030     -0.000007     -0.000106
      9.35192    -24.33915    -14.05221         0.000426     -0.000086      0.000088
      9.35192    -18.61229     -4.13300         0.000853      0.000000      0.000133
      9.35192    -10.02200     -9.09261         0.001993      0.000000      0.001589
      9.35192    -12.88543    -14.05221         0.000426      0.000086      0.000088
      9.35192     -7.15857     -4.13300         0.000851     -0.000348     -0.000731
     11.69112    -18.61229    -10.74581         0.000511      0.000000     -0.000580
     11.69112    -12.88543     -0.82660         0.000726      0.000383     -0.000665
     11.69112    -15.74886     -5.78621         0.000627      0.000205     -0.000196
     11.69112     -7.15857    -10.74581         0.001071     -0.000091     -0.000163
     11.69112     -1.43171     -0.82660         0.000744      0.000000     -0.000712
     11.69112     -4.29514     -5.78621         0.000627     -0.000205     -0.000196
     11.69112    -12.88543    -10.74581         0.001071      0.000091     -0.000163
     11.69112     -7.15857     -0.82660         0.000726     -0.000383     -0.000665
     11.69112    -10.02200     -5.78621        -0.000872      0.000000     -0.001123
     13.99306    -21.47572    -12.39901        -0.002659     -0.000066      0.000375
     13.99306    -15.74886     -2.47980        -0.002472      0.000137      0.000102
     13.99306    -18.61229     -7.43941        -0.002710      0.000000      0.000269
     13.99306    -10.02200    -12.39901        -0.002499      0.000000      0.000422
     13.99306     -4.29514     -2.47980        -0.002472     -0.000137      0.000102
     13.99306     -7.15857     -7.43941        -0.006508     -0.000916      0.001191
     13.99306    -15.74886    -12.39901        -0.002659      0.000066      0.000375
     13.99306    -10.02200     -2.47980        -0.004691      0.000000      0.000680
     13.99306    -12.88543     -7.43941        -0.006508      0.000916      0.001191
     16.34180    -24.33915    -14.05221        -0.000868     -0.000182     -0.000058
     16.34180    -18.61229     -4.13300        -0.001326      0.000000      0.000066
     16.34180    -21.47572     -9.09261        -0.000085     -0.001121      0.000522
     16.34180    -12.88543    -14.05221        -0.000868      0.000182     -0.000058
     16.34180     -7.15857     -4.13300         0.003983     -0.000864     -0.001128
     16.34180    -10.02200     -9.09261         0.018797      0.000000      0.003593
     16.34180    -18.61229    -14.05221        -0.000573      0.000000     -0.000184
     16.34180    -12.88543     -4.13300         0.003983      0.000864     -0.001128
     16.34180    -15.74886     -9.09261        -0.000085      0.001121      0.000522
      2.36204     -8.59029     -6.61281        -0.003196     -0.001105      0.000229
      2.36204    -11.45372    -11.57241        -0.000722     -0.000061     -0.000662
      2.36204     -5.72686     -1.65320        -0.000830      0.000164      0.000593
      2.36204    -14.31714     -6.61281        -0.000824      0.000904      0.000652
      2.36204    -17.18057    -11.57241        -0.000340     -0.000099      0.000318
      2.36204    -11.45372     -1.65320        -0.000383     -0.000421      0.001323
      2.36204    -20.04400     -6.61281        -0.000494      0.000208      0.000225
      2.36204    -22.90743    -11.57241        -0.000391     -0.000305     -0.000567
      2.36204    -17.18057     -1.65320        -0.000583     -0.000099      0.000066
      4.71078    -11.45372     -8.26601        -0.001139      0.000554      0.001600
      4.71078    -14.31714    -13.22561        -0.001215      0.000385     -0.000057
      4.71078     -8.59029     -3.30640         0.000049      0.000302     -0.000751
      4.71078    -17.18057     -8.26601        -0.000518     -0.000021      0.000567
      4.71078    -20.04400    -13.22561        -0.000729     -0.000124     -0.000064
      4.71078    -14.31714     -3.30640        -0.000498     -0.000472     -0.000172
      4.71078     -5.72686     -8.26601        -0.000390     -0.000333      0.000273
      4.71078     -8.59029    -13.22561        -0.000828      0.000040     -0.000080
      4.71078     -2.86343     -3.30640        -0.000768      0.000102      0.000502
      7.01272    -14.31714     -9.91921         0.001409     -0.000452     -0.000001
      7.01272     -8.59029      0.00000         0.000895      0.000001     -0.000257
      7.01272    -11.45372     -4.95960         0.000868      0.000414     -0.002056
      7.01272    -20.04400     -9.91921         0.001269     -0.000295     -0.000612
      7.01272    -14.31714      0.00000         0.000988      0.000254     -0.000172
      7.01272    -17.18057     -4.95960         0.000878      0.000052     -0.000535
      7.01272     -8.59029     -9.91921         0.001346      0.000065      0.000339
      7.01272     -2.86343      0.00000         0.001017      0.000044     -0.000320
      7.01272     -5.72686     -4.95960         0.000795     -0.000364     -0.000688
      9.35192    -17.18057    -11.57241        -0.000048     -0.000276      0.000123
      9.35192    -11.45372     -1.65320         0.000591     -0.000130      0.000697
      9.35192    -14.31714     -6.61281         0.001524      0.000312     -0.000140
      9.35192    -22.90743    -11.57241         0.000420     -0.000046      0.000253
      9.35192    -17.18057     -1.65320         0.000338     -0.000181     -0.000190
      9.35192    -20.04400     -6.61281         0.000338     -0.000016     -0.000002
      9.35192    -11.45372    -11.57241         0.000827     -0.000157     -0.000371
      9.35192     -5.72686     -1.65320         0.000643      0.000094     -0.000066
      9.35192     -8.59029     -6.61281         0.004104     -0.000541     -0.000055
     11.69112    -20.04400    -13.22561         0.000632     -0.000132      0.000261
     11.69112    -14.31714     -3.30640         0.000847     -0.000153      0.000040
     11.69112    -17.18057     -8.26601         0.000489      0.000399      0.000436
     11.69112     -8.59029    -13.22561         0.000464      0.000049      0.000578
     11.69112     -2.86343     -3.30640         0.000638     -0.000114      0.000328
     11.69112     -5.72686     -8.26601         0.000618      0.000038      0.000486
     11.69112    -14.31714    -13.22561         0.000662      0.000300      0.000366
     11.69112     -8.59029     -3.30640        -0.000458      0.000164     -0.000320
     11.69112    -11.45372     -8.26601        -0.000317      0.000644      0.001216
     13.99306    -14.31714      0.00000        -0.002567      0.000151     -0.000360
     13.99306    -17.18057     -4.95960        -0.002680      0.000255     -0.000177
     13.99306    -20.04400     -9.91921        -0.002722     -0.000216     -0.000300
     13.99306     -2.86343      0.00000        -0.002260     -0.000002     -0.000434
     13.99306     -5.72686     -4.95960        -0.004313      0.000122     -0.000318
     13.99306     -8.59029     -9.91921        -0.005769      0.000143      0.000169
     13.99306     -8.59029      0.00000        -0.003146     -0.000135     -0.000771
     13.99306    -11.45372     -4.95960        -0.009016      0.000044     -0.001437
     13.99306    -14.31714     -9.91921        -0.003165      0.000541      0.000020
     16.34180    -17.18057     -1.65320        -0.000739     -0.000008      0.000018
     16.34180    -20.04400     -6.61281        -0.000654     -0.001052      0.000199
     16.34180    -22.90743    -11.57241        -0.000460     -0.000481      0.000781
     16.34180     -5.72686     -1.65320        -0.000485     -0.000211     -0.000846
     16.34180     -8.59029     -6.61281         0.015563     -0.002460      0.000687
     16.34180    -11.45372    -11.57241         0.000757      0.000688      0.001063
     16.34180    -11.45372     -1.65320         0.000299      0.000084     -0.001540
     16.34180    -14.31714     -6.61281         0.001515      0.001356      0.000422
     16.34180    -17.18057    -11.57241        -0.000692      0.000148     -0.000105
      2.36204    -10.02200     -4.13300        -0.000532      0.000000     -0.002573
      2.36204    -12.88543     -9.09261        -0.000674      0.000733      0.000813
      2.36204    -15.74886    -14.05221        -0.000883      0.000456     -0.000990
      2.36204    -15.74886     -4.13300        -0.000557      0.000174      0.000268
      2.36204    -18.61229     -9.09261         0.000185      0.000000      0.000112
      2.36204    -21.47572    -14.05221        -0.000883     -0.000456     -0.000990
      2.36204     -4.29514     -4.13300        -0.000557     -0.000174      0.000268
      2.36204     -7.15857     -9.09261        -0.000674     -0.000733      0.000813
      2.36204    -10.02200    -14.05221        -0.001005      0.000000      0.000006
      4.71078    -12.88543     -5.78621        -0.001635      0.000920     -0.000073
      4.71078    -15.74886    -10.74581        -0.000834     -0.000078     -0.000462
      4.71078    -10.02200     -0.82660        -0.000586      0.000000      0.000505
      4.71078    -18.61229     -5.78621        -0.000726      0.000000     -0.000285
      4.71078    -21.47572    -10.74581        -0.000834      0.000078     -0.000462
      4.71078    -15.74886     -0.82660        -0.000764     -0.000159      0.000011
      4.71078     -7.15857     -5.78621        -0.001635     -0.000920     -0.000073
      4.71078    -10.02200    -10.74581        -0.000462      0.000000     -0.000467
      4.71078     -4.29514     -0.82660        -0.000764      0.000159      0.000011
      7.01272    -15.74886     -7.43941         0.001036     -0.000050     -0.000214
      7.01272    -18.61229    -12.39901         0.001130      0.000000      0.000441
      7.01272    -12.88543     -2.47980         0.001359     -0.000206      0.000860
      7.01272    -21.47571     -7.43941         0.001036      0.000050     -0.000214
      7.01272    -24.33914    -12.39901         0.000500     -0.000273      0.000034
      7.01272    -18.61228     -2.47980         0.000769      0.000000      0.000828
      7.01272    -10.02200     -7.43941         0.001109      0.000000      0.001228
      7.01272    -12.88543    -12.39901         0.000500      0.000273      0.000034
      7.01272     -7.15857     -2.47980         0.001359      0.000206      0.000860
      9.35192    -18.61229     -9.09261         0.000594      0.000000     -0.000132
      9.35192    -21.47572    -14.05221         0.000109      0.000063     -0.000330
      9.35192    -15.74886     -4.13300         0.000660      0.000032     -0.000068
      9.35192     -7.15857     -9.09261         0.000535      0.000092      0.000487
      9.35192    -10.02200    -14.05221         0.000472      0.000000      0.000190
      9.35192     -4.29514     -4.13300         0.000660     -0.000032     -0.000068
      9.35192    -12.88543     -9.09261         0.000535     -0.000092      0.000487
      9.35192    -15.74886    -14.05221         0.000109     -0.000063     -0.000330
      9.35192    -10.02200     -4.13300         0.001336      0.000000     -0.001411
     11.69112    -21.47572    -10.74581         0.000682     -0.000092      0.000070
     11.69112    -15.74886     -0.82660         0.000735     -0.000419     -0.000373
     11.69112    -18.61229     -5.78621         0.000756      0.000000     -0.000304
     11.69112    -10.02200    -10.74581        -0.000405      0.000000     -0.000435
     11.69112     -4.29514     -0.82660         0.000735      0.000419     -0.000373
     11.69112     -7.15857     -5.78621         0.000351     -0.000732     -0.000781
     11.69112    -15.74886    -10.74581         0.000682      0.000092      0.000070
     11.69112    -10.02200     -0.82660         0.001079      0.000000     -0.000630
     11.69112    -12.88543     -5.78621         0.000351      0.000732     -0.000781
     13.99306    -24.33914    -12.39901        -0.002960      0.000009      0.000785
     13.99306    -18.61228     -2.47980        -0.002242      0.000000      0.000229
     13.99306    -21.47571     -7.43941        -0.002525     -0.000624      0.000323
     13.99306    -12.88543    -12.39901        -0.002960     -0.000009      0.000785
     13.99306     -7.15857     -2.47980        -0.003048      0.000346      0.000065
     13.99306    -10.02200     -7.43941        -0.013756      0.000000      0.000581
     13.99306    -18.61229    -12.39901        -0.002579      0.000000      0.000441
     13.99306    -12.88543     -2.47980        -0.003048     -0.000346      0.000065
     13.99306    -15.74886     -7.43941        -0.002525      0.000624      0.000323
     16.34180    -10.02200    -14.05221        -0.001029      0.000000      0.000038
     16.34180     -4.29514     -4.13300         0.000075     -0.000727     -0.000271
     16.34180     -7.15857     -9.09261         0.003433     -0.001427      0.001231
     16.34180    -15.74886    -14.05221        -0.000897     -0.000015      0.000014
     16.34180    -10.02200     -4.13300         0.019004      0.000000     -0.004938
     16.34180    -12.88543     -9.09261         0.003433      0.001427      0.001231
     16.34180    -21.47572    -14.05221        -0.000897      0.000015      0.000014
     16.34180    -15.74886     -4.13300         0.000075      0.000727     -0.000271
     16.34180    -18.61229     -9.09261        -0.000930      0.000000      0.000103
     21.04000    -10.02200     -7.43941         0.018280      0.000000     12.788621
     21.04000    -10.02200     -5.78620         0.020206     -0.000000    -12.789102
 -----------------------------------------------------------------------------------
    total drift:                                0.207971      0.002074     -0.000074


--------------------------------------------------------------------------------------------------------



  FREE ENERGIE OF THE ION-ELECTRON SYSTEM (eV)
  ---------------------------------------------------
  free  energy   TOTEN  =      -929.52913922 eV

  energy  without entropy=     -929.45366538  energy(sigma->0) =     -929.49140230
 


--------------------------------------------------------------------------------------------------------


    POTLOK:  cpu time    0.8603: real time    0.8919


--------------------------------------------------------------------------------------------------------


     LOOP+:  cpu time  764.6169: real time  849.6896
    4ORBIT:  cpu time    0.0000: real time    0.0000

 total amount of memory used by VASP MPI-rank0   652144. kBytes
=======================================================================

   base      :      30000. kBytes
   nonlr-proj:      89923. kBytes
   fftplans  :      40601. kBytes
   grid      :      95147. kBytes
   one-center:       3950. kBytes
   wavefun   :     392523. kBytes
 
  
  
 General timing and accounting informations for this job:
 ========================================================
  
                  Total CPU time used (sec):      779.976
                            User time (sec):      141.811
                          System time (sec):      638.165
                         Elapsed time (sec):      868.404
  
                   Maximum memory used (kb):     1006292.
                   Average memory used (kb):           0.
  
                          Minor page faults:     28757326
                          Major page faults:           57
                 Voluntary context switches:        20132
