 254 254   0   0
  0.3019211E+02  0.1718057E-08  0.1718057E-08  0.3000000E-08  0.5000000E-15
  1.000000000000000E-004
  CAR 
 NiAl                                    
      5.39974489    -21.58578659  301      1.81277951      1.00000000
    -21.586  0.0000E+00  0.0000E+00
    -21.496  0.0000E+00  0.0000E+00
    -21.406  0.0000E+00  0.0000E+00
    -21.316  0.0000E+00  0.0000E+00
    -21.226  0.0000E+00  0.0000E+00
    -21.136  0.0000E+00  0.0000E+00
    -21.046  0.0000E+00  0.0000E+00
    -20.956  0.0000E+00  0.0000E+00
    -20.866  0.0000E+00  0.0000E+00
    -20.776  0.0000E+00  0.0000E+00
    -20.686  0.0000E+00  0.0000E+00
    -20.596  0.2188E-09  0.1968E-10
    -20.506  0.3474E-03  0.3125E-04
    -20.416  0.1170E+01  0.1053E+00
    -20.326  0.1711E+02  0.1645E+01
    -20.237  0.3944E+01  0.1999E+01
    -20.147  0.5818E-02  0.2000E+01
    -20.057  0.2028E-07  0.2000E+01
    -19.967  0.0000E+00  0.2000E+01
    -19.877  0.0000E+00  0.2000E+01
    -19.787  0.0000E+00  0.2000E+01
    -19.697  0.0000E+00  0.2000E+01
    -19.607  0.0000E+00  0.2000E+01
    -19.517  0.0000E+00  0.2000E+01
    -19.427  0.0000E+00  0.2000E+01
    -19.337  0.0000E+00  0.2000E+01
    -19.247  0.0000E+00  0.2000E+01
    -19.157  0.0000E+00  0.2000E+01
    -19.067  0.0000E+00  0.2000E+01
    -18.977  0.0000E+00  0.2000E+01
    -18.887  0.0000E+00  0.2000E+01
    -18.797  0.0000E+00  0.2000E+01
    -18.707  0.0000E+00  0.2000E+01
    -18.617  0.0000E+00  0.2000E+01
    -18.527  0.0000E+00  0.2000E+01
    -18.437  0.0000E+00  0.2000E+01
    -18.348  0.0000E+00  0.2000E+01
    -18.258  0.0000E+00  0.2000E+01
    -18.168  0.0000E+00  0.2000E+01
    -18.078  0.0000E+00  0.2000E+01
    -17.988  0.0000E+00  0.2000E+01
    -17.898  0.0000E+00  0.2000E+01
    -17.808  0.0000E+00  0.2000E+01
    -17.718  0.0000E+00  0.2000E+01
    -17.628  0.0000E+00  0.2000E+01
    -17.538  0.0000E+00  0.2000E+01
    -17.448  0.0000E+00  0.2000E+01
    -17.358  0.0000E+00  0.2000E+01
    -17.268  0.0000E+00  0.2000E+01
    -17.178  0.0000E+00  0.2000E+01
    -17.088  0.0000E+00  0.2000E+01
    -16.998  0.0000E+00  0.2000E+01
    -16.908  0.0000E+00  0.2000E+01
    -16.818  0.0000E+00  0.2000E+01
    -16.728  0.0000E+00  0.2000E+01
    -16.638  0.0000E+00  0.2000E+01
    -16.548  0.0000E+00  0.2000E+01
    -16.459  0.0000E+00  0.2000E+01
    -16.369  0.0000E+00  0.2000E+01
    -16.279  0.0000E+00  0.2000E+01
    -16.189  0.0000E+00  0.2000E+01
    -16.099  0.0000E+00  0.2000E+01
    -16.009  0.0000E+00  0.2000E+01
    -15.919  0.0000E+00  0.2000E+01
    -15.829  0.0000E+00  0.2000E+01
    -15.739  0.0000E+00  0.2000E+01
    -15.649  0.0000E+00  0.2000E+01
    -15.559  0.0000E+00  0.2000E+01
    -15.469  0.0000E+00  0.2000E+01
    -15.379  0.0000E+00  0.2000E+01
    -15.289  0.0000E+00  0.2000E+01
    -15.199  0.0000E+00  0.2000E+01
    -15.109  0.0000E+00  0.2000E+01
    -15.019  0.0000E+00  0.2000E+01
    -14.929  0.0000E+00  0.2000E+01
    -14.839  0.0000E+00  0.2000E+01
    -14.749  0.0000E+00  0.2000E+01
    -14.660  0.0000E+00  0.2000E+01
    -14.570  0.0000E+00  0.2000E+01
    -14.480  0.0000E+00  0.2000E+01
    -14.390  0.0000E+00  0.2000E+01
    -14.300  0.0000E+00  0.2000E+01
    -14.210  0.0000E+00  0.2000E+01
    -14.120  0.0000E+00  0.2000E+01
    -14.030  0.0000E+00  0.2000E+01
    -13.940  0.0000E+00  0.2000E+01
    -13.850  0.0000E+00  0.2000E+01
    -13.760  0.0000E+00  0.2000E+01
    -13.670  0.0000E+00  0.2000E+01
    -13.580  0.0000E+00  0.2000E+01
    -13.490  0.0000E+00  0.2000E+01
    -13.400  0.0000E+00  0.2000E+01
    -13.310  0.0000E+00  0.2000E+01
    -13.220  0.0000E+00  0.2000E+01
    -13.130  0.0000E+00  0.2000E+01
    -13.040  0.0000E+00  0.2000E+01
    -12.950  0.0000E+00  0.2000E+01
    -12.860  0.0000E+00  0.2000E+01
    -12.771  0.0000E+00  0.2000E+01
    -12.681  0.0000E+00  0.2000E+01
    -12.591  0.0000E+00  0.2000E+01
    -12.501  0.0000E+00  0.2000E+01
    -12.411  0.0000E+00  0.2000E+01
    -12.321  0.0000E+00  0.2000E+01
    -12.231  0.0000E+00  0.2000E+01
    -12.141  0.0000E+00  0.2000E+01
    -12.051  0.0000E+00  0.2000E+01
    -11.961  0.0000E+00  0.2000E+01
    -11.871  0.0000E+00  0.2000E+01
    -11.781  0.0000E+00  0.2000E+01
    -11.691  0.0000E+00  0.2000E+01
    -11.601  0.0000E+00  0.2000E+01
    -11.511  0.0000E+00  0.2000E+01
    -11.421  0.0000E+00  0.2000E+01
    -11.331  0.0000E+00  0.2000E+01
    -11.241  0.0000E+00  0.2000E+01
    -11.151  0.0000E+00  0.2000E+01
    -11.061  0.0000E+00  0.2000E+01
    -10.971  0.0000E+00  0.2000E+01
    -10.882  0.0000E+00  0.2000E+01
    -10.792  0.0000E+00  0.2000E+01
    -10.702  0.0000E+00  0.2000E+01
    -10.612  0.0000E+00  0.2000E+01
    -10.522  0.0000E+00  0.2000E+01
    -10.432  0.0000E+00  0.2000E+01
    -10.342  0.0000E+00  0.2000E+01
    -10.252  0.0000E+00  0.2000E+01
    -10.162  0.0000E+00  0.2000E+01
    -10.072  0.0000E+00  0.2000E+01
     -9.982  0.0000E+00  0.2000E+01
     -9.892  0.0000E+00  0.2000E+01
     -9.802  0.0000E+00  0.2000E+01
     -9.712  0.0000E+00  0.2000E+01
     -9.622  0.0000E+00  0.2000E+01
     -9.532  0.0000E+00  0.2000E+01
     -9.442  0.0000E+00  0.2000E+01
     -9.352  0.3948E-11  0.2000E+01
     -9.262  0.1580E-04  0.2000E+01
     -9.172  0.1284E+00  0.2012E+01
     -9.082  0.3813E+01  0.2355E+01
     -8.993  0.3344E+01  0.2655E+01
     -8.903  0.2565E+02  0.4962E+01
     -8.813  0.9275E+01  0.5797E+01
     -8.723  0.2159E+02  0.7739E+01
     -8.633  0.1168E+02  0.8789E+01
     -8.543  0.5175E+02  0.1344E+02
     -8.453  0.1658E+02  0.1494E+02
     -8.363  0.2230E+02  0.1694E+02
     -8.273  0.8863E+01  0.1774E+02
     -8.183  0.2419E+02  0.1991E+02
     -8.093  0.1653E+02  0.2140E+02
     -8.003  0.2553E+02  0.2370E+02
     -7.913  0.6968E+02  0.2997E+02
     -7.823  0.2807E+02  0.3249E+02
     -7.733  0.1087E+00  0.3250E+02
     -7.643  0.1137E+02  0.3352E+02
     -7.553  0.1040E+03  0.4288E+02
     -7.463  0.2361E+02  0.4500E+02
     -7.373  0.2589E+02  0.4733E+02
     -7.283  0.1097E+02  0.4832E+02
     -7.194  0.2893E+02  0.5092E+02
     -7.104  0.3704E+02  0.5425E+02
     -7.014  0.3309E+02  0.5723E+02
     -6.924  0.8854E+02  0.6519E+02
     -6.834  0.4428E+02  0.6918E+02
     -6.744  0.4787E+02  0.7348E+02
     -6.654  0.2677E+02  0.7589E+02
     -6.564  0.1048E+03  0.8532E+02
     -6.474  0.2830E+02  0.8787E+02
     -6.384  0.2295E+02  0.8993E+02
     -6.294  0.9994E+00  0.9002E+02
     -6.204  0.4834E+01  0.9045E+02
     -6.114  0.6851E+02  0.9662E+02
     -6.024  0.9824E+02  0.1055E+03
     -5.934  0.9802E+02  0.1143E+03
     -5.844  0.3776E+02  0.1177E+03
     -5.754  0.3739E+02  0.1210E+03
     -5.664  0.4737E+02  0.1253E+03
     -5.574  0.1204E+03  0.1361E+03
     -5.484  0.3445E+02  0.1392E+03
     -5.394  0.2452E+02  0.1414E+03
     -5.305  0.3865E+02  0.1449E+03
     -5.215  0.6183E+02  0.1505E+03
     -5.125  0.5199E+02  0.1551E+03
     -5.035  0.8240E+02  0.1626E+03
     -4.945  0.8261E+02  0.1700E+03
     -4.855  0.2266E+02  0.1720E+03
     -4.765  0.3284E+02  0.1750E+03
     -4.675  0.8592E+02  0.1827E+03
     -4.585  0.1524E+03  0.1964E+03
     -4.495  0.4575E+02  0.2005E+03
     -4.405  0.5560E+02  0.2055E+03
     -4.315  0.3254E+02  0.2085E+03
     -4.225  0.7307E+02  0.2150E+03
     -4.135  0.1355E+03  0.2272E+03
     -4.045  0.1024E+03  0.2364E+03
     -3.955  0.7849E+02  0.2435E+03
     -3.865  0.2469E+02  0.2457E+03
     -3.775  0.9182E+02  0.2540E+03
     -3.685  0.6548E+02  0.2599E+03
     -3.595  0.8558E+02  0.2675E+03
     -3.505  0.5443E+02  0.2724E+03
     -3.416  0.5148E+02  0.2771E+03
     -3.326  0.5555E+01  0.2776E+03
     -3.236  0.3915E+02  0.2811E+03
     -3.146  0.9528E+02  0.2897E+03
     -3.056  0.8750E+02  0.2975E+03
     -2.966  0.1069E+03  0.3072E+03
     -2.876  0.8580E+02  0.3149E+03
     -2.786  0.1578E+03  0.3291E+03
     -2.696  0.1850E+03  0.3457E+03
     -2.606  0.4206E+02  0.3495E+03
     -2.516  0.3346E+00  0.3495E+03
     -2.426  0.2042E+02  0.3514E+03
     -2.336  0.7128E+02  0.3578E+03
     -2.246  0.1372E+03  0.3701E+03
     -2.156  0.7258E+02  0.3766E+03
     -2.066  0.9972E+02  0.3856E+03
     -1.976  0.4570E+02  0.3897E+03
     -1.886  0.7002E+02  0.3960E+03
     -1.796  0.1074E+03  0.4057E+03
     -1.706  0.1608E+03  0.4201E+03
     -1.616  0.2907E+02  0.4228E+03
     -1.527  0.6672E+02  0.4288E+03
     -1.437  0.8106E+02  0.4361E+03
     -1.347  0.7314E+02  0.4426E+03
     -1.257  0.1930E+03  0.4600E+03
     -1.167  0.8920E+02  0.4680E+03
     -1.077  0.9535E+02  0.4766E+03
     -0.987  0.7108E+02  0.4830E+03
     -0.897  0.7313E+02  0.4896E+03
     -0.807  0.1511E+03  0.5032E+03
     -0.717  0.7590E+02  0.5100E+03
     -0.627  0.6284E+02  0.5156E+03
     -0.537  0.3174E+02  0.5185E+03
     -0.447  0.1105E+03  0.5284E+03
     -0.357  0.2211E+03  0.5483E+03
     -0.267  0.6745E+02  0.5544E+03
     -0.177  0.1571E+03  0.5685E+03
     -0.087  0.4941E+02  0.5730E+03
      0.003  0.3121E+02  0.5758E+03
      0.093  0.9780E+02  0.5846E+03
      0.183  0.7950E+02  0.5917E+03
      0.272  0.1011E+03  0.6008E+03
      0.362  0.7910E+02  0.6079E+03
      0.452  0.7143E+02  0.6144E+03
      0.542  0.1605E+03  0.6288E+03
      0.632  0.6940E+02  0.6350E+03
      0.722  0.6315E+02  0.6407E+03
      0.812  0.3106E+02  0.6435E+03
      0.902  0.6623E+02  0.6495E+03
      0.992  0.1958E+03  0.6671E+03
      1.082  0.2135E+03  0.6863E+03
      1.172  0.1100E+03  0.6962E+03
      1.262  0.7865E+02  0.7032E+03
      1.352  0.6306E+02  0.7089E+03
      1.442  0.8281E+02  0.7164E+03
      1.532  0.9972E+02  0.7253E+03
      1.622  0.1517E+03  0.7390E+03
      1.712  0.1921E+03  0.7563E+03
      1.802  0.1018E+03  0.7654E+03
      1.892  0.2674E+02  0.7678E+03
      1.982  0.1107E+03  0.7778E+03
      2.072  0.1691E+03  0.7930E+03
      2.161  0.7026E+02  0.7993E+03
      2.251  0.8299E+02  0.8068E+03
      2.341  0.5311E+02  0.8116E+03
      2.431  0.1226E+03  0.8226E+03
      2.521  0.1171E+03  0.8331E+03
      2.611  0.1023E+03  0.8423E+03
      2.701  0.1368E+03  0.8546E+03
      2.791  0.6566E+02  0.8605E+03
      2.881  0.7527E+02  0.8673E+03
      2.971  0.2982E+03  0.8941E+03
      3.061  0.2176E+03  0.9137E+03
      3.151  0.6132E+02  0.9192E+03
      3.241  0.6834E+02  0.9254E+03
      3.331  0.1096E+03  0.9352E+03
      3.421  0.1339E+03  0.9473E+03
      3.511  0.1498E+03  0.9607E+03
      3.601  0.7805E+02  0.9678E+03
      3.691  0.9656E+02  0.9764E+03
      3.781  0.9731E+02  0.9852E+03
      3.871  0.6578E+02  0.9911E+03
      3.961  0.1458E+03  0.1004E+04
      4.050  0.1730E+03  0.1020E+04
      4.140  0.1076E+03  0.1029E+04
      4.230  0.2745E+02  0.1032E+04
      4.320  0.6850E+00  0.1032E+04
      4.410  0.1503E-03  0.1032E+04
      4.500  0.8380E-10  0.1032E+04
      4.590  0.0000E+00  0.1032E+04
      4.680  0.0000E+00  0.1032E+04
      4.770  0.0000E+00  0.1032E+04
      4.860  0.0000E+00  0.1032E+04
      4.950  0.0000E+00  0.1032E+04
      5.040  0.0000E+00  0.1032E+04
      5.130  0.0000E+00  0.1032E+04
      5.220  0.0000E+00  0.1032E+04
      5.310  0.0000E+00  0.1032E+04
      5.400  0.0000E+00  0.1032E+04
