       N       E                     dE             d eps       ncg     rms          rms(c)
DAV:   1     0.212887336499E+04    0.21289E+04   -0.18394E+05  3120   0.734E+02
DAV:   2    -0.745405871649E+03   -0.28743E+04   -0.27096E+04  4224   0.192E+02
DAV:   3    -0.954791021010E+03   -0.20939E+03   -0.20111E+03  4464   0.402E+01
DAV:   4    -0.962250838499E+03   -0.74598E+01   -0.72931E+01  4392   0.797E+00
DAV:   5    -0.962657945771E+03   -0.40711E+00   -0.40575E+00  5028   0.196E+00    0.186E+01
DAV:   6    -0.977840460956E+03   -0.15183E+02   -0.18932E+02  4464   0.161E+01    0.186E+01
DAV:   7    -0.937430431975E+03    0.40410E+02   -0.13178E+02  3984   0.151E+01    0.961E+00
DAV:   8    -0.937148287396E+03    0.28214E+00   -0.45793E+01  3828   0.547E+00    0.459E+00
DAV:   9    -0.935108879015E+03    0.20394E+01   -0.51295E+00  3648   0.240E+00    0.118E+00
DAV:  10    -0.935525848495E+03   -0.41697E+00   -0.75130E-01  4524   0.196E+00    0.179E+00
DAV:  11    -0.934973047043E+03    0.55280E+00   -0.44199E-01  4344   0.165E+00    0.598E-01
DAV:  12    -0.934938146368E+03    0.34901E-01   -0.20253E-01  3768   0.498E-01    0.406E-01
DAV:  13    -0.934915830094E+03    0.22316E-01   -0.55463E-02  4080   0.256E-01    0.198E-01
DAV:  14    -0.934915198506E+03    0.63159E-03   -0.24011E-02  3816   0.163E-01    0.142E-01
DAV:  15    -0.934920150278E+03   -0.49518E-02   -0.68095E-03  3888   0.998E-02    0.110E-01
DAV:  16    -0.934928542062E+03   -0.83918E-02   -0.39805E-03  3660   0.674E-02    0.628E-02
DAV:  17    -0.934934886531E+03   -0.63445E-02   -0.15446E-03  3744   0.399E-02    0.323E-02
DAV:  18    -0.934936856014E+03   -0.19695E-02   -0.36057E-04  3624   0.190E-02    0.190E-02
DAV:  19    -0.934938493509E+03   -0.16375E-02   -0.28271E-04  3540   0.140E-02    0.127E-02
DAV:  20    -0.934938968960E+03   -0.47545E-03   -0.15976E-04  3420   0.103E-02    0.946E-03
DAV:  21    -0.934940211343E+03   -0.12424E-02   -0.79759E-05  3252   0.779E-03    0.684E-03
DAV:  22    -0.934941110072E+03   -0.89873E-03   -0.43548E-05  3060   0.498E-03    0.580E-03
DAV:  23    -0.934942097866E+03   -0.98779E-03   -0.95352E-05  3024   0.539E-03    0.213E-03
DAV:  24    -0.934942327512E+03   -0.22965E-03   -0.14380E-05  2868   0.256E-03    0.140E-03
DAV:  25    -0.934942414962E+03   -0.87450E-04   -0.43266E-06  2424   0.164E-03    0.800E-04
DAV:  26    -0.934942438031E+03   -0.23069E-04   -0.98914E-07  2280   0.900E-04    0.660E-04
DAV:  27    -0.934942445595E+03   -0.75642E-05   -0.39324E-07  2028   0.613E-04    0.582E-04
DAV:  28    -0.934942447429E+03   -0.18337E-05   -0.11273E-07  1860   0.415E-04
   1 F= -.93494245E+03 E0= -.93491462E+03  d E =-.556628E-01
