 vasp.5.4.4.18Apr17-6-g9f103f2a35 (build May 02 2017 15:33:50) complex          
  
 executed on Intel-16.0.3.210-OMP date 2018.08.08  19:52:16
 running on    6 total cores
 distrk:  each k-point on    6 cores,    1 groups
 distr:  one band on NCORES_PER_BAND=   1 cores,    6 groups


--------------------------------------------------------------------------------------------------------


 INCAR:
 POTCAR:    PAW Al_GW 19Mar2012                   
 POTCAR:    PAW_PBE N 08Apr2002                   

 ----------------------------------------------------------------------------- 
|                                                                             |
|           W    W    AA    RRRRR   N    N  II  N    N   GGGG   !!!           |
|           W    W   A  A   R    R  NN   N  II  NN   N  G    G  !!!           |
|           W    W  A    A  R    R  N N  N  II  N N  N  G       !!!           |
|           W WW W  AAAAAA  RRRRR   N  N N  II  N  N N  G  GGG   !            |
|           WW  WW  A    A  R   R   N   NN  II  N   NN  G    G                |
|           W    W  A    A  R    R  N    N  II  N    N   GGGG   !!!           |
|                                                                             |
|      For optimal performance we recommend to set                            |
|        NCORE= 4 - approx SQRT( number of cores)                             |
|      NCORE specifies how many cores store one orbital (NPAR=cpu/NCORE).     |
|      This setting can  greatly improve the performance of VASP for DFT.     |
|      The default,   NCORE=1            might be grossly inefficient         |
|      on modern multi-core architectures or massively parallel machines.     |
|      Do your own testing !!!!                                               |
|      Unfortunately you need to use the default for GW and RPA calculations. |
|      (for HF NCORE is supported but not extensively tested yet)             |
|                                                                             |
 ----------------------------------------------------------------------------- 

 POTCAR:    PAW Al_GW 19Mar2012                   
   VRHFIN =Al: s2p1                                                             
   LEXCH  = PE                                                                  
   EATOM  =    53.5387 eV,    3.9350 Ry                                         
                                                                                
   TITEL  = PAW Al_GW 19Mar2012                                                 
   LULTRA =        F    use ultrasoft PP ?                                      
   IUNSCR =        1    unscreen: 0-lin 1-nonlin 2-no                           
   RPACOR =    1.500    partial core radius                                     
   POMASS =   26.982; ZVAL   =    3.000    mass and valenz                      
   RCORE  =    2.000    outmost cutoff radius                                   
   RWIGS  =    2.000; RWIGS  =    1.058    wigner-seitz radius (au A)           
   ENMAX  =  240.300; ENMIN  =  180.225 eV                                      
   ICORE  =        3    local potential                                         
   LCOR   =        T    correct aug charges                                     
   LPAW   =        T    paw PP                                                  
   EAUG   =  482.059                                                            
   DEXC   =    0.000                                                            
   RMAX   =    2.051    core radius for proj-oper                               
   RAUG   =    1.300    factor for augmentation sphere                          
   RDEP   =    2.096    radius for radial grids                                 
   RDEPT  =    1.856    core radius for aug-charge                              
                                                                                
   Atomic configuration                                                         
    7 entries                                                                   
     n  l   j            E        occ.                                          
     1  0  0.50     -1511.1048   2.0000                                         
     2  0  0.50      -108.1629   2.0000                                         
     2  1  1.50       -69.6402   6.0000                                         
     3  0  0.50        -7.7528   2.0000                                         
     3  1  1.50        -2.7121   1.0000                                         
     3  2  2.50        -2.7212   0.0000                                         
     4  3  2.50        -2.7212   0.0000                                         
   Description                                                                  
     l       E           TYP  RCUT    TYP  RCUT                                 
     0     -7.7528455     23  1.900                                             
     0     68.0291300     23  1.900                                             
     1     -2.7120682     23  1.900                                             
     1     68.0291300     23  1.900                                             
     2     -1.3605826     23  1.900                                             
     2     81.6349560     23  1.900                                             
     3     74.8320430     23  2.000                                             
  local pseudopotential read in
  partial core-charges read in
  partial kinetic energy density read in
  kinetic energy density of atom read in
  atomic valenz-charges read in
  non local Contribution for L=           0  read in
    real space projection operators read in
  non local Contribution for L=           0  read in
    real space projection operators read in
  non local Contribution for L=           1  read in
    real space projection operators read in
  non local Contribution for L=           1  read in
    real space projection operators read in
  non local Contribution for L=           2  read in
    real space projection operators read in
  non local Contribution for L=           2  read in
    real space projection operators read in
    PAW grid and wavefunctions read in
 
   number of l-projection  operators is LMAX  =           6
   number of lm-projection operators is LMMAX =          18
 
 POTCAR:    PAW_PBE N 08Apr2002                   
   VRHFIN =N: s2p3                                                              
   LEXCH  = PE                                                                  
   EATOM  =   264.5486 eV,   19.4438 Ry                                         
                                                                                
   TITEL  = PAW_PBE N 08Apr2002                                                 
   LULTRA =        F    use ultrasoft PP ?                                      
   IUNSCR =        1    unscreen: 0-lin 1-nonlin 2-no                           
   RPACOR =    1.200    partial core radius                                     
   POMASS =   14.001; ZVAL   =    5.000    mass and valenz                      
   RCORE  =    1.500    outmost cutoff radius                                   
   RWIGS  =    1.400; RWIGS  =    0.741    wigner-seitz radius (au A)           
   ENMAX  =  400.000; ENMIN  =  300.000 eV                                      
   ICORE  =        2    local potential                                         
   LCOR   =        T    correct aug charges                                     
   LPAW   =        T    paw PP                                                  
   EAUG   =  627.112                                                            
   DEXC   =    0.000                                                            
   RMAX   =    1.529    core radius for proj-oper                               
   RAUG   =    1.300    factor for augmentation sphere                          
   RDEP   =    1.514    radius for radial grids                                 
   RDEPT  =    1.338    core radius for aug-charge                              
                                                                                
   Atomic configuration                                                         
    4 entries                                                                   
     n  l   j            E        occ.                                          
     1  0  0.50      -384.7179   2.0000                                         
     2  0  0.50       -18.5828   2.0000                                         
     2  1  0.50        -7.0898   3.0000                                         
     3  2  1.50        -6.8029   0.0000                                         
   Description                                                                  
     l       E           TYP  RCUT    TYP  RCUT                                 
     0    -18.5828119     23  1.200                                             
     0    -13.5018863     23  1.200                                             
     1     -7.0897853     23  1.500                                             
     1      9.5240782     23  1.500                                             
     2     -6.8029130      7  1.500                                             
  local pseudopotential read in
  partial core-charges read in
  partial kinetic energy density read in
  atomic valenz-charges read in
  non local Contribution for L=           0  read in
    real space projection operators read in
  non local Contribution for L=           0  read in
    real space projection operators read in
  non local Contribution for L=           1  read in
    real space projection operators read in
  non local Contribution for L=           1  read in
    real space projection operators read in
    PAW grid and wavefunctions read in
 
   number of l-projection  operators is LMAX  =           4
   number of lm-projection operators is LMMAX =           8
 
 Optimization of the real space projectors (new method)

 maximal supplied QI-value         = 18.90
 optimisation between [QCUT,QGAM] = [  8.69, 17.57] = [ 21.16, 86.49] Ry 
 Optimized for a Real-space Cutoff    1.59 Angstroem

   l    n(q)    QCUT    max X(q) W(low)/X(q) W(high)/X(q)  e(spline) 
   0      8     8.693    11.519    0.12E-03    0.31E-04    0.21E-06
   0      8     8.693     5.834    0.89E-04    0.32E-04    0.16E-06
   1      8     8.693    10.132    0.25E-03    0.39E-03    0.25E-06
   1      8     8.693     3.004    0.16E-03    0.27E-03    0.22E-06
   2      7     8.693     3.169    0.39E-03    0.93E-03    0.44E-06
   2      7     8.693     1.605    0.70E-04    0.91E-04    0.19E-06
 Optimization of the real space projectors (new method)

 maximal supplied QI-value         = 25.13
 optimisation between [QCUT,QGAM] = [  8.80, 17.59] = [ 21.67, 86.68] Ry 
 Optimized for a Real-space Cutoff    2.14 Angstroem

   l    n(q)    QCUT    max X(q) W(low)/X(q) W(high)/X(q)  e(spline) 
   0     11     8.797    79.467    0.70E-04    0.19E-04    0.19E-05
   0     11     8.797    66.151    0.68E-04    0.18E-04    0.19E-05
   1     11     8.797     6.738    0.26E-03    0.11E-02    0.73E-05
   1     11     8.797     5.013    0.25E-03    0.11E-02    0.72E-05
  PAW Al_GW 19Mar2012                   :
 energy of atom  1       EATOM=  -53.5387
 kinetic energy error for atom=    0.0011 (will be added to EATOM!!)
  PAW_PBE N 08Apr2002                   :
 energy of atom  2       EATOM= -264.5486
 kinetic energy error for atom=    0.6882 (will be added to EATOM!!)
 
 
 POSCAR: New structure                           
  positions in cartesian coordinates
  No initial velocities read in
 exchange correlation table for  LEXCH =        8
   RHO(1)=    0.500       N(1)  =     2000
   RHO(2)=  100.500       N(2)  =     4000
 


--------------------------------------------------------------------------------------------------------


 ion  position               nearest neighbor table
   1  0.444  0.444  0.079-
   2  0.444  0.778  0.079-
   3  0.444  0.111  0.079-
   4  0.778  0.444  0.079-
   5  0.778  0.778  0.079-
   6  0.778  0.111  0.079-
   7  0.111  0.444  0.079-
   8  0.111  0.778  0.079-
   9  0.111  0.111  0.079-
  10  0.556  0.556  0.157-
  11  0.556  0.889  0.157-
  12  0.556  0.222  0.157-
  13  0.889  0.556  0.157-
  14  0.889  0.889  0.157-
  15  0.889  0.222  0.157-
  16  0.222  0.556  0.157-
  17  0.222  0.889  0.157-
  18  0.222  0.222  0.157-
  19  0.667  0.667  0.234-
  20  0.667  0.000  0.234-
  21  0.667  0.333  0.234-
  22  0.000  0.667  0.234-
  23  0.000  0.000  0.234-
  24  0.000  0.333  0.234-
  25  0.333  0.667  0.234-
  26  0.333  0.000  0.234-
  27  0.333  0.333  0.234-
  28  0.778  0.778  0.312-
  29  0.778  0.111  0.312-
  30  0.778  0.444  0.312-
  31  0.111  0.778  0.312-
  32  0.111  0.111  0.312-
  33  0.111  0.444  0.312-
  34  0.444  0.778  0.312-
  35  0.444  0.111  0.312-
  36  0.444  0.444  0.312-
  37  0.889  0.889  0.390-
  38  0.889  0.222  0.390-
  39  0.889  0.556  0.390-
  40  0.222  0.889  0.390-
  41  0.222  0.222  0.390-
  42  0.222  0.556  0.390-
  43  0.556  0.889  0.390-
  44  0.556  0.222  0.390-
  45  0.556  0.556  0.390-
  46  0.000  0.000  0.466-
  47  0.000  0.333  0.466-
  48  0.000  0.667  0.466-
  49  0.333  0.000  0.466-
  50  0.333  0.333  0.466-
  51  0.333  0.667  0.466-
  52  0.667  0.000  0.466-
  53  0.667  0.333  0.466-
  54  0.667  0.667  0.466-
  55  0.111  0.111  0.545-
  56  0.111  0.444  0.545-
  57  0.111  0.778  0.545-
  58  0.444  0.111  0.545-
  59  0.444  0.444  0.545-
  60  0.444  0.778  0.545-
  61  0.778  0.111  0.545-
  62  0.778  0.444  0.545-
  63  0.778  0.778  0.545-
  64  0.278  0.278  0.079-
  65  0.278  0.611  0.079-
  66  0.278  0.944  0.079-
  67  0.611  0.278  0.079-
  68  0.611  0.611  0.079-
  69  0.611  0.944  0.079-
  70  0.944  0.278  0.079-
  71  0.944  0.611  0.079-
  72  0.944  0.944  0.079-
  73  0.389  0.389  0.157-
  74  0.389  0.722  0.157-
  75  0.389  0.056  0.157-
  76  0.722  0.389  0.157-
  77  0.722  0.722  0.157-
  78  0.722  0.056  0.157-
  79  0.056  0.389  0.157-
  80  0.056  0.722  0.157-
  81  0.056  0.056  0.157-
  82  0.500  0.500  0.234-
  83  0.500  0.833  0.234-
  84  0.500  0.167  0.234-
  85  0.833  0.500  0.234-
  86  0.833  0.833  0.234-
  87  0.833  0.167  0.234-
  88  0.167  0.500  0.234-
  89  0.167  0.833  0.234-
  90  0.167  0.167  0.234-
  91  0.611  0.611  0.312-
  92  0.611  0.944  0.312-
  93  0.611  0.278  0.312-
  94  0.944  0.611  0.312-
  95  0.944  0.944  0.312-
  96  0.944  0.278  0.312-
  97  0.278  0.611  0.312-
  98  0.278  0.944  0.312-
  99  0.278  0.278  0.312-
 100  0.722  0.722  0.390-
 101  0.722  0.056  0.390-
 102  0.722  0.389  0.390-
 103  0.056  0.722  0.390-
 104  0.056  0.056  0.390-
 105  0.056  0.389  0.390-
 106  0.389  0.722  0.390-
 107  0.389  0.056  0.390-
 108  0.389  0.389  0.390-
 109  0.833  0.833  0.466-
 110  0.833  0.167  0.466-
 111  0.833  0.500  0.466-
 112  0.167  0.833  0.466-
 113  0.167  0.167  0.466-
 114  0.167  0.500  0.466-
 115  0.500  0.833  0.466-
 116  0.500  0.167  0.466-
 117  0.500  0.500  0.466-
 118  0.944  0.944  0.545-
 119  0.944  0.278  0.545-
 120  0.944  0.611  0.545-
 121  0.278  0.944  0.545-
 122  0.278  0.278  0.545-
 123  0.278  0.611  0.545-
 124  0.611  0.944  0.545-
 125  0.611  0.278  0.545-
 126  0.611  0.611  0.545-
 127  0.278  0.444  0.079-
 128  0.278  0.778  0.079-
 129  0.278  0.111  0.079-
 130  0.611  0.444  0.079-
 131  0.611  0.778  0.079-
 132  0.611  0.111  0.079-
 133  0.944  0.444  0.079-
 134  0.944  0.778  0.079-
 135  0.944  0.111  0.079-
 136  0.389  0.556  0.157-
 137  0.389  0.889  0.157-
 138  0.389  0.222  0.157-
 139  0.722  0.556  0.157-
 140  0.722  0.889  0.157-
 141  0.722  0.222  0.157-
 142  0.056  0.556  0.157-
 143  0.056  0.889  0.157-
 144  0.056  0.222  0.157-
 145  0.500  0.667  0.234-
 146  0.500  0.000  0.234-
 147  0.500  0.333  0.234-
 148  0.833  0.667  0.234-
 149  0.833  0.000  0.234-
 150  0.833  0.333  0.234-
 151  0.167  0.667  0.234-
 152  0.167  0.000  0.234-
 153  0.167  0.333  0.234-
 154  0.611  0.778  0.312-
 155  0.611  0.111  0.312-
 156  0.611  0.444  0.312-
 157  0.944  0.778  0.312-
 158  0.944  0.111  0.312-
 159  0.944  0.444  0.312-
 160  0.278  0.778  0.312-
 161  0.278  0.111  0.312-
 162  0.278  0.444  0.312-
 163  0.722  0.889  0.390-
 164  0.722  0.222  0.390-
 165  0.722  0.556  0.390-
 166  0.056  0.889  0.390-
 167  0.056  0.222  0.390-
 168  0.056  0.556  0.390-
 169  0.389  0.889  0.390-
 170  0.389  0.222  0.390-
 171  0.389  0.556  0.390-
 172  0.833  0.000  0.466-
 173  0.833  0.333  0.466-
 174  0.833  0.667  0.466-
 175  0.167  0.000  0.466-
 176  0.167  0.333  0.466-
 177  0.167  0.667  0.466-
 178  0.500  0.000  0.466-
 179  0.500  0.333  0.466-
 180  0.500  0.667  0.466-
 181  0.944  0.111  0.545-
 182  0.944  0.444  0.545-
 183  0.944  0.778  0.545-
 184  0.278  0.111  0.545-
 185  0.278  0.444  0.545-
 186  0.278  0.778  0.545-
 187  0.611  0.111  0.545-
 188  0.611  0.444  0.545-
 189  0.611  0.778  0.545-
 190  0.444  0.278  0.079-
 191  0.444  0.611  0.079-
 192  0.444  0.944  0.079-
 193  0.778  0.278  0.079-
 194  0.778  0.611  0.079-
 195  0.778  0.944  0.079-
 196  0.111  0.278  0.079-
 197  0.111  0.611  0.079-
 198  0.111  0.944  0.079-
 199  0.556  0.389  0.157-
 200  0.556  0.722  0.157-
 201  0.556  0.056  0.157-
 202  0.889  0.389  0.157-
 203  0.889  0.722  0.157-
 204  0.889  0.056  0.157-
 205  0.222  0.389  0.157-
 206  0.222  0.722  0.157-
 207  0.222  0.056  0.157-
 208  0.667  0.500  0.234-
 209  0.667  0.833  0.234-
 210  0.667  0.167  0.234-
 211  1.000  0.500  0.234-
 212  1.000  0.833  0.234-
 213  1.000  0.167  0.234-
 214  0.333  0.500  0.234-
 215  0.333  0.833  0.234-
 216  0.333  0.167  0.234-
 217  0.778  0.611  0.312-
 218  0.778  0.944  0.312-
 219  0.778  0.278  0.312-
 220  0.111  0.611  0.312-
 221  0.111  0.944  0.312-
 222  0.111  0.278  0.312-
 223  0.444  0.611  0.312-
 224  0.444  0.944  0.312-
 225  0.444  0.278  0.312-
 226  0.889  0.722  0.390-
 227  0.889  0.056  0.390-
 228  0.889  0.389  0.390-
 229  0.222  0.722  0.390-
 230  0.222  0.056  0.390-
 231  0.222  0.389  0.390-
 232  0.556  0.722  0.390-
 233  0.556  0.056  0.390-
 234  0.556  0.389  0.390-
 235  1.000  0.833  0.466-
 236  1.000  0.167  0.466-
 237  1.000  0.500  0.466-
 238  0.333  0.833  0.466-
 239  0.333  0.167  0.466-
 240  0.333  0.500  0.466-
 241  0.667  0.833  0.466-
 242  0.667  0.167  0.466-
 243  0.667  0.500  0.466-
 244  0.111  0.944  0.545-
 245  0.111  0.278  0.545-
 246  0.111  0.611  0.545-
 247  0.444  0.944  0.545-
 248  0.444  0.278  0.545-
 249  0.444  0.611  0.545-
 250  0.778  0.944  0.545-
 251  0.778  0.278  0.545-
 252  0.778  0.611  0.545-
 253  0.340  0.487  0.701- 254 1.25
 254  0.382  0.402  0.701- 253 1.25
 
  LATTYP: Found a hexagonal cell.
 ALAT       =    17.1805734625
 C/A-ratio  =     1.7461582447
  
  Lattice vectors:
  
 A1 = (   0.0000000000,  -8.5902867312,  14.8788130701)
 A2 = (   0.0000000000,  17.1805734625,   0.0000000000)
 A3 = ( -30.0000000000,   0.0000000000,   0.0000000000)


Analysis of symmetry for initial positions (statically):
=====================================================================
 Subroutine PRICEL returns:
 Original cell was already a primitive cell.
 

 Routine SETGRP: Setting up the symmetry group for a 
 hexagonal supercell.


 Subroutine GETGRP returns: Found  2 space group operations
 (whereof  1 operations were pure point group operations)
 out of a pool of 24 trial point group operations.


The static configuration has the point symmetry C_1 .
 The point group associated with its full space group is C_1h.


Analysis of symmetry for dynamics (positions and initial velocities):
=====================================================================
 Subroutine PRICEL returns:
 Original cell was already a primitive cell.
 

 Routine SETGRP: Setting up the symmetry group for a 
 hexagonal supercell.


 Subroutine GETGRP returns: Found  2 space group operations
 (whereof  1 operations were pure point group operations)
 out of a pool of 24 trial point group operations.


The dynamic configuration has the point symmetry C_1 .
 The point group associated with its full space group is C_1h.


 Subroutine INISYM returns: Found  2 space group operations
 (whereof  1 operations are pure point group operations),
 and found     1 'primitive' translations

 
 
 KPOINTS: Automatic generation                    

Automatic generation of k-mesh.
Space group operators:
 irot       det(A)        alpha          n_x          n_y          n_z        tau_x        tau_y        tau_z
    1     1.000000     0.000000     1.000000     0.000000     0.000000     0.000000     0.000000     0.000000
    2    -1.000000   180.000000     0.000000     1.000000     0.000000    -0.833333     0.000000     0.000000
 
 Subroutine IBZKPT returns following result:
 ===========================================
 
 Found      3 irreducible k-points:
 
 Following reciprocal coordinates:
            Coordinates               Weight
  0.000000  0.000000  0.000000      1.000000
  0.500000  0.000000  0.000000      2.000000
  0.000000  0.500000  0.000000      1.000000
 
 Following cartesian coordinates:
            Coordinates               Weight
  0.000000  0.000000  0.000000      1.000000
  0.000000 -0.029103  0.016802      2.000000
  0.000000  0.000000 -0.033605      1.000000
 


--------------------------------------------------------------------------------------------------------




 Dimension of arrays:
   k-points           NKPTS =      3   k-points in BZ     NKDIM =      3   number of bands    NBANDS=    516
   number of dos      NEDOS =    301   number of ions     NIONS =    254
   non local maximal  LDIM  =      6   non local SUM 2l+1 LMDIM =     18
   total plane-waves  NPLWV = 819200
   max r-space proj   IRMAX =   4449   max aug-charges    IRDMAX=   4357
   dimension x,y,z NGX =    80 NGY =   80 NGZ =  128
   dimension x,y,z NGXF=   160 NGYF=  160 NGZF=  256
   support grid    NGXF=   160 NGYF=  160 NGZF=  256
   ions per type =             252   2
   NGX,Y,Z   is equivalent  to a cutoff of   7.74,  7.74,  7.09 a.u.
   NGXF,Y,Z  is equivalent  to a cutoff of  15.48, 15.48, 14.19 a.u.

 SYSTEM =  NiAl                                    
 POSCAR =  New structure                           

 Startparameter for this run:
   NWRITE =      2    write-flag & timer
   PREC   = normal    normal or accurate (medium, high low for compatibility)
   ISTART =      0    job   : 0-new  1-cont  2-samecut
   ICHARG =      2    charge: 1-file 2-atom 10-const
   ISPIN  =      1    spin polarized calculation?
   LNONCOLLINEAR =      F non collinear calculations
   LSORBIT =      F    spin-orbit coupling
   INIWAV =      1    electr: 0-lowe 1-rand  2-diag
   LASPH  =      F    aspherical Exc in radial PAW
   METAGGA=      F    non-selfconsistent MetaGGA calc.

 Electronic Relaxation 1
   ENCUT  =  300.0 eV  22.05 Ry    4.70 a.u.  24.26 24.26 42.37*2*pi/ulx,y,z
   ENINI  =  300.0     initial cutoff
   ENAUG  =  627.1 eV  augmentation charge cutoff
   NELM   =     60;   NELMIN=  6; NELMDL= -5     # of ELM steps 
   EDIFF  = 0.5E-05   stopping-criterion for ELM
   LREAL  =      T    real-space projection
   NLSPLINE    = F    spline interpolate recip. space projectors
   LCOMPAT=      F    compatible to vasp.4.4
   GGA_COMPAT  = T    GGA compatible to vasp.4.4-vasp.4.6
   LMAXPAW     = -100 max onsite density
   LMAXMIX     =    2 max onsite mixed and CHGCAR
   VOSKOWN=      0    Vosko Wilk Nusair interpolation
   ROPT   =   -0.00050  -0.00050
 Ionic relaxation
   EDIFFG = 0.5E-04   stopping-criterion for IOM
   NSW    =      0    number of steps for IOM
   NBLOCK =      1;   KBLOCK =      1    inner block; outer block 
   IBRION =     -1    ionic relax: 0-MD 1-quasi-New 2-CG
   NFREE  =      0    steps in history (QN), initial steepest desc. (CG)
   ISIF   =      0    stress and relaxation
   IWAVPR =     10    prediction:  0-non 1-charg 2-wave 3-comb
   ISYM   =      2    0-nonsym 1-usesym 2-fastsym
   LCORR  =      T    Harris-Foulkes like correction to forces

   POTIM  = 0.5000    time-step for ionic-motion
   TEIN   =    0.0    initial temperature
   TEBEG  =    0.0;   TEEND  =   0.0 temperature during run
   SMASS  =  -3.00    Nose mass-parameter (am)
   estimated Nose-frequenzy (Omega)   =  0.10E-29 period in steps =****** mass=  -0.675E-26a.u.
   SCALEE = 1.0000    scale energy and forces
   NPACO  =    256;   APACO  = 16.0  distance and # of slots for P.C.
   PSTRESS=    0.0 pullay stress

  Mass of Ions in am
   POMASS =  26.98 14.00
  Ionic Valenz
   ZVAL   =   3.00  5.00
  Atomic Wigner-Seitz radii
   RWIGS  =  -1.00 -1.00
  virtual crystal weights 
   VCA    =   1.00  1.00
   NELECT =     766.0000    total number of electrons
   NUPDOWN=      -1.0000    fix difference up-down

 DOS related values:
   EMIN   =  10.00;   EMAX   =-10.00  energy-range for DOS
   EFERMI =   0.00
   ISMEAR =     0;   SIGMA  =   0.05  broadening in eV -4-tet -1-fermi 0-gaus

 Electronic relaxation 2 (details)
   IALGO  =     38    algorithm
   LDIAG  =      T    sub-space diagonalisation (order eigenvalues)
   LSUBROT=      F    optimize rotation matrix (better conditioning)
   TURBO    =      0    0=normal 1=particle mesh
   IRESTART =      0    0=no restart 2=restart with 2 vectors
   NREBOOT  =      0    no. of reboots
   NMIN     =      0    reboot dimension
   EREF     =   0.00    reference energy to select bands
   IMIX   =      4    mixing-type and parameters
     AMIX     =   0.40;   BMIX     =  1.00
     AMIX_MAG =   1.60;   BMIX_MAG =  1.00
     AMIN     =   0.10
     WC   =   100.;   INIMIX=   1;  MIXPRE=   1;  MAXMIX= -45

 Intra band minimization:
   WEIMIN = 0.0000     energy-eigenvalue tresh-hold
   EBREAK =  0.24E-08  absolut break condition
   DEPER  =   0.30     relativ break condition  

   TIME   =   0.40     timestep for ELM

  volume/ion in A,a.u.               =      30.19       203.75
  Fermi-wavevector in a.u.,A,eV,Ry     =   0.759583  1.435404  7.850108  0.576967
  Thomas-Fermi vector in A             =   1.858410
 
 Write flags
   LWAVE        =      F    write WAVECAR
   LDOWNSAMPLE  =      F    k-point downsampling of WAVECAR
   LCHARG       =      F    write CHGCAR
   LVTOT        =      F    write LOCPOT, total local potential
   LVHAR        =      F    write LOCPOT, Hartree potential only
   LELF         =      F    write electronic localiz. function (ELF)
   LORBIT       =      0    0 simple, 1 ext, 2 COOP (PROOUT), +10 PAW based schemes


 Dipole corrections
   LMONO  =      F    monopole corrections only (constant potential shift)
   LDIPOL =      F    correct potential (dipole corrections)
   IDIPOL =      0    1-x, 2-y, 3-z, 4-all directions 
   EPSILON=  1.0000000 bulk dielectric constant

 Exchange correlation treatment:
   GGA     =    --    GGA type
   LEXCH   =     8    internal setting for exchange type
   VOSKOWN=      0    Vosko Wilk Nusair interpolation
   LHFCALC =     F    Hartree Fock is set to
   LHFONE  =     F    Hartree Fock one center treatment
   AEXX    =    0.0000 exact exchange contribution

 Linear response parameters
   LEPSILON=     F    determine dielectric tensor
   LRPA    =     F    only Hartree local field effects (RPA)
   LNABLA  =     F    use nabla operator in PAW spheres
   LVEL    =     F    velocity operator in full k-point grid
   LINTERFAST=   F  fast interpolation
   KINTER  =     0    interpolate to denser k-point grid
   CSHIFT  =0.1000    complex shift for real part using Kramers Kronig
   OMEGAMAX=  -1.0    maximum frequency
   DEG_THRESHOLD= 0.2000000E-02 threshold for treating states as degnerate
   RTIME   =   -0.100 relaxation time in fs
  (WPLASMAI=    0.000 imaginary part of plasma frequency in eV, 0.658/RTIME)
   DFIELD  = 0.0000000 0.0000000 0.0000000 field for delta impulse in time
 
 Orbital magnetization related:
   ORBITALMAG=     F  switch on orbital magnetization
   LCHIMAG   =     F  perturbation theory with respect to B field
   DQ        =  0.001000  dq finite difference perturbation B field
   LLRAUG    =     F  two centre corrections for induced B field



--------------------------------------------------------------------------------------------------------


 Static calculation
 charge density and potential will be updated during run
 non-spin polarized calculation
 Variant of blocked Davidson
 Davidson routine will perform the subspace rotation
 perform sub-space diagonalisation
    after iterative eigenvector-optimisation
 modified Broyden-mixing scheme, WC =      100.0
 initial mixing is a Kerker type mixing with AMIX =  0.4000 and BMIX =      1.0000
 Hartree-type preconditioning will be used
 using additional bands          133
 real space projection scheme for non local part
 use partial core corrections
 calculate Harris-corrections to forces 
   (improved forces if not selfconsistent)
 use gradient corrections 
 use of overlap-Matrix (Vanderbilt PP)
 Gauss-broadening in eV      SIGMA  =   0.05


--------------------------------------------------------------------------------------------------------


  energy-cutoff  :      300.00
  volume of cell :     7668.80
      direct lattice vectors                 reciprocal lattice vectors
     0.000000000-17.180573462  0.000000000     0.000000000 -0.058205275  0.033604831
     0.000000000 -8.590286731-14.878813070     0.000000000  0.000000000 -0.067209662
    30.000000000  0.000000000  0.000000000     0.033333333  0.000000000  0.000000000

  length of vectors
    17.180573462 17.180573462 30.000000000     0.067209662  0.067209662  0.033333333


 
 k-points in units of 2pi/SCALE and weight: Automatic generation                    
   0.00000000  0.00000000  0.00000000       0.250
   0.00000000 -0.02910264  0.01680242       0.500
   0.00000000  0.00000000 -0.03360483       0.250
 
 k-points in reciprocal lattice and weights: Automatic generation                    
   0.00000000  0.00000000  0.00000000       0.250
   0.50000000  0.00000000  0.00000000       0.500
   0.00000000  0.50000000  0.00000000       0.250
 
 position of ions in fractional coordinates (direct lattice) 
   0.44444456  0.44444473  0.07873467
   0.44444419  0.77777777  0.07873467
   0.44444468  0.11111101  0.07873467
   0.77777744  0.44444473  0.07873467
   0.77777765  0.77777777  0.07873467
   0.77777756  0.11111101  0.07873467
   0.11111110  0.44444473  0.07873467
   0.11111131  0.77777777  0.07873467
   0.11111122  0.11111101  0.07873467
   0.55555520  0.55555574  0.15702600
   0.55555541  0.88888878  0.15702600
   0.55555591  0.22222203  0.15702600
   0.88888866  0.55555574  0.15702600
   0.88888887  0.88888878  0.15702600
   0.88888878  0.22222203  0.15702600
   0.22222232  0.55555574  0.15702600
   0.22222253  0.88888878  0.15702600
   0.22222245  0.22222203  0.15702600
   0.66666642  0.66666675  0.23375733
   0.66666692  0.00000000  0.23375733
   0.66666655  0.33333304  0.23375733
   0.00000008  0.66666675  0.23375733
   0.00000000  0.00000000  0.23375733
   0.00000021  0.33333304  0.23375733
   0.33333354  0.66666675  0.23375733
   0.33333346  0.00000000  0.23375733
   0.33333367  0.33333304  0.23375733
   0.77777765  0.77777777  0.31173067
   0.77777756  0.11111101  0.31173067
   0.77777744  0.44444473  0.31173067
   0.11111131  0.77777777  0.31173067
   0.11111122  0.11111101  0.31173067
   0.11111110  0.44444473  0.31173067
   0.44444419  0.77777777  0.31173067
   0.44444468  0.11111101  0.31173067
   0.44444456  0.44444473  0.31173067
   0.88888887  0.88888878  0.38970400
   0.88888878  0.22222203  0.38970400
   0.88888866  0.55555574  0.38970400
   0.22222253  0.88888878  0.38970400
   0.22222245  0.22222203  0.38970400
   0.22222232  0.55555574  0.38970400
   0.55555541  0.88888878  0.38970400
   0.55555591  0.22222203  0.38970400
   0.55555520  0.55555574  0.38970400
   0.00000000  0.00000000  0.46643533
   0.00000021  0.33333304  0.46643533
   0.00000008  0.66666675  0.46643533
   0.33333346  0.00000000  0.46643533
   0.33333367  0.33333304  0.46643533
   0.33333354  0.66666675  0.46643533
   0.66666692  0.00000000  0.46643533
   0.66666655  0.33333304  0.46643533
   0.66666642  0.66666675  0.46643533
   0.11111122  0.11111101  0.54472667
   0.11111110  0.44444473  0.54472667
   0.11111131  0.77777777  0.54472667
   0.44444468  0.11111101  0.54472667
   0.44444456  0.44444473  0.54472667
   0.44444419  0.77777777  0.54472667
   0.77777756  0.11111101  0.54472667
   0.77777744  0.44444473  0.54472667
   0.77777765  0.77777777  0.54472667
   0.27777777  0.27777753  0.07873467
   0.27777764  0.61111125  0.07873467
   0.27777785  0.94444429  0.07873467
   0.61111123  0.27777753  0.07873467
   0.61111110  0.61111125  0.07873467
   0.61111131  0.94444429  0.07873467
   0.94444469  0.27777753  0.07873467
   0.94444456  0.61111125  0.07873467
   0.94444477  0.94444429  0.07873467
   0.38888865  0.38888922  0.15702600
   0.38888886  0.72222226  0.15702600
   0.38888878  0.05555551  0.15702600
   0.72222211  0.38888922  0.15702600
   0.72222232  0.72222226  0.15702600
   0.72222224  0.05555551  0.15702600
   0.05555519  0.38888922  0.15702600
   0.05555540  0.72222226  0.15702600
   0.05555532  0.05555551  0.15702600
   0.49999988  0.50000023  0.23375733
   0.50000009  0.83333327  0.23375733
   0.50000000  0.16666652  0.23375733
   0.83333334  0.50000023  0.23375733
   0.83333355  0.83333327  0.23375733
   0.83333346  0.16666652  0.23375733
   0.16666642  0.50000023  0.23375733
   0.16666663  0.83333327  0.23375733
   0.16666654  0.16666652  0.23375733
   0.61111110  0.61111125  0.31173067
   0.61111131  0.94444429  0.31173067
   0.61111123  0.27777753  0.31173067
   0.94444456  0.61111125  0.31173067
   0.94444477  0.94444429  0.31173067
   0.94444469  0.27777753  0.31173067
   0.27777764  0.61111125  0.31173067
   0.27777785  0.94444429  0.31173067
   0.27777777  0.27777753  0.31173067
   0.72222232  0.72222226  0.38970400
   0.72222224  0.05555551  0.38970400
   0.72222211  0.38888922  0.38970400
   0.05555540  0.72222226  0.38970400
   0.05555532  0.05555551  0.38970400
   0.05555519  0.38888922  0.38970400
   0.38888886  0.72222226  0.38970400
   0.38888878  0.05555551  0.38970400
   0.38888865  0.38888922  0.38970400
   0.83333355  0.83333327  0.46643533
   0.83333346  0.16666652  0.46643533
   0.83333334  0.50000023  0.46643533
   0.16666663  0.83333327  0.46643533
   0.16666654  0.16666652  0.46643533
   0.16666642  0.50000023  0.46643533
   0.50000009  0.83333327  0.46643533
   0.50000000  0.16666652  0.46643533
   0.49999988  0.50000023  0.46643533
   0.94444477  0.94444429  0.54472667
   0.94444469  0.27777753  0.54472667
   0.94444456  0.61111125  0.54472667
   0.27777785  0.94444429  0.54472667
   0.27777777  0.27777753  0.54472667
   0.27777764  0.61111125  0.54472667
   0.61111131  0.94444429  0.54472667
   0.61111123  0.27777753  0.54472667
   0.61111110  0.61111125  0.54472667
   0.27777783  0.44444473  0.07873467
   0.27777804  0.77777777  0.07873467
   0.27777795  0.11111101  0.07873467
   0.61111071  0.44444473  0.07873467
   0.61111092  0.77777777  0.07873467
   0.61111141  0.11111101  0.07873467
   0.94444417  0.44444473  0.07873467
   0.94444438  0.77777777  0.07873467
   0.94444429  0.11111101  0.07873467
   0.38888905  0.55555574  0.15702600
   0.38888868  0.88888878  0.15702600
   0.38888918  0.22222203  0.15702600
   0.72222193  0.55555574  0.15702600
   0.72222214  0.88888878  0.15702600
   0.72222205  0.22222203  0.15702600
   0.05555559  0.55555574  0.15702600
   0.05555580  0.88888878  0.15702600
   0.05555572  0.22222203  0.15702600
   0.49999969  0.66666675  0.23375733
   0.50000019  0.00000000  0.23375733
   0.50000040  0.33333304  0.23375733
   0.83333315  0.66666675  0.23375733
   0.83333307  0.00000000  0.23375733
   0.83333328  0.33333304  0.23375733
   0.16666681  0.66666675  0.23375733
   0.16666673  0.00000000  0.23375733
   0.16666694  0.33333304  0.23375733
   0.61111092  0.77777777  0.31173067
   0.61111141  0.11111101  0.31173067
   0.61111071  0.44444473  0.31173067
   0.94444438  0.77777777  0.31173067
   0.94444429  0.11111101  0.31173067
   0.94444417  0.44444473  0.31173067
   0.27777804  0.77777777  0.31173067
   0.27777795  0.11111101  0.31173067
   0.27777783  0.44444473  0.31173067
   0.72222214  0.88888878  0.38970400
   0.72222205  0.22222203  0.38970400
   0.72222193  0.55555574  0.38970400
   0.05555580  0.88888878  0.38970400
   0.05555572  0.22222203  0.38970400
   0.05555559  0.55555574  0.38970400
   0.38888868  0.88888878  0.38970400
   0.38888918  0.22222203  0.38970400
   0.38888905  0.55555574  0.38970400
   0.83333307  0.00000000  0.46643533
   0.83333328  0.33333304  0.46643533
   0.83333315  0.66666675  0.46643533
   0.16666673  0.00000000  0.46643533
   0.16666694  0.33333304  0.46643533
   0.16666681  0.66666675  0.46643533
   0.50000019  0.00000000  0.46643533
   0.50000040  0.33333304  0.46643533
   0.49999969  0.66666675  0.46643533
   0.94444429  0.11111101  0.54472667
   0.94444417  0.44444473  0.54472667
   0.94444438  0.77777777  0.54472667
   0.27777795  0.11111101  0.54472667
   0.27777783  0.44444473  0.54472667
   0.27777804  0.77777777  0.54472667
   0.61111141  0.11111101  0.54472667
   0.61111071  0.44444473  0.54472667
   0.61111092  0.77777777  0.54472667
   0.44444450  0.27777753  0.07873467
   0.44444437  0.61111125  0.07873467
   0.44444458  0.94444429  0.07873467
   0.77777796  0.27777753  0.07873467
   0.77777783  0.61111125  0.07873467
   0.77777804  0.94444429  0.07873467
   0.11111104  0.27777753  0.07873467
   0.11111091  0.61111125  0.07873467
   0.11111112  0.94444429  0.07873467
   0.55555538  0.38888922  0.15702600
   0.55555559  0.72222226  0.15702600
   0.55555551  0.05555551  0.15702600
   0.88888884  0.38888922  0.15702600
   0.88888905  0.72222226  0.15702600
   0.88888897  0.05555551  0.15702600
   0.22222192  0.38888922  0.15702600
   0.22222213  0.72222226  0.15702600
   0.22222205  0.05555551  0.15702600
   0.66666661  0.50000023  0.23375733
   0.66666682  0.83333327  0.23375733
   0.66666673  0.16666652  0.23375733
   0.99999969  0.50000023  0.23375733
   0.99999990  0.83333327  0.23375733
   0.99999981  0.16666652  0.23375733
   0.33333315  0.50000023  0.23375733
   0.33333336  0.83333327  0.23375733
   0.33333327  0.16666652  0.23375733
   0.77777783  0.61111125  0.31173067
   0.77777804  0.94444429  0.31173067
   0.77777796  0.27777753  0.31173067
   0.11111091  0.61111125  0.31173067
   0.11111112  0.94444429  0.31173067
   0.11111104  0.27777753  0.31173067
   0.44444437  0.61111125  0.31173067
   0.44444458  0.94444429  0.31173067
   0.44444450  0.27777753  0.31173067
   0.88888905  0.72222226  0.38970400
   0.88888897  0.05555551  0.38970400
   0.88888884  0.38888922  0.38970400
   0.22222213  0.72222226  0.38970400
   0.22222205  0.05555551  0.38970400
   0.22222192  0.38888922  0.38970400
   0.55555559  0.72222226  0.38970400
   0.55555551  0.05555551  0.38970400
   0.55555538  0.38888922  0.38970400
   0.99999990  0.83333327  0.46643533
   0.99999981  0.16666652  0.46643533
   0.99999969  0.50000023  0.46643533
   0.33333336  0.83333327  0.46643533
   0.33333327  0.16666652  0.46643533
   0.33333315  0.50000023  0.46643533
   0.66666682  0.83333327  0.46643533
   0.66666673  0.16666652  0.46643533
   0.66666661  0.50000023  0.46643533
   0.11111112  0.94444429  0.54472667
   0.11111104  0.27777753  0.54472667
   0.11111091  0.61111125  0.54472667
   0.44444458  0.94444429  0.54472667
   0.44444450  0.27777753  0.54472667
   0.44444437  0.61111125  0.54472667
   0.77777804  0.94444429  0.54472667
   0.77777796  0.27777753  0.54472667
   0.77777783  0.61111125  0.54472667
   0.34003429  0.48659795  0.70133333
   0.38217494  0.40231704  0.70133333
 
 position of ions in cartesian coordinates  (Angst):
   2.36204000-11.45372000 -6.61281000
   2.36204000-14.31714000-11.57241000
   2.36204000 -8.59029000 -1.65320000
   2.36204000-17.18057000 -6.61281000
   2.36204000-20.04400000-11.57241000
   2.36204000-14.31714000 -1.65320000
   2.36204000 -5.72686000 -6.61281000
   2.36204000 -8.59029000-11.57241000
   2.36204000 -2.86343000 -1.65320000
   4.71078000-14.31714000 -8.26601000
   4.71078000-17.18057000-13.22561000
   4.71078000-11.45372000 -3.30640000
   4.71078000-20.04400000 -8.26601000
   4.71078000-22.90743000-13.22561000
   4.71078000-17.18057000 -3.30640000
   4.71078000 -8.59029000 -8.26601000
   4.71078000-11.45372000-13.22561000
   4.71078000 -5.72686000 -3.30640000
   7.01272000-17.18057000 -9.91921000
   7.01272000-11.45372000  0.00000000
   7.01272000-14.31714000 -4.95960000
   7.01272000 -5.72686000 -9.91921000
   7.01272000  0.00000000  0.00000000
   7.01272000 -2.86343000 -4.95960000
   7.01272000-11.45372000 -9.91921000
   7.01272000 -5.72686000  0.00000000
   7.01272000 -8.59029000 -4.95960000
   9.35192000-20.04400000-11.57241000
   9.35192000-14.31714000 -1.65320000
   9.35192000-17.18057000 -6.61281000
   9.35192000 -8.59029000-11.57241000
   9.35192000 -2.86343000 -1.65320000
   9.35192000 -5.72686000 -6.61281000
   9.35192000-14.31714000-11.57241000
   9.35192000 -8.59029000 -1.65320000
   9.35192000-11.45372000 -6.61281000
  11.69112000-22.90743000-13.22561000
  11.69112000-17.18057000 -3.30640000
  11.69112000-20.04400000 -8.26601000
  11.69112000-11.45372000-13.22561000
  11.69112000 -5.72686000 -3.30640000
  11.69112000 -8.59029000 -8.26601000
  11.69112000-17.18057000-13.22561000
  11.69112000-11.45372000 -3.30640000
  11.69112000-14.31714000 -8.26601000
  13.99306000  0.00000000  0.00000000
  13.99306000 -2.86343000 -4.95960000
  13.99306000 -5.72686000 -9.91921000
  13.99306000 -5.72686000  0.00000000
  13.99306000 -8.59029000 -4.95960000
  13.99306000-11.45372000 -9.91921000
  13.99306000-11.45372000  0.00000000
  13.99306000-14.31714000 -4.95960000
  13.99306000-17.18057000 -9.91921000
  16.34180000 -2.86343000 -1.65320000
  16.34180000 -5.72686000 -6.61281000
  16.34180000 -8.59029000-11.57241000
  16.34180000 -8.59029000 -1.65320000
  16.34180000-11.45372000 -6.61281000
  16.34180000-14.31714000-11.57241000
  16.34180000-14.31714000 -1.65320000
  16.34180000-17.18057000 -6.61281000
  16.34180000-20.04400000-11.57241000
   2.36204000 -7.15857000 -4.13300000
   2.36204000-10.02200000 -9.09261000
   2.36204000-12.88543000-14.05221000
   2.36204000-12.88543000 -4.13300000
   2.36204000-15.74886000 -9.09261000
   2.36204000-18.61229000-14.05221000
   2.36204000-18.61229000 -4.13300000
   2.36204000-21.47572000 -9.09261000
   2.36204000-24.33915000-14.05221000
   4.71078000-10.02200000 -5.78621000
   4.71078000-12.88543000-10.74581000
   4.71078000 -7.15857000 -0.82660000
   4.71078000-15.74886000 -5.78621000
   4.71078000-18.61229000-10.74581000
   4.71078000-12.88543000 -0.82660000
   4.71078000 -4.29514000 -5.78621000
   4.71078000 -7.15857000-10.74581000
   4.71078000 -1.43171000 -0.82660000
   7.01272000-12.88543000 -7.43941000
   7.01272000-15.74886000-12.39901000
   7.01272000-10.02200000 -2.47980000
   7.01272000-18.61229000 -7.43941000
   7.01272000-21.47572000-12.39901000
   7.01272000-15.74886000 -2.47980000
   7.01272000 -7.15857000 -7.43941000
   7.01272000-10.02200000-12.39901000
   7.01272000 -4.29514000 -2.47980000
   9.35192000-15.74886000 -9.09261000
   9.35192000-18.61229000-14.05221000
   9.35192000-12.88543000 -4.13300000
   9.35192000-21.47572000 -9.09261000
   9.35192000-24.33915000-14.05221000
   9.35192000-18.61229000 -4.13300000
   9.35192000-10.02200000 -9.09261000
   9.35192000-12.88543000-14.05221000
   9.35192000 -7.15857000 -4.13300000
  11.69112000-18.61229000-10.74581000
  11.69112000-12.88543000 -0.82660000
  11.69112000-15.74886000 -5.78621000
  11.69112000 -7.15857000-10.74581000
  11.69112000 -1.43171000 -0.82660000
  11.69112000 -4.29514000 -5.78621000
  11.69112000-12.88543000-10.74581000
  11.69112000 -7.15857000 -0.82660000
  11.69112000-10.02200000 -5.78621000
  13.99306000-21.47572000-12.39901000
  13.99306000-15.74886000 -2.47980000
  13.99306000-18.61229000 -7.43941000
  13.99306000-10.02200000-12.39901000
  13.99306000 -4.29514000 -2.47980000
  13.99306000 -7.15857000 -7.43941000
  13.99306000-15.74886000-12.39901000
  13.99306000-10.02200000 -2.47980000
  13.99306000-12.88543000 -7.43941000
  16.34180000-24.33915000-14.05221000
  16.34180000-18.61229000 -4.13300000
  16.34180000-21.47572000 -9.09261000
  16.34180000-12.88543000-14.05221000
  16.34180000 -7.15857000 -4.13300000
  16.34180000-10.02200000 -9.09261000
  16.34180000-18.61229000-14.05221000
  16.34180000-12.88543000 -4.13300000
  16.34180000-15.74886000 -9.09261000
   2.36204000 -8.59029000 -6.61281000
   2.36204000-11.45372000-11.57241000
   2.36204000 -5.72686000 -1.65320000
   2.36204000-14.31714000 -6.61281000
   2.36204000-17.18057000-11.57241000
   2.36204000-11.45372000 -1.65320000
   2.36204000-20.04400000 -6.61281000
   2.36204000-22.90743000-11.57241000
   2.36204000-17.18057000 -1.65320000
   4.71078000-11.45372000 -8.26601000
   4.71078000-14.31714000-13.22561000
   4.71078000 -8.59029000 -3.30640000
   4.71078000-17.18057000 -8.26601000
   4.71078000-20.04400000-13.22561000
   4.71078000-14.31714000 -3.30640000
   4.71078000 -5.72686000 -8.26601000
   4.71078000 -8.59029000-13.22561000
   4.71078000 -2.86343000 -3.30640000
   7.01272000-14.31714000 -9.91921000
   7.01272000 -8.59029000  0.00000000
   7.01272000-11.45372000 -4.95960000
   7.01272000-20.04400000 -9.91921000
   7.01272000-14.31714000  0.00000000
   7.01272000-17.18057000 -4.95960000
   7.01272000 -8.59029000 -9.91921000
   7.01272000 -2.86343000  0.00000000
   7.01272000 -5.72686000 -4.95960000
   9.35192000-17.18057000-11.57241000
   9.35192000-11.45372000 -1.65320000
   9.35192000-14.31714000 -6.61281000
   9.35192000-22.90743000-11.57241000
   9.35192000-17.18057000 -1.65320000
   9.35192000-20.04400000 -6.61281000
   9.35192000-11.45372000-11.57241000
   9.35192000 -5.72686000 -1.65320000
   9.35192000 -8.59029000 -6.61281000
  11.69112000-20.04400000-13.22561000
  11.69112000-14.31714000 -3.30640000
  11.69112000-17.18057000 -8.26601000
  11.69112000 -8.59029000-13.22561000
  11.69112000 -2.86343000 -3.30640000
  11.69112000 -5.72686000 -8.26601000
  11.69112000-14.31714000-13.22561000
  11.69112000 -8.59029000 -3.30640000
  11.69112000-11.45372000 -8.26601000
  13.99306000-14.31714000  0.00000000
  13.99306000-17.18057000 -4.95960000
  13.99306000-20.04400000 -9.91921000
  13.99306000 -2.86343000  0.00000000
  13.99306000 -5.72686000 -4.95960000
  13.99306000 -8.59029000 -9.91921000
  13.99306000 -8.59029000  0.00000000
  13.99306000-11.45372000 -4.95960000
  13.99306000-14.31714000 -9.91921000
  16.34180000-17.18057000 -1.65320000
  16.34180000-20.04400000 -6.61281000
  16.34180000-22.90743000-11.57241000
  16.34180000 -5.72686000 -1.65320000
  16.34180000 -8.59029000 -6.61281000
  16.34180000-11.45372000-11.57241000
  16.34180000-11.45372000 -1.65320000
  16.34180000-14.31714000 -6.61281000
  16.34180000-17.18057000-11.57241000
   2.36204000-10.02200000 -4.13300000
   2.36204000-12.88543000 -9.09261000
   2.36204000-15.74886000-14.05221000
   2.36204000-15.74886000 -4.13300000
   2.36204000-18.61229000 -9.09261000
   2.36204000-21.47572000-14.05221000
   2.36204000 -4.29514000 -4.13300000
   2.36204000 -7.15857000 -9.09261000
   2.36204000-10.02200000-14.05221000
   4.71078000-12.88543000 -5.78621000
   4.71078000-15.74886000-10.74581000
   4.71078000-10.02200000 -0.82660000
   4.71078000-18.61229000 -5.78621000
   4.71078000-21.47572000-10.74581000
   4.71078000-15.74886000 -0.82660000
   4.71078000 -7.15857000 -5.78621000
   4.71078000-10.02200000-10.74581000
   4.71078000 -4.29514000 -0.82660000
   7.01272000-15.74886000 -7.43941000
   7.01272000-18.61229000-12.39901000
   7.01272000-12.88543000 -2.47980000
   7.01272000-21.47571346 -7.43941000
   7.01272000-24.33914346-12.39901000
   7.01272000-18.61228346 -2.47980000
   7.01272000-10.02200000 -7.43941000
   7.01272000-12.88543000-12.39901000
   7.01272000 -7.15857000 -2.47980000
   9.35192000-18.61229000 -9.09261000
   9.35192000-21.47572000-14.05221000
   9.35192000-15.74886000 -4.13300000
   9.35192000 -7.15857000 -9.09261000
   9.35192000-10.02200000-14.05221000
   9.35192000 -4.29514000 -4.13300000
   9.35192000-12.88543000 -9.09261000
   9.35192000-15.74886000-14.05221000
   9.35192000-10.02200000 -4.13300000
  11.69112000-21.47572000-10.74581000
  11.69112000-15.74886000 -0.82660000
  11.69112000-18.61229000 -5.78621000
  11.69112000-10.02200000-10.74581000
  11.69112000 -4.29514000 -0.82660000
  11.69112000 -7.15857000 -5.78621000
  11.69112000-15.74886000-10.74581000
  11.69112000-10.02200000 -0.82660000
  11.69112000-12.88543000 -5.78621000
  13.99306000-24.33914346-12.39901000
  13.99306000-18.61228346 -2.47980000
  13.99306000-21.47571346 -7.43941000
  13.99306000-12.88543000-12.39901000
  13.99306000 -7.15857000 -2.47980000
  13.99306000-10.02200000 -7.43941000
  13.99306000-18.61229000-12.39901000
  13.99306000-12.88543000 -2.47980000
  13.99306000-15.74886000 -7.43941000
  16.34180000-10.02200000-14.05221000
  16.34180000 -4.29514000 -4.13300000
  16.34180000 -7.15857000 -9.09261000
  16.34180000-15.74886000-14.05221000
  16.34180000-10.02200000 -4.13300000
  16.34180000-12.88543000 -9.09261000
  16.34180000-21.47572000-14.05221000
  16.34180000-15.74886000 -4.13300000
  16.34180000-18.61229000 -9.09261000
  21.04000000-10.02200000 -7.24000000
  21.04000000-10.02200333 -5.98600000
 


--------------------------------------------------------------------------------------------------------


 k-point  1 :   0.0000 0.0000 0.0000  plane waves:   90499
 k-point  2 :   0.5000 0.0000 0.0000  plane waves:   90530
 k-point  3 :   0.0000 0.5000 0.0000  plane waves:   90530

 maximum and minimum number of plane-waves per node :     90530    90499

 maximum number of plane-waves:     90530
 maximum index in each direction: 
   IXMAX=   24   IYMAX=   24   IZMAX=   42
   IXMIN=  -24   IYMIN=  -24   IZMIN=  -42


 serial   3D FFT for wavefunctions
 parallel 3D FFT for charge:
    minimum data exchange during FFTs selected (reduces bandwidth)


 total amount of memory used by VASP MPI-rank0   652132. kBytes
=======================================================================

   base      :      30000. kBytes
   nonlr-proj:      89911. kBytes
   fftplans  :      40601. kBytes
   grid      :      95147. kBytes
   one-center:       3950. kBytes
   wavefun   :     392523. kBytes
 
     INWAV:  cpu time    0.0001: real time    0.0001
 Broyden mixing: mesh for mixing (old mesh)
   NGX = 49   NGY = 49   NGZ = 85
  (NGX  =160   NGY  =160   NGZ  =256)
  gives a total of 204085 points

 initial charge density was supplied:
 charge density of overlapping atoms calculated
 number of electron     766.0000000 magnetization 
 keeping initial charge density in first step


--------------------------------------------------------------------------------------------------------


 Maximum index for non-local projection operator         4273
 Maximum index for augmentation-charges          758 (set IRDMAX)


--------------------------------------------------------------------------------------------------------


 First call to EWALD:  gamma=   0.090
 Maximum number of real-space cells 3x 3x 2
 Maximum number of reciprocal cells 2x 2x 4

    FEWALD:  cpu time    0.0352: real time    0.0352


----------------------------------------- Iteration    1(   1)  ---------------------------------------


    POTLOK:  cpu time    0.8217: real time    0.8421
    SETDIJ:  cpu time    0.1049: real time    0.1076
     EDDAV:  cpu time   18.5791: real time   21.3198
       DOS:  cpu time    0.0014: real time    0.0069
    --------------------------------------------
      LOOP:  cpu time   19.5095: real time   22.2939

 eigenvalue-minimisations  :  3120
 total energy-change (2. order) : 0.2128873E+04  (-0.1839364E+05)
 number of electron     766.0000000 magnetization 
 augmentation part      766.0000000 magnetization 

 Free energy of the ion-electron system (eV)
  ---------------------------------------------------
  alpha Z        PSCENC =       505.22967617
  Ewald energy   TEWEN  =     86016.56153888
  -Hartree energ DENC   =   -100092.49703713
  -exchange      EXHF   =         0.00000000
  -V(xc)+E(xc)   XCENC  =     -6606.61130405
  PAW double counting   =     17092.30507181    -9042.14386232
  entropy T*S    EENTRO =        -0.06983423
  eigenvalues    EBANDS =       236.89714011
  atomic energy  EATOM  =     14019.20197576
  Solvation  Ediel_sol  =         0.00000000
  ---------------------------------------------------
  free energy    TOTEN  =      2128.87336499 eV

  energy without entropy =     2128.94319922  energy(sigma->0) =     2128.90828211


--------------------------------------------------------------------------------------------------------




----------------------------------------- Iteration    1(   2)  ---------------------------------------


     EDDAV:  cpu time   23.3967: real time   26.6094
       DOS:  cpu time    0.0021: real time    0.0021
    --------------------------------------------
      LOOP:  cpu time   23.4002: real time   26.6200

 eigenvalue-minimisations  :  4224
 total energy-change (2. order) :-0.2874279E+04  (-0.2709630E+04)
 number of electron     766.0000000 magnetization 
 augmentation part      766.0000000 magnetization 

 Free energy of the ion-electron system (eV)
  ---------------------------------------------------
  alpha Z        PSCENC =       505.22967617
  Ewald energy   TEWEN  =     86016.56153888
  -Hartree energ DENC   =   -100092.49703713
  -exchange      EXHF   =         0.00000000
  -V(xc)+E(xc)   XCENC  =     -6606.61130405
  PAW double counting   =     17092.30507181    -9042.14386232
  entropy T*S    EENTRO =        -0.09739030
  eigenvalues    EBANDS =     -2637.35454046
  atomic energy  EATOM  =     14019.20197576
  Solvation  Ediel_sol  =         0.00000000
  ---------------------------------------------------
  free energy    TOTEN  =      -745.40587165 eV

  energy without entropy =     -745.30848135  energy(sigma->0) =     -745.35717650


--------------------------------------------------------------------------------------------------------




----------------------------------------- Iteration    1(   3)  ---------------------------------------


     EDDAV:  cpu time   24.3398: real time   27.6343
       DOS:  cpu time    0.0026: real time    0.0026
    --------------------------------------------
      LOOP:  cpu time   24.3437: real time   27.6489

 eigenvalue-minimisations  :  4464
 total energy-change (2. order) :-0.2093851E+03  (-0.2011133E+03)
 number of electron     766.0000000 magnetization 
 augmentation part      766.0000000 magnetization 

 Free energy of the ion-electron system (eV)
  ---------------------------------------------------
  alpha Z        PSCENC =       505.22967617
  Ewald energy   TEWEN  =     86016.56153888
  -Hartree energ DENC   =   -100092.49703713
  -exchange      EXHF   =         0.00000000
  -V(xc)+E(xc)   XCENC  =     -6606.61130405
  PAW double counting   =     17092.30507181    -9042.14386232
  entropy T*S    EENTRO =        -0.22928584
  eigenvalues    EBANDS =     -2846.60779429
  atomic energy  EATOM  =     14019.20197576
  Solvation  Ediel_sol  =         0.00000000
  ---------------------------------------------------
  free energy    TOTEN  =      -954.79102101 eV

  energy without entropy =     -954.56173517  energy(sigma->0) =     -954.67637809


--------------------------------------------------------------------------------------------------------




----------------------------------------- Iteration    1(   4)  ---------------------------------------


     EDDAV:  cpu time   23.9439: real time   27.3100
       DOS:  cpu time    0.0198: real time    0.0198
    --------------------------------------------
      LOOP:  cpu time   23.9649: real time   27.3325

 eigenvalue-minimisations  :  4392
 total energy-change (2. order) :-0.7459817E+01  (-0.7293088E+01)
 number of electron     766.0000000 magnetization 
 augmentation part      766.0000000 magnetization 

 Free energy of the ion-electron system (eV)
  ---------------------------------------------------
  alpha Z        PSCENC =       505.22967617
  Ewald energy   TEWEN  =     86016.56153888
  -Hartree energ DENC   =   -100092.49703713
  -exchange      EXHF   =         0.00000000
  -V(xc)+E(xc)   XCENC  =     -6606.61130405
  PAW double counting   =     17092.30507181    -9042.14386232
  entropy T*S    EENTRO =        -0.25956226
  eigenvalues    EBANDS =     -2854.03733535
  atomic energy  EATOM  =     14019.20197576
  Solvation  Ediel_sol  =         0.00000000
  ---------------------------------------------------
  free energy    TOTEN  =      -962.25083850 eV

  energy without entropy =     -961.99127624  energy(sigma->0) =     -962.12105737


--------------------------------------------------------------------------------------------------------




----------------------------------------- Iteration    1(   5)  ---------------------------------------


     EDDAV:  cpu time   26.6858: real time   30.3545
       DOS:  cpu time    0.0019: real time    0.0019
    CHARGE:  cpu time    1.6918: real time    1.7667
    MIXING:  cpu time    0.0270: real time    0.0270
    --------------------------------------------
      LOOP:  cpu time   28.4078: real time   32.1528

 eigenvalue-minimisations  :  5028
 total energy-change (2. order) :-0.4071073E+00  (-0.4057532E+00)
 number of electron     765.9999993 magnetization 
 augmentation part      -10.0063155 magnetization 

 Broyden mixing:
  rms(total) = 0.18640E+01    rms(broyden)= 0.18631E+01
  rms(prec ) = 0.26180E+01
  weight for this iteration     100.00

 Free energy of the ion-electron system (eV)
  ---------------------------------------------------
  alpha Z        PSCENC =       505.22967617
  Ewald energy   TEWEN  =     86016.56153888
  -Hartree energ DENC   =   -100092.49703713
  -exchange      EXHF   =         0.00000000
  -V(xc)+E(xc)   XCENC  =     -6606.61130405
  PAW double counting   =     17092.30507181    -9042.14386232
  entropy T*S    EENTRO =        -0.25964526
  eigenvalues    EBANDS =     -2854.44435962
  atomic energy  EATOM  =     14019.20197576
  Solvation  Ediel_sol  =         0.00000000
  ---------------------------------------------------
  free energy    TOTEN  =      -962.65794577 eV

  energy without entropy =     -962.39830051  energy(sigma->0) =     -962.52812314


--------------------------------------------------------------------------------------------------------




----------------------------------------- Iteration    1(   6)  ---------------------------------------


    POTLOK:  cpu time    0.7935: real time    0.7939
    SETDIJ:  cpu time    0.1068: real time    0.1068
     EDDAV:  cpu time   24.3247: real time   27.6476
       DOS:  cpu time    0.0157: real time    0.0159
    CHARGE:  cpu time    1.6623: real time    1.6952
    MIXING:  cpu time    0.0281: real time    0.0283
    --------------------------------------------
      LOOP:  cpu time   26.9327: real time   30.2907

 eigenvalue-minimisations  :  4464
 total energy-change (2. order) :-0.1518252E+02  (-0.1893156E+02)
 number of electron     765.9999995 magnetization 
 augmentation part       -9.9680979 magnetization 

 Broyden mixing:
  rms(total) = 0.18627E+01    rms(broyden)= 0.18627E+01
  rms(prec ) = 0.41904E+01
  weight for this iteration     100.00

 eigenvalues of (default mixing * dielectric matrix)
  average eigenvalue GAMMA=   0.7568
  0.7568

 Free energy of the ion-electron system (eV)
  ---------------------------------------------------
  alpha Z        PSCENC =       505.22967617
  Ewald energy   TEWEN  =     86016.56153888
  -Hartree energ DENC   =   -101013.24069280
  -exchange      EXHF   =         0.00000000
  -V(xc)+E(xc)   XCENC  =     -6596.61383182
  PAW double counting   =     19030.07168512   -10981.22449159
  entropy T*S    EENTRO =        -0.17214169
  eigenvalues    EBANDS =     -1957.65417898
  atomic energy  EATOM  =     14019.20197576
  Solvation  Ediel_sol  =         0.00000000
  ---------------------------------------------------
  free energy    TOTEN  =      -977.84046096 eV

  energy without entropy =     -977.66831926  energy(sigma->0) =     -977.75439011


--------------------------------------------------------------------------------------------------------




----------------------------------------- Iteration    1(   7)  ---------------------------------------


    POTLOK:  cpu time    0.7974: real time    0.7974
    SETDIJ:  cpu time    0.1062: real time    0.1063
     EDDAV:  cpu time   22.3304: real time   25.3774
       DOS:  cpu time    0.0019: real time    0.0019
    CHARGE:  cpu time    1.6953: real time    1.7285
    MIXING:  cpu time    0.0294: real time    0.0294
    --------------------------------------------
      LOOP:  cpu time   24.9621: real time   28.0434

 eigenvalue-minimisations  :  3984
 total energy-change (2. order) : 0.4041003E+02  (-0.1317841E+02)
 number of electron     765.9999995 magnetization 
 augmentation part      -10.0092399 magnetization 

 Broyden mixing:
  rms(total) = 0.96086E+00    rms(broyden)= 0.96086E+00
  rms(prec ) = 0.12219E+01
  weight for this iteration     100.00

 eigenvalues of (default mixing * dielectric matrix)
  average eigenvalue GAMMA=   1.1796
  2.0470  0.3123

 Free energy of the ion-electron system (eV)
  ---------------------------------------------------
  alpha Z        PSCENC =       505.22967617
  Ewald energy   TEWEN  =     86016.56153888
  -Hartree energ DENC   =   -100490.54107499
  -exchange      EXHF   =         0.00000000
  -V(xc)+E(xc)   XCENC  =     -6594.49210970
  PAW double counting   =     19405.33247957   -11356.60235601
  entropy T*S    EENTRO =        -0.04974689
  eigenvalues    EBANDS =     -2442.07081476
  atomic energy  EATOM  =     14019.20197576
  Solvation  Ediel_sol  =         0.00000000
  ---------------------------------------------------
  free energy    TOTEN  =      -937.43043197 eV

  energy without entropy =     -937.38068509  energy(sigma->0) =     -937.40555853


--------------------------------------------------------------------------------------------------------




----------------------------------------- Iteration    1(   8)  ---------------------------------------


    POTLOK:  cpu time    0.7972: real time    0.7973
    SETDIJ:  cpu time    0.1076: real time    0.1076
     EDDAV:  cpu time   21.5804: real time   24.6392
       DOS:  cpu time    0.0015: real time    0.0015
    CHARGE:  cpu time    1.6804: real time    1.7137
    MIXING:  cpu time    0.0302: real time    0.0302
    --------------------------------------------
      LOOP:  cpu time   24.1990: real time   27.2944

 eigenvalue-minimisations  :  3828
 total energy-change (2. order) : 0.2821446E+00  (-0.4579259E+01)
 number of electron     765.9999994 magnetization 
 augmentation part      -10.1714547 magnetization 

 Broyden mixing:
  rms(total) = 0.45886E+00    rms(broyden)= 0.45886E+00
  rms(prec ) = 0.59403E+00
  weight for this iteration     100.00

 eigenvalues of (default mixing * dielectric matrix)
  average eigenvalue GAMMA=   1.1581
  2.4918  0.6879  0.2946

 Free energy of the ion-electron system (eV)
  ---------------------------------------------------
  alpha Z        PSCENC =       505.22967617
  Ewald energy   TEWEN  =     86016.56153888
  -Hartree energ DENC   =   -100657.00206374
  -exchange      EXHF   =         0.00000000
  -V(xc)+E(xc)   XCENC  =     -6585.09687818
  PAW double counting   =     20920.04176149   -12872.15374880
  entropy T*S    EENTRO =        -0.05711818
  eigenvalues    EBANDS =     -2283.87343079
  atomic energy  EATOM  =     14019.20197576
  Solvation  Ediel_sol  =         0.00000000
  ---------------------------------------------------
  free energy    TOTEN  =      -937.14828740 eV

  energy without entropy =     -937.09116921  energy(sigma->0) =     -937.11972830


--------------------------------------------------------------------------------------------------------




----------------------------------------- Iteration    1(   9)  ---------------------------------------


    POTLOK:  cpu time    0.7986: real time    0.7992
    SETDIJ:  cpu time    0.1072: real time    0.1072
     EDDAV:  cpu time   20.8942: real time   23.7808
       DOS:  cpu time    0.0012: real time    0.0012
    CHARGE:  cpu time    1.6625: real time    1.6956
    MIXING:  cpu time    0.0305: real time    0.0305
    --------------------------------------------
      LOOP:  cpu time   23.4959: real time   26.4174

 eigenvalue-minimisations  :  3648
 total energy-change (2. order) : 0.2039408E+01  (-0.5129524E+00)
 number of electron     765.9999994 magnetization 
 augmentation part      -10.2336822 magnetization 

 Broyden mixing:
  rms(total) = 0.11787E+00    rms(broyden)= 0.11787E+00
  rms(prec ) = 0.20737E+00
  weight for this iteration     100.00

 eigenvalues of (default mixing * dielectric matrix)
  average eigenvalue GAMMA=   1.2097
  2.4324  1.4420  0.2967  0.6677

 Free energy of the ion-electron system (eV)
  ---------------------------------------------------
  alpha Z        PSCENC =       505.22967617
  Ewald energy   TEWEN  =     86016.56153888
  -Hartree energ DENC   =   -100831.57386983
  -exchange      EXHF   =         0.00000000
  -V(xc)+E(xc)   XCENC  =     -6577.11579877
  PAW double counting   =     22156.90069908   -14110.00412249
  entropy T*S    EENTRO =        -0.05508342
  eigenvalues    EBANDS =     -2114.25389440
  atomic energy  EATOM  =     14019.20197576
  Solvation  Ediel_sol  =         0.00000000
  ---------------------------------------------------
  free energy    TOTEN  =      -935.10887902 eV

  energy without entropy =     -935.05379559  energy(sigma->0) =     -935.08133730


--------------------------------------------------------------------------------------------------------




----------------------------------------- Iteration    1(  10)  ---------------------------------------


    POTLOK:  cpu time    0.7978: real time    0.7978
    SETDIJ:  cpu time    0.1072: real time    0.1072
     EDDAV:  cpu time   24.5475: real time   27.9417
       DOS:  cpu time    0.0020: real time    0.0020
    CHARGE:  cpu time    1.6648: real time    1.6978
    MIXING:  cpu time    0.0326: real time    0.0326
    --------------------------------------------
      LOOP:  cpu time   27.1535: real time   30.5819

 eigenvalue-minimisations  :  4524
 total energy-change (2. order) :-0.4169695E+00  (-0.7512954E-01)
 number of electron     765.9999996 magnetization 
 augmentation part      -10.2422321 magnetization 

 Broyden mixing:
  rms(total) = 0.17894E+00    rms(broyden)= 0.17894E+00
  rms(prec ) = 0.62327E+00
  weight for this iteration     100.00

 eigenvalues of (default mixing * dielectric matrix)
  average eigenvalue GAMMA=   1.0295
  2.4141  1.5872  0.6606  0.2972  0.1884

 Free energy of the ion-electron system (eV)
  ---------------------------------------------------
  alpha Z        PSCENC =       505.22967617
  Ewald energy   TEWEN  =     86016.56153888
  -Hartree energ DENC   =   -100865.11117871
  -exchange      EXHF   =         0.00000000
  -V(xc)+E(xc)   XCENC  =     -6576.61478992
  PAW double counting   =     22175.52036526   -14128.83362676
  entropy T*S    EENTRO =        -0.05550920
  eigenvalues    EBANDS =     -2081.42429999
  atomic energy  EATOM  =     14019.20197576
  Solvation  Ediel_sol  =         0.00000000
  ---------------------------------------------------
  free energy    TOTEN  =      -935.52584850 eV

  energy without entropy =     -935.47033930  energy(sigma->0) =     -935.49809390


--------------------------------------------------------------------------------------------------------




----------------------------------------- Iteration    1(  11)  ---------------------------------------


    POTLOK:  cpu time    0.8044: real time    0.8044
    SETDIJ:  cpu time    0.1066: real time    0.1066
     EDDAV:  cpu time   23.8245: real time   27.0452
       DOS:  cpu time    0.0206: real time    0.0206
    CHARGE:  cpu time    1.6960: real time    1.7293
    MIXING:  cpu time    0.0334: real time    0.0336
    --------------------------------------------
      LOOP:  cpu time   26.4871: real time   29.7424

 eigenvalue-minimisations  :  4344
 total energy-change (2. order) : 0.5528015E+00  (-0.4419911E-01)
 number of electron     765.9999995 magnetization 
 augmentation part      -10.2444153 magnetization 

 Broyden mixing:
  rms(total) = 0.59847E-01    rms(broyden)= 0.59846E-01
  rms(prec ) = 0.84264E-01
  weight for this iteration     100.00

 eigenvalues of (default mixing * dielectric matrix)
  average eigenvalue GAMMA=   1.1118
  2.3349  2.3349  0.7827  0.7827  0.2963  0.1394

 Free energy of the ion-electron system (eV)
  ---------------------------------------------------
  alpha Z        PSCENC =       505.22967617
  Ewald energy   TEWEN  =     86016.56153888
  -Hartree energ DENC   =   -100899.02623612
  -exchange      EXHF   =         0.00000000
  -V(xc)+E(xc)   XCENC  =     -6576.10024724
  PAW double counting   =     22188.08949042   -14141.62448918
  entropy T*S    EENTRO =        -0.05524463
  eigenvalues    EBANDS =     -2047.24951109
  atomic energy  EATOM  =     14019.20197576
  Solvation  Ediel_sol  =         0.00000000
  ---------------------------------------------------
  free energy    TOTEN  =      -934.97304704 eV

  energy without entropy =     -934.91780241  energy(sigma->0) =     -934.94542473


--------------------------------------------------------------------------------------------------------




----------------------------------------- Iteration    1(  12)  ---------------------------------------


    POTLOK:  cpu time    0.8026: real time    0.8026
    SETDIJ:  cpu time    0.1070: real time    0.1070
     EDDAV:  cpu time   21.4763: real time   24.3800
       DOS:  cpu time    0.0024: real time    0.0024
    CHARGE:  cpu time    1.6785: real time    1.7119
    MIXING:  cpu time    0.0350: real time    0.0350
    --------------------------------------------
      LOOP:  cpu time   24.1035: real time   27.0417

 eigenvalue-minimisations  :  3768
 total energy-change (2. order) : 0.3490068E-01  (-0.2025325E-01)
 number of electron     765.9999995 magnetization 
 augmentation part      -10.2520502 magnetization 

 Broyden mixing:
  rms(total) = 0.40628E-01    rms(broyden)= 0.40628E-01
  rms(prec ) = 0.59099E-01
  weight for this iteration     100.00

 eigenvalues of (default mixing * dielectric matrix)
  average eigenvalue GAMMA=   1.1654
  2.4707  2.4707  1.0533  1.0533  0.6742  0.2964  0.1391

 Free energy of the ion-electron system (eV)
  ---------------------------------------------------
  alpha Z        PSCENC =       505.22967617
  Ewald energy   TEWEN  =     86016.56153888
  -Hartree energ DENC   =   -100944.48673844
  -exchange      EXHF   =         0.00000000
  -V(xc)+E(xc)   XCENC  =     -6575.36008430
  PAW double counting   =     22208.07003636   -14161.84743339
  entropy T*S    EENTRO =        -0.05532864
  eigenvalues    EBANDS =     -2002.25178878
  atomic energy  EATOM  =     14019.20197576
  Solvation  Ediel_sol  =         0.00000000
  ---------------------------------------------------
  free energy    TOTEN  =      -934.93814637 eV

  energy without entropy =     -934.88281773  energy(sigma->0) =     -934.91048205


--------------------------------------------------------------------------------------------------------




----------------------------------------- Iteration    1(  13)  ---------------------------------------


    POTLOK:  cpu time    0.8037: real time    0.8038
    SETDIJ:  cpu time    0.1069: real time    0.1069
     EDDAV:  cpu time   22.6421: real time   25.8103
       DOS:  cpu time    0.0215: real time    0.0217
    CHARGE:  cpu time    1.6725: real time    1.7054
    MIXING:  cpu time    0.0381: real time    0.0381
    --------------------------------------------
      LOOP:  cpu time   25.2865: real time   28.4889

 eigenvalue-minimisations  :  4080
 total energy-change (2. order) : 0.2231627E-01  (-0.5546304E-02)
 number of electron     765.9999995 magnetization 
 augmentation part      -10.2503300 magnetization 

 Broyden mixing:
  rms(total) = 0.19773E-01    rms(broyden)= 0.19772E-01
  rms(prec ) = 0.33416E-01
  weight for this iteration     100.00

 eigenvalues of (default mixing * dielectric matrix)
  average eigenvalue GAMMA=   1.2616
  2.9526  2.7004  1.2042  1.2042  0.9031  0.6925  0.2964  0.1391

 Free energy of the ion-electron system (eV)
  ---------------------------------------------------
  alpha Z        PSCENC =       505.22967617
  Ewald energy   TEWEN  =     86016.56153888
  -Hartree energ DENC   =   -100978.60854445
  -exchange      EXHF   =         0.00000000
  -V(xc)+E(xc)   XCENC  =     -6574.97962672
  PAW double counting   =     22202.10168424   -14155.96816461
  entropy T*S    EENTRO =        -0.05540874
  eigenvalues    EBANDS =     -1968.39896063
  atomic energy  EATOM  =     14019.20197576
  Solvation  Ediel_sol  =         0.00000000
  ---------------------------------------------------
  free energy    TOTEN  =      -934.91583009 eV

  energy without entropy =     -934.86042136  energy(sigma->0) =     -934.88812573


--------------------------------------------------------------------------------------------------------




----------------------------------------- Iteration    1(  14)  ---------------------------------------


    POTLOK:  cpu time    0.8150: real time    0.8151
    SETDIJ:  cpu time    0.1075: real time    0.1075
     EDDAV:  cpu time   21.6251: real time   24.5961
       DOS:  cpu time    0.0027: real time    0.0027
    CHARGE:  cpu time    1.6722: real time    1.7052
    MIXING:  cpu time    0.0387: real time    0.0387
    --------------------------------------------
      LOOP:  cpu time   24.2629: real time   27.2681

 eigenvalue-minimisations  :  3816
 total energy-change (2. order) : 0.6315880E-03  (-0.2401115E-02)
 number of electron     765.9999995 magnetization 
 augmentation part      -10.2484529 magnetization 

 Broyden mixing:
  rms(total) = 0.14156E-01    rms(broyden)= 0.14156E-01
  rms(prec ) = 0.23413E-01
  weight for this iteration     100.00

 eigenvalues of (default mixing * dielectric matrix)
  average eigenvalue GAMMA=   1.3038
  3.4969  2.5691  1.3253  1.3253  1.1970  0.2964  0.6696  0.7152  0.1391

 Free energy of the ion-electron system (eV)
  ---------------------------------------------------
  alpha Z        PSCENC =       505.22967617
  Ewald energy   TEWEN  =     86016.56153888
  -Hartree energ DENC   =   -101007.27667261
  -exchange      EXHF   =         0.00000000
  -V(xc)+E(xc)   XCENC  =     -6574.70595866
  PAW double counting   =     22196.26606779   -14150.15514119
  entropy T*S    EENTRO =        -0.05550006
  eigenvalues    EBANDS =     -1939.98118458
  atomic energy  EATOM  =     14019.20197576
  Solvation  Ediel_sol  =         0.00000000
  ---------------------------------------------------
  free energy    TOTEN  =      -934.91519851 eV

  energy without entropy =     -934.85969844  energy(sigma->0) =     -934.88744848


--------------------------------------------------------------------------------------------------------




----------------------------------------- Iteration    1(  15)  ---------------------------------------


    POTLOK:  cpu time    0.8105: real time    0.8106
    SETDIJ:  cpu time    0.1063: real time    0.1063
     EDDAV:  cpu time   21.8780: real time   24.9570
       DOS:  cpu time    0.0018: real time    0.0018
    CHARGE:  cpu time    1.6795: real time    1.7131
    MIXING:  cpu time    0.0403: real time    0.0403
    --------------------------------------------
      LOOP:  cpu time   24.5180: real time   27.6319

 eigenvalue-minimisations  :  3888
 total energy-change (2. order) :-0.4951772E-02  (-0.6809530E-03)
 number of electron     765.9999995 magnetization 
 augmentation part      -10.2477103 magnetization 

 Broyden mixing:
  rms(total) = 0.10991E-01    rms(broyden)= 0.10991E-01
  rms(prec ) = 0.16787E-01
  weight for this iteration     100.00

 eigenvalues of (default mixing * dielectric matrix)
  average eigenvalue GAMMA=   1.3975
  4.1115  2.5060  2.3315  1.2693  1.2693  0.2964  0.8244  0.6853  0.1391  0.5422

 Free energy of the ion-electron system (eV)
  ---------------------------------------------------
  alpha Z        PSCENC =       505.22967617
  Ewald energy   TEWEN  =     86016.56153888
  -Hartree energ DENC   =   -101021.32187556
  -exchange      EXHF   =         0.00000000
  -V(xc)+E(xc)   XCENC  =     -6574.59983951
  PAW double counting   =     22194.75705236   -14148.62136140
  entropy T*S    EENTRO =        -0.05556593
  eigenvalues    EBANDS =     -1926.07175105
  atomic energy  EATOM  =     14019.20197576
  Solvation  Ediel_sol  =         0.00000000
  ---------------------------------------------------
  free energy    TOTEN  =      -934.92015028 eV

  energy without entropy =     -934.86458435  energy(sigma->0) =     -934.89236731


--------------------------------------------------------------------------------------------------------




----------------------------------------- Iteration    1(  16)  ---------------------------------------


    POTLOK:  cpu time    0.8221: real time    0.8221
    SETDIJ:  cpu time    0.1064: real time    0.1064
     EDDAV:  cpu time   20.7796: real time   23.8084
       DOS:  cpu time    0.0019: real time    0.0019
    CHARGE:  cpu time    1.6647: real time    1.6978
    MIXING:  cpu time    0.0417: real time    0.0417
    --------------------------------------------
      LOOP:  cpu time   23.4181: real time   26.4812

 eigenvalue-minimisations  :  3660
 total energy-change (2. order) :-0.8391784E-02  (-0.3980524E-03)
 number of electron     765.9999995 magnetization 
 augmentation part      -10.2473445 magnetization 

 Broyden mixing:
  rms(total) = 0.62763E-02    rms(broyden)= 0.62758E-02
  rms(prec ) = 0.95126E-02
  weight for this iteration     100.00

 eigenvalues of (default mixing * dielectric matrix)
  average eigenvalue GAMMA=   1.4845
  4.9219  3.0526  2.4941  1.2453  1.2453  0.2964  0.9593  0.6910  0.7927  0.1391
  0.4915

 Free energy of the ion-electron system (eV)
  ---------------------------------------------------
  alpha Z        PSCENC =       505.22967617
  Ewald energy   TEWEN  =     86016.56153888
  -Hartree energ DENC   =   -101033.92293196
  -exchange      EXHF   =         0.00000000
  -V(xc)+E(xc)   XCENC  =     -6574.55242358
  PAW double counting   =     22191.68161496   -14145.48955171
  entropy T*S    EENTRO =        -0.05562439
  eigenvalues    EBANDS =     -1913.58281619
  atomic energy  EATOM  =     14019.20197576
  Solvation  Ediel_sol  =         0.00000000
  ---------------------------------------------------
  free energy    TOTEN  =      -934.92854206 eV

  energy without entropy =     -934.87291767  energy(sigma->0) =     -934.90072987


--------------------------------------------------------------------------------------------------------




----------------------------------------- Iteration    1(  17)  ---------------------------------------


    POTLOK:  cpu time    0.8207: real time    0.8207
    SETDIJ:  cpu time    0.1066: real time    0.1066
     EDDAV:  cpu time   21.2042: real time   24.2061
       DOS:  cpu time    0.0152: real time    0.0152
    CHARGE:  cpu time    1.6726: real time    1.7056
    MIXING:  cpu time    0.0440: real time    0.0440
    --------------------------------------------
[...]
     11.69112     -8.59029     -8.26601         0.000955     -0.000033      0.000101
     11.69112    -17.18057    -13.22561         0.000855     -0.000051     -0.000149
     11.69112    -11.45372     -3.30640         0.000654      0.000056     -0.000002
     11.69112    -14.31714     -8.26601         0.000651     -0.000154      0.000118
     13.99306      0.00000      0.00000        -0.001231      0.000025     -0.000026
     13.99306     -2.86343     -4.95960        -0.001469     -0.000069      0.000049
     13.99306     -5.72686     -9.91921        -0.001471     -0.000008     -0.000194
     13.99306     -5.72686      0.00000        -0.001390     -0.000013     -0.000108
     13.99306     -8.59029     -4.95960        -0.000804      0.000006     -0.000042
     13.99306    -11.45372     -9.91921        -0.001513     -0.000070      0.000024
     13.99306    -11.45372      0.00000        -0.001328     -0.000068     -0.000103
     13.99306    -14.31714     -4.95960        -0.001401     -0.000092      0.000034
     13.99306    -17.18057     -9.91921        -0.001400     -0.000069     -0.000135
     16.34180     -2.86343     -1.65320        -0.001037      0.000039      0.000099
     16.34180     -5.72686     -6.61281        -0.000988      0.000094     -0.000133
     16.34180     -8.59029    -11.57241        -0.000957     -0.000025      0.000036
     16.34180     -8.59029     -1.65320        -0.000972     -0.000005      0.000085
     16.34180    -11.45372     -6.61281        -0.001141     -0.000694      0.000110
     16.34180    -14.31714    -11.57241        -0.001164      0.000086      0.000009
     16.34180    -14.31714     -1.65320        -0.000951      0.000070      0.000011
     16.34180    -17.18057     -6.61281        -0.001226      0.000155      0.000021
     16.34180    -20.04400    -11.57241        -0.001025     -0.000050     -0.000096
      2.36204     -7.15857     -4.13300        -0.000529      0.000025     -0.000064
      2.36204    -10.02200     -9.09261        -0.000721      0.000000     -0.000006
      2.36204    -12.88543    -14.05221        -0.000609      0.000013     -0.000034
      2.36204    -12.88543     -4.13300        -0.000529     -0.000025     -0.000064
      2.36204    -15.74886     -9.09261        -0.000595     -0.000078     -0.000086
      2.36204    -18.61229    -14.05221        -0.000666      0.000000     -0.000210
      2.36204    -18.61229     -4.13300        -0.000541      0.000000      0.000043
      2.36204    -21.47572     -9.09261        -0.000595      0.000078     -0.000086
      2.36204    -24.33915    -14.05221        -0.000609     -0.000013     -0.000034
      4.71078    -10.02200     -5.78621        -0.001514      0.000000     -0.000014
      4.71078    -12.88543    -10.74581        -0.001525     -0.000057     -0.000149
      4.71078     -7.15857     -0.82660        -0.001579     -0.000119      0.000164
      4.71078    -15.74886     -5.78621        -0.001470     -0.000083     -0.000015
      4.71078    -18.61229    -10.74581        -0.001502      0.000000     -0.000017
      4.71078    -12.88543     -0.82660        -0.001579      0.000119      0.000164
      4.71078     -4.29514     -5.78621        -0.001470      0.000083     -0.000015
      4.71078     -7.15857    -10.74581        -0.001525      0.000057     -0.000149
      4.71078     -1.43171     -0.82660        -0.001363      0.000000      0.000103
      7.01272    -12.88543     -7.43941         0.000523      0.000025      0.000093
      7.01272    -15.74886    -12.39901         0.000388      0.000000      0.000030
      7.01272    -10.02200     -2.47980         0.000504      0.000000      0.000134
      7.01272    -18.61229     -7.43941         0.000579      0.000000      0.000129
      7.01272    -21.47572    -12.39901         0.000388     -0.000000      0.000030
      7.01272    -15.74886     -2.47980         0.000367     -0.000010      0.000116
      7.01272     -7.15857     -7.43941         0.000523     -0.000025      0.000093
      7.01272    -10.02200    -12.39901         0.000517      0.000000     -0.000246
      7.01272     -4.29514     -2.47980         0.000367      0.000010      0.000116
      9.35192    -15.74886     -9.09261         0.000659      0.000004      0.000045
      9.35192    -18.61229    -14.05221         0.000440      0.000000     -0.000188
      9.35192    -12.88543     -4.13300         0.000464      0.000047     -0.000101
      9.35192    -21.47572     -9.09261         0.000659     -0.000004      0.000045
      9.35192    -24.33915    -14.05221         0.000541     -0.000024      0.000017
      9.35192    -18.61229     -4.13300         0.000625      0.000000     -0.000026
      9.35192    -10.02200     -9.09261         0.000572      0.000000      0.000269
      9.35192    -12.88543    -14.05221         0.000541      0.000024      0.000017
      9.35192     -7.15857     -4.13300         0.000464     -0.000047     -0.000101
     11.69112    -18.61229    -10.74581         0.000972      0.000000     -0.000102
     11.69112    -12.88543     -0.82660         0.000841      0.000106     -0.000070
     11.69112    -15.74886     -5.78621         0.000834      0.000008     -0.000129
     11.69112     -7.15857    -10.74581         0.000823      0.000047     -0.000142
     11.69112     -1.43171     -0.82660         0.000746      0.000000      0.000076
     11.69112     -4.29514     -5.78621         0.000834     -0.000008     -0.000129
     11.69112    -12.88543    -10.74581         0.000823     -0.000047     -0.000142
     11.69112     -7.15857     -0.82660         0.000841     -0.000106     -0.000070
     11.69112    -10.02200     -5.78621         0.000959      0.000000      0.000064
     13.99306    -21.47572    -12.39901        -0.001405     -0.000022      0.000064
     13.99306    -15.74886     -2.47980        -0.001416      0.000055     -0.000039
     13.99306    -18.61229     -7.43941        -0.001358      0.000000      0.000066
     13.99306    -10.02200    -12.39901        -0.001504      0.000000      0.000115
     13.99306     -4.29514     -2.47980        -0.001416     -0.000055     -0.000039
     13.99306     -7.15857     -7.43941        -0.000669     -0.000133      0.000114
     13.99306    -15.74886    -12.39901        -0.001405      0.000022      0.000064
     13.99306    -10.02200     -2.47980        -0.001867      0.000000      0.000287
     13.99306    -12.88543     -7.43941        -0.000669      0.000133      0.000114
     16.34180    -24.33915    -14.05221        -0.001145     -0.000087      0.000038
     16.34180    -18.61229     -4.13300        -0.001247      0.000000     -0.000011
     16.34180    -21.47572     -9.09261        -0.001072     -0.000055      0.000060
     16.34180    -12.88543    -14.05221        -0.001145      0.000087      0.000038
     16.34180     -7.15857     -4.13300        -0.000286     -0.000298     -0.000006
     16.34180    -10.02200     -9.09261         0.003674      0.000000      0.000324
     16.34180    -18.61229    -14.05221        -0.001113      0.000000     -0.000112
     16.34180    -12.88543     -4.13300        -0.000286      0.000298     -0.000006
     16.34180    -15.74886     -9.09261        -0.001072      0.000055      0.000060
      2.36204     -8.59029     -6.61281        -0.000458      0.000083     -0.000074
      2.36204    -11.45372    -11.57241        -0.000677      0.000031     -0.000091
      2.36204     -5.72686     -1.65320        -0.000729     -0.000040      0.000152
      2.36204    -14.31714     -6.61281        -0.000465     -0.000004      0.000031
      2.36204    -17.18057    -11.57241        -0.000643     -0.000010      0.000095
      2.36204    -11.45372     -1.65320        -0.000687     -0.000033      0.000314
      2.36204    -20.04400     -6.61281        -0.000546      0.000048     -0.000067
      2.36204    -22.90743    -11.57241        -0.000571      0.000018     -0.000020
      2.36204    -17.18057     -1.65320        -0.000650      0.000029      0.000051
      4.71078    -11.45372     -8.26601        -0.001369      0.000059      0.000159
      4.71078    -14.31714    -13.22561        -0.001678      0.000031      0.000004
      4.71078     -8.59029     -3.30640        -0.001481     -0.000055     -0.000082
      4.71078    -17.18057     -8.26601        -0.001423      0.000006      0.000064
      4.71078    -20.04400    -13.22561        -0.001473      0.000018     -0.000197
      4.71078    -14.31714     -3.30640        -0.001485     -0.000113      0.000031
      4.71078     -5.72686     -8.26601        -0.001260     -0.000014      0.000043
      4.71078     -8.59029    -13.22561        -0.001555     -0.000027      0.000017
      4.71078     -2.86343     -3.30640        -0.001577     -0.000028     -0.000010
      7.01272    -14.31714     -9.91921         0.000571     -0.000110      0.000026
      7.01272     -8.59029      0.00000         0.000422     -0.000144     -0.000052
      7.01272    -11.45372     -4.95960         0.000274      0.000116     -0.000237
      7.01272    -20.04400     -9.91921         0.000313     -0.000200      0.000009
      7.01272    -14.31714      0.00000         0.000546      0.000036     -0.000085
      7.01272    -17.18057     -4.95960         0.000397      0.000072     -0.000146
      7.01272     -8.59029     -9.91921         0.000400     -0.000064      0.000146
      7.01272     -2.86343      0.00000         0.000550      0.000123      0.000063
      7.01272     -5.72686     -4.95960         0.000520      0.000024     -0.000249
      9.35192    -17.18057    -11.57241         0.000641      0.000016      0.000051
      9.35192    -11.45372     -1.65320         0.000761     -0.000066      0.000176
      9.35192    -14.31714     -6.61281         0.000413      0.000010     -0.000014
      9.35192    -22.90743    -11.57241         0.000711     -0.000033      0.000056
      9.35192    -17.18057     -1.65320         0.000542      0.000011      0.000008
      9.35192    -20.04400     -6.61281         0.000550     -0.000048     -0.000050
      9.35192    -11.45372    -11.57241         0.000766     -0.000018     -0.000180
      9.35192     -5.72686     -1.65320         0.000783     -0.000011      0.000061
      9.35192     -8.59029     -6.61281         0.000587     -0.000021     -0.000048
     11.69112    -20.04400    -13.22561         0.000855      0.000051     -0.000149
     11.69112    -14.31714     -3.30640         0.000901     -0.000049      0.000084
     11.69112    -17.18057     -8.26601         0.000731      0.000165      0.000156
     11.69112     -8.59029    -13.22561         0.000863     -0.000042      0.000064
     11.69112     -2.86343     -3.30640         0.000885     -0.000055      0.000007
     11.69112     -5.72686     -8.26601         0.000651      0.000154      0.000118
     11.69112    -14.31714    -13.22561         0.000841      0.000073      0.000090
     11.69112     -8.59029     -3.30640         0.000654     -0.000056     -0.000002
     11.69112    -11.45372     -8.26601         0.000955      0.000033      0.000101
     13.99306    -14.31714      0.00000        -0.001390      0.000013     -0.000108
     13.99306    -17.18057     -4.95960        -0.001469      0.000069      0.000049
     13.99306    -20.04400     -9.91921        -0.001400      0.000069     -0.000135
     13.99306     -2.86343      0.00000        -0.001231     -0.000025     -0.000026
     13.99306     -5.72686     -4.95960        -0.001401      0.000092      0.000034
     13.99306     -8.59029     -9.91921        -0.001513      0.000070      0.000024
     13.99306     -8.59029      0.00000        -0.001328      0.000068     -0.000103
     13.99306    -11.45372     -4.95960        -0.000804     -0.000006     -0.000042
     13.99306    -14.31714     -9.91921        -0.001471      0.000008     -0.000194
     16.34180    -17.18057     -1.65320        -0.001037     -0.000039      0.000099
     16.34180    -20.04400     -6.61281        -0.001226     -0.000155      0.000021
     16.34180    -22.90743    -11.57241        -0.001164     -0.000086      0.000009
     16.34180     -5.72686     -1.65320        -0.000951     -0.000070      0.000011
     16.34180     -8.59029     -6.61281        -0.001141      0.000694      0.000110
     16.34180    -11.45372    -11.57241        -0.000957      0.000025      0.000036
     16.34180    -11.45372     -1.65320        -0.000972      0.000005      0.000085
     16.34180    -14.31714     -6.61281        -0.000988     -0.000094     -0.000133
     16.34180    -17.18057    -11.57241        -0.001025      0.000050     -0.000096
      2.36204    -10.02200     -4.13300        -0.000408      0.000000     -0.000043
      2.36204    -12.88543     -9.09261        -0.000544      0.000106      0.000039
      2.36204    -15.74886    -14.05221        -0.000657     -0.000024     -0.000226
      2.36204    -15.74886     -4.13300        -0.000558      0.000012      0.000057
      2.36204    -18.61229     -9.09261        -0.000694      0.000000     -0.000006
      2.36204    -21.47572    -14.05221        -0.000657      0.000024     -0.000226
      2.36204     -4.29514     -4.13300        -0.000558     -0.000012      0.000057
      2.36204     -7.15857     -9.09261        -0.000544     -0.000106      0.000039
      2.36204    -10.02200    -14.05221        -0.000640      0.000000      0.000039
      4.71078    -12.88543     -5.78621        -0.001473      0.000114     -0.000028
      4.71078    -15.74886    -10.74581        -0.001636     -0.000005     -0.000051
      4.71078    -10.02200     -0.82660        -0.001411      0.000000      0.000210
      4.71078    -18.61229     -5.78621        -0.001656      0.000000     -0.000080
      4.71078    -21.47572    -10.74581        -0.001636      0.000005     -0.000051
      4.71078    -15.74886     -0.82660        -0.001434      0.000050      0.000033
      4.71078     -7.15857     -5.78621        -0.001473     -0.000114     -0.000028
      4.71078    -10.02200    -10.74581        -0.001536      0.000000     -0.000104
      4.71078     -4.29514     -0.82660        -0.001434     -0.000050      0.000033
      7.01272    -15.74886     -7.43941         0.000568      0.000056      0.000000
      7.01272    -18.61229    -12.39901         0.000513      0.000000     -0.000232
      7.01272    -12.88543     -2.47980         0.000430     -0.000038      0.000212
      7.01272    -21.47571     -7.43941         0.000568     -0.000056      0.000000
      7.01272    -24.33914    -12.39901         0.000263     -0.000075     -0.000072
      7.01272    -18.61228     -2.47980         0.000465      0.000000      0.000141
      7.01272    -10.02200     -7.43941         0.000442      0.000000     -0.000052
      7.01272    -12.88543    -12.39901         0.000263      0.000075     -0.000072
      7.01272     -7.15857     -2.47980         0.000430      0.000038      0.000212
      9.35192    -18.61229     -9.09261         0.000873      0.000000      0.000094
      9.35192    -21.47572    -14.05221         0.000563      0.000043     -0.000224
      9.35192    -15.74886     -4.13300         0.000658     -0.000015     -0.000040
      9.35192     -7.15857     -9.09261         0.000412     -0.000063      0.000131
      9.35192    -10.02200    -14.05221         0.000439      0.000000      0.000062
      9.35192     -4.29514     -4.13300         0.000658      0.000015     -0.000040
      9.35192    -12.88543     -9.09261         0.000412      0.000063      0.000131
      9.35192    -15.74886    -14.05221         0.000563     -0.000043     -0.000224
      9.35192    -10.02200     -4.13300         0.000367      0.000000     -0.000207
     11.69112    -21.47572    -10.74581         0.000928     -0.000104      0.000033
     11.69112    -15.74886     -0.82660         0.000791      0.000010     -0.000020
     11.69112    -18.61229     -5.78621         0.000877      0.000000     -0.000101
     11.69112    -10.02200    -10.74581         0.000575      0.000000     -0.000107
     11.69112     -4.29514     -0.82660         0.000791     -0.000010     -0.000020
     11.69112     -7.15857     -5.78621         0.000946     -0.000050     -0.000149
     11.69112    -15.74886    -10.74581         0.000928      0.000104      0.000033
     11.69112    -10.02200     -0.82660         0.000797      0.000000      0.000044
     11.69112    -12.88543     -5.78621         0.000946      0.000050     -0.000149
     13.99306    -24.33914    -12.39901        -0.001461     -0.000090      0.000150
     13.99306    -18.61228     -2.47980        -0.001335      0.000000     -0.000045
     13.99306    -21.47571     -7.43941        -0.001118     -0.000008      0.000134
     13.99306    -12.88543    -12.39901        -0.001461      0.000090      0.000150
     13.99306     -7.15857     -2.47980        -0.001560      0.000078      0.000076
     13.99306    -10.02200     -7.43941        -0.001451      0.000000     -0.000161
     13.99306    -18.61229    -12.39901        -0.001347      0.000000      0.000132
     13.99306    -12.88543     -2.47980        -0.001560     -0.000078      0.000076
     13.99306    -15.74886     -7.43941        -0.001118      0.000008      0.000134
     16.34180    -10.02200    -14.05221        -0.001143      0.000000     -0.000082
     16.34180     -4.29514     -4.13300        -0.001055     -0.000032     -0.000065
     16.34180     -7.15857     -9.09261        -0.000310      0.000106      0.000015
     16.34180    -15.74886    -14.05221        -0.001146     -0.000076     -0.000023
     16.34180    -10.02200     -4.13300         0.003567      0.000000     -0.000426
     16.34180    -12.88543     -9.09261        -0.000310     -0.000106      0.000015
     16.34180    -21.47572    -14.05221        -0.001146      0.000076     -0.000023
     16.34180    -15.74886     -4.13300        -0.001055      0.000032     -0.000065
     16.34180    -18.61229     -9.09261        -0.001023      0.000000     -0.000020
     21.04000    -10.02200     -7.24000         0.042666     -0.000000     11.182673
     21.04000    -10.02200     -5.98600         0.039583      0.000000    -11.182303
 -----------------------------------------------------------------------------------
    total drift:                                0.199681      0.000198      0.000512


--------------------------------------------------------------------------------------------------------



  FREE ENERGIE OF THE ION-ELECTRON SYSTEM (eV)
  ---------------------------------------------------
  free  energy   TOTEN  =      -934.94244743 eV

  energy  without entropy=     -934.88678461  energy(sigma->0) =     -934.91461602
 


--------------------------------------------------------------------------------------------------------


    POTLOK:  cpu time    0.9341: real time    0.9433


--------------------------------------------------------------------------------------------------------


     LOOP+:  cpu time  648.6530: real time  731.7387
    4ORBIT:  cpu time    0.0000: real time    0.0000

 total amount of memory used by VASP MPI-rank0   652132. kBytes
=======================================================================

   base      :      30000. kBytes
   nonlr-proj:      89911. kBytes
   fftplans  :      40601. kBytes
   grid      :      95147. kBytes
   one-center:       3950. kBytes
   wavefun   :     392523. kBytes
 
  
  
 General timing and accounting informations for this job:
 ========================================================
  
                  Total CPU time used (sec):      665.016
                            User time (sec):      112.134
                          System time (sec):      552.882
                         Elapsed time (sec):      751.473
  
                   Maximum memory used (kb):     1001600.
                   Average memory used (kb):           0.
  
                          Minor page faults:     24819328
                          Major page faults:           52
                 Voluntary context switches:        17078
