 254 254   0   0
  0.3019211E+02  0.1718057E-08  0.1718057E-08  0.3000000E-08  0.2000000E-15
  1.000000000000000E-004
  CAR 
 NiAl                                    
      5.28442227    -19.76189614  301      1.81421519      1.00000000
    -19.762  0.0000E+00  0.0000E+00
    -19.678  0.0000E+00  0.0000E+00
    -19.595  0.0000E+00  0.0000E+00
    -19.511  0.0000E+00  0.0000E+00
    -19.428  0.0000E+00  0.0000E+00
    -19.344  0.0000E+00  0.0000E+00
    -19.261  0.0000E+00  0.0000E+00
    -19.177  0.0000E+00  0.0000E+00
    -19.094  0.0000E+00  0.0000E+00
    -19.011  0.0000E+00  0.0000E+00
    -18.927  0.0000E+00  0.0000E+00
    -18.844  0.1432E-09  0.1196E-10
    -18.760  0.3331E-04  0.2781E-05
    -18.677  0.3972E-01  0.3319E-02
    -18.593  0.4421E+00  0.4023E-01
    -18.510  0.1166E+00  0.4997E-01
    -18.426  0.3845E-03  0.5000E-01
    -18.343  0.7165E-08  0.5000E-01
    -18.259  0.5984E-15  0.5000E-01
    -18.176  0.0000E+00  0.5000E-01
    -18.092  0.0000E+00  0.5000E-01
    -18.009  0.0000E+00  0.5000E-01
    -17.925  0.0000E+00  0.5000E-01
    -17.842  0.0000E+00  0.5000E-01
    -17.758  0.0000E+00  0.5000E-01
    -17.675  0.0000E+00  0.5000E-01
    -17.591  0.0000E+00  0.5000E-01
    -17.508  0.0000E+00  0.5000E-01
    -17.424  0.0000E+00  0.5000E-01
    -17.341  0.0000E+00  0.5000E-01
    -17.257  0.0000E+00  0.5000E-01
    -17.174  0.0000E+00  0.5000E-01
    -17.090  0.0000E+00  0.5000E-01
    -17.007  0.0000E+00  0.5000E-01
    -16.923  0.0000E+00  0.5000E-01
    -16.840  0.0000E+00  0.5000E-01
    -16.756  0.0000E+00  0.5000E-01
    -16.673  0.0000E+00  0.5000E-01
    -16.589  0.0000E+00  0.5000E-01
    -16.506  0.0000E+00  0.5000E-01
    -16.422  0.0000E+00  0.5000E-01
    -16.339  0.0000E+00  0.5000E-01
    -16.255  0.0000E+00  0.5000E-01
    -16.172  0.0000E+00  0.5000E-01
    -16.088  0.0000E+00  0.5000E-01
    -16.005  0.0000E+00  0.5000E-01
    -15.921  0.0000E+00  0.5000E-01
    -15.838  0.0000E+00  0.5000E-01
    -15.754  0.0000E+00  0.5000E-01
    -15.671  0.0000E+00  0.5000E-01
    -15.588  0.0000E+00  0.5000E-01
    -15.504  0.0000E+00  0.5000E-01
    -15.421  0.0000E+00  0.5000E-01
    -15.337  0.0000E+00  0.5000E-01
    -15.254  0.0000E+00  0.5000E-01
    -15.170  0.0000E+00  0.5000E-01
    -15.087  0.0000E+00  0.5000E-01
    -15.003  0.0000E+00  0.5000E-01
    -14.920  0.0000E+00  0.5000E-01
    -14.836  0.0000E+00  0.5000E-01
    -14.753  0.0000E+00  0.5000E-01
    -14.669  0.0000E+00  0.5000E-01
    -14.586  0.0000E+00  0.5000E-01
    -14.502  0.0000E+00  0.5000E-01
    -14.419  0.0000E+00  0.5000E-01
    -14.335  0.0000E+00  0.5000E-01
    -14.252  0.0000E+00  0.5000E-01
    -14.168  0.0000E+00  0.5000E-01
    -14.085  0.0000E+00  0.5000E-01
    -14.001  0.0000E+00  0.5000E-01
    -13.918  0.0000E+00  0.5000E-01
    -13.834  0.0000E+00  0.5000E-01
    -13.751  0.0000E+00  0.5000E-01
    -13.667  0.0000E+00  0.5000E-01
    -13.584  0.0000E+00  0.5000E-01
    -13.500  0.0000E+00  0.5000E-01
    -13.417  0.0000E+00  0.5000E-01
    -13.333  0.0000E+00  0.5000E-01
    -13.250  0.0000E+00  0.5000E-01
    -13.166  0.0000E+00  0.5000E-01
    -13.083  0.0000E+00  0.5000E-01
    -12.999  0.0000E+00  0.5000E-01
    -12.916  0.0000E+00  0.5000E-01
    -12.832  0.0000E+00  0.5000E-01
    -12.749  0.0000E+00  0.5000E-01
    -12.665  0.0000E+00  0.5000E-01
    -12.582  0.0000E+00  0.5000E-01
    -12.498  0.0000E+00  0.5000E-01
    -12.415  0.0000E+00  0.5000E-01
    -12.331  0.0000E+00  0.5000E-01
    -12.248  0.0000E+00  0.5000E-01
    -12.165  0.0000E+00  0.5000E-01
    -12.081  0.0000E+00  0.5000E-01
    -11.998  0.0000E+00  0.5000E-01
    -11.914  0.0000E+00  0.5000E-01
    -11.831  0.0000E+00  0.5000E-01
    -11.747  0.0000E+00  0.5000E-01
    -11.664  0.0000E+00  0.5000E-01
    -11.580  0.0000E+00  0.5000E-01
    -11.497  0.0000E+00  0.5000E-01
    -11.413  0.0000E+00  0.5000E-01
    -11.330  0.0000E+00  0.5000E-01
    -11.246  0.0000E+00  0.5000E-01
    -11.163  0.0000E+00  0.5000E-01
    -11.079  0.0000E+00  0.5000E-01
    -10.996  0.0000E+00  0.5000E-01
    -10.912  0.0000E+00  0.5000E-01
    -10.829  0.0000E+00  0.5000E-01
    -10.745  0.0000E+00  0.5000E-01
    -10.662  0.0000E+00  0.5000E-01
    -10.578  0.0000E+00  0.5000E-01
    -10.495  0.0000E+00  0.5000E-01
    -10.411  0.0000E+00  0.5000E-01
    -10.328  0.0000E+00  0.5000E-01
    -10.244  0.0000E+00  0.5000E-01
    -10.161  0.0000E+00  0.5000E-01
    -10.077  0.1330E-15  0.5000E-01
     -9.994  0.2315E-08  0.5000E-01
     -9.910  0.1925E-03  0.5002E-01
     -9.827  0.8756E-01  0.5733E-01
     -9.743  0.4542E+00  0.9524E-01
     -9.660  0.5689E-01  0.9999E-01
     -9.576  0.7226E-04  0.1000E+00
     -9.493  0.4828E-09  0.1000E+00
     -9.409  0.1579E-15  0.1000E+00
     -9.326  0.1851E-08  0.1000E+00
     -9.242  0.9806E-04  0.1000E+00
     -9.159  0.2940E-01  0.1025E+00
     -9.075  0.1110E+00  0.1117E+00
     -8.992  0.1882E+00  0.1274E+00
     -8.908  0.6597E+00  0.1825E+00
     -8.825  0.7047E-01  0.1884E+00
     -8.742  0.1123E+00  0.1978E+00
     -8.658  0.2850E+00  0.2216E+00
     -8.575  0.1304E+01  0.3304E+00
     -8.491  0.4241E+00  0.3658E+00
     -8.408  0.6514E+00  0.4202E+00
     -8.324  0.1274E+00  0.4309E+00
     -8.241  0.6703E+00  0.4868E+00
     -8.157  0.2716E+00  0.5095E+00
     -8.074  0.7557E+00  0.5726E+00
     -7.990  0.7790E+00  0.6376E+00
     -7.907  0.1930E+01  0.7988E+00
     -7.823  0.1643E+00  0.8125E+00
     -7.740  0.2888E-02  0.8127E+00
     -7.656  0.6314E+00  0.8654E+00
     -7.573  0.2587E+01  0.1081E+01
     -7.489  0.5809E+00  0.1130E+01
     -7.406  0.6350E+00  0.1183E+01
     -7.322  0.2147E+00  0.1201E+01
     -7.239  0.7853E+00  0.1266E+01
     -7.155  0.7084E+00  0.1326E+01
     -7.072  0.1152E+01  0.1422E+01
     -6.988  0.1193E+01  0.1521E+01
     -6.905  0.2327E+01  0.1716E+01
     -6.821  0.6489E+00  0.1770E+01
     -6.738  0.1188E+01  0.1869E+01
     -6.654  0.1169E+01  0.1967E+01
     -6.571  0.2339E+01  0.2162E+01
     -6.487  0.5472E+00  0.2208E+01
     -6.404  0.4953E+00  0.2249E+01
     -6.320  0.4592E-01  0.2253E+01
     -6.237  0.3132E+00  0.2279E+01
     -6.153  0.1775E+01  0.2427E+01
     -6.070  0.2405E+01  0.2628E+01
     -5.986  0.2060E+01  0.2800E+01
     -5.903  0.1695E+01  0.2941E+01
     -5.819  0.8559E+00  0.3013E+01
     -5.736  0.1022E+01  0.3098E+01
     -5.652  0.2068E+01  0.3271E+01
     -5.569  0.2224E+01  0.3457E+01
     -5.485  0.6798E+00  0.3513E+01
     -5.402  0.7607E+00  0.3577E+01
     -5.319  0.1550E+01  0.3706E+01
     -5.235  0.1397E+01  0.3823E+01
     -5.152  0.1417E+01  0.3941E+01
     -5.068  0.1670E+01  0.4081E+01
     -4.985  0.2114E+01  0.4257E+01
     -4.901  0.1063E+01  0.4346E+01
     -4.818  0.8873E+00  0.4420E+01
     -4.734  0.1251E+01  0.4524E+01
     -4.651  0.2929E+01  0.4769E+01
     -4.567  0.1626E+01  0.4905E+01
     -4.484  0.1903E+01  0.5063E+01
     -4.400  0.7258E+00  0.5124E+01
     -4.317  0.1588E+01  0.5257E+01
     -4.233  0.1538E+01  0.5385E+01
     -4.150  0.3114E+01  0.5645E+01
     -4.066  0.2119E+01  0.5822E+01
     -3.983  0.2286E+01  0.6013E+01
     -3.899  0.8370E+00  0.6083E+01
     -3.816  0.1880E+01  0.6240E+01
     -3.732  0.1603E+01  0.6373E+01
     -3.649  0.2436E+01  0.6577E+01
     -3.565  0.1586E+01  0.6709E+01
     -3.482  0.1437E+01  0.6829E+01
     -3.398  0.9302E+00  0.6907E+01
     -3.315  0.4154E+00  0.6942E+01
     -3.231  0.1632E+01  0.7078E+01
     -3.148  0.2055E+01  0.7249E+01
     -3.064  0.2747E+01  0.7479E+01
     -2.981  0.2389E+01  0.7678E+01
     -2.897  0.2407E+01  0.7879E+01
     -2.814  0.3405E+01  0.8163E+01
     -2.730  0.4420E+01  0.8532E+01
     -2.647  0.1728E+01  0.8677E+01
     -2.563  0.4536E+00  0.8714E+01
     -2.480  0.4516E+00  0.8752E+01
     -2.396  0.1355E+01  0.8865E+01
     -2.313  0.2434E+01  0.9069E+01
     -2.229  0.2835E+01  0.9305E+01
     -2.146  0.1748E+01  0.9451E+01
     -2.062  0.2757E+01  0.9681E+01
     -1.979  0.9229E+00  0.9758E+01
     -1.896  0.1917E+01  0.9918E+01
     -1.812  0.2839E+01  0.1016E+02
     -1.729  0.3547E+01  0.1045E+02
     -1.645  0.1194E+01  0.1055E+02
     -1.562  0.1492E+01  0.1068E+02
     -1.478  0.1967E+01  0.1084E+02
     -1.395  0.1635E+01  0.1098E+02
     -1.311  0.4508E+01  0.1135E+02
     -1.228  0.2335E+01  0.1155E+02
     -1.144  0.3030E+01  0.1180E+02
     -1.061  0.1925E+01  0.1196E+02
     -0.977  0.1850E+01  0.1212E+02
     -0.894  0.2234E+01  0.1230E+02
     -0.810  0.3274E+01  0.1258E+02
     -0.727  0.2179E+01  0.1276E+02
     -0.643  0.1436E+01  0.1288E+02
     -0.560  0.9831E+00  0.1296E+02
     -0.476  0.2939E+01  0.1321E+02
     -0.393  0.4765E+01  0.1360E+02
     -0.309  0.2486E+01  0.1381E+02
     -0.226  0.3503E+01  0.1410E+02
     -0.142  0.1757E+01  0.1425E+02
     -0.059  0.1204E+01  0.1435E+02
      0.025  0.1161E+01  0.1445E+02
      0.108  0.2972E+01  0.1470E+02
      0.192  0.1980E+01  0.1486E+02
      0.275  0.2325E+01  0.1505E+02
      0.359  0.1915E+01  0.1521E+02
      0.442  0.2472E+01  0.1542E+02
      0.526  0.3509E+01  0.1571E+02
      0.609  0.1421E+01  0.1583E+02
      0.693  0.1677E+01  0.1597E+02
      0.776  0.1174E+01  0.1607E+02
      0.860  0.1710E+01  0.1621E+02
      0.943  0.3662E+01  0.1652E+02
      1.027  0.6109E+01  0.1703E+02
      1.110  0.3187E+01  0.1730E+02
      1.194  0.2162E+01  0.1748E+02
      1.277  0.1862E+01  0.1763E+02
      1.360  0.1718E+01  0.1777E+02
      1.444  0.2237E+01  0.1796E+02
      1.527  0.3204E+01  0.1823E+02
      1.611  0.4015E+01  0.1856E+02
      1.694  0.4042E+01  0.1890E+02
      1.778  0.2315E+01  0.1909E+02
      1.861  0.1523E+01  0.1922E+02
      1.945  0.2667E+01  0.1944E+02
      2.028  0.3602E+01  0.1975E+02
      2.112  0.2259E+01  0.1993E+02
      2.195  0.2183E+01  0.2012E+02
      2.279  0.1711E+01  0.2026E+02
      2.362  0.1963E+01  0.2042E+02
      2.446  0.2755E+01  0.2065E+02
      2.529  0.1774E+01  0.2080E+02
      2.613  0.3582E+01  0.2110E+02
      2.696  0.2683E+01  0.2132E+02
      2.780  0.2037E+01  0.2149E+02
      2.863  0.2451E+01  0.2170E+02
      2.947  0.6688E+01  0.2226E+02
      3.030  0.4922E+01  0.2267E+02
      3.114  0.2600E+01  0.2289E+02
      3.197  0.1597E+01  0.2302E+02
      3.281  0.2349E+01  0.2321E+02
      3.364  0.3531E+01  0.2351E+02
      3.448  0.3520E+01  0.2380E+02
      3.531  0.2939E+01  0.2405E+02
      3.615  0.1792E+01  0.2420E+02
      3.698  0.2784E+01  0.2443E+02
      3.782  0.2018E+01  0.2460E+02
      3.865  0.2090E+01  0.2477E+02
      3.949  0.3727E+01  0.2508E+02
      4.032  0.4384E+01  0.2545E+02
      4.116  0.3084E+01  0.2571E+02
      4.199  0.1069E+01  0.2580E+02
      4.283  0.3027E-01  0.2580E+02
      4.366  0.1495E-04  0.2580E+02
      4.450  0.5054E-10  0.2580E+02
      4.533  0.0000E+00  0.2580E+02
      4.617  0.0000E+00  0.2580E+02
      4.700  0.0000E+00  0.2580E+02
      4.783  0.0000E+00  0.2580E+02
      4.867  0.0000E+00  0.2580E+02
      4.950  0.0000E+00  0.2580E+02
      5.034  0.0000E+00  0.2580E+02
      5.117  0.0000E+00  0.2580E+02
      5.201  0.0000E+00  0.2580E+02
      5.284  0.0000E+00  0.2580E+02
