         262
 Energy:  -931.74825220000002     
 X   0.00000000       0.00000000       0.00000000    
 X   0.00000000      -17.1805725       0.00000000    
 X   0.00000000      -8.59028625      -14.8788128    
 X   30.0000000       0.00000000       0.00000000    
 X   0.00000000      -25.7708588      -14.8788128    
 X   30.0000000      -17.1805725       0.00000000    
 X   30.0000000      -8.59028625      -14.8788128    
 X   30.0000000      -25.7708588      -14.8788128    
 Al   16.4439507      -12.9376402      -9.12275028    
 Al   16.2822094      -14.3899899      -6.57075024    
 Al   16.3373108      -15.7641802      -4.11330986    
 Al   16.3367100      -17.1810398      -1.65347004    
 Al   16.3318901      -18.6155605      -4.13111019    
 Al   16.3367100      -20.0440006      -6.61226988    
 Al   16.3431492      -18.6112709      -9.09716988    
 Al   16.3515396      -17.1690807      -11.5657701    
 Al   16.3431492      -15.7523003      -14.0490503    
 Al   16.3271103      -18.6119003      -14.0524397    
 Al   16.3271103      -21.4761105      -14.0524397    
 Al   16.3515396      -22.9189301      -11.5657701    
 Al   16.3431492      -21.4767399      -9.09716988    
 Al   13.9885502      -20.0440006      -9.91751957    
 Al   13.9873304      -18.6103497      -12.3978901    
 Al   11.6967001      -20.0440006      -13.2256098    
 Al   11.6911297      -21.4792805      -10.7430801    
 Al   9.35289001      -22.9064407      -11.5729799    
 Al   9.35383034      -21.4744492      -14.0514803    
 Al   9.35109997      -24.3428993      -14.0538397    
 Al   11.6911297      -22.9115696      -13.2238903    
 Al   13.9873304      -21.4776497      -12.3978901    
 Al   16.3271103      -20.0440006      -11.5719604    
 Al   16.3373108      -17.2052898      -6.60937977    
 Al   13.9794598      -15.7666998      -7.43983984    
 Al   13.9853201      -17.1907597      -4.95372009    
 Al   11.6883602      -18.6108704      -5.78883982    
 Al   11.6867304      -17.1757698      -8.26881981    
 Al   9.35109997      -18.6118202      -9.08854961    
 Al   9.35289001      -17.1815701      -11.5729799    
 Al   7.01515007      -18.6151505      -12.4006596    
 Al   7.01658010      -20.0440006      -9.92591953    
 Al   4.71038008      -21.4766293      -10.7481604    
 Al   4.70238018      -20.0440006      -13.2256098    
 Al   2.35502005      -21.4790592      -14.0541401    
 Al   2.36761999      -22.9097805      -11.5710497    
 Al   2.37217999      -24.3370609      -14.0507698    
 Al   4.71038008      -22.9058495      -13.2236404    
 Al   7.01515007      -21.4728508      -12.4006596    
 Al   9.35383034      -20.0440006      -11.5738697    
 Al   11.6911297      -18.6087208      -10.7430801    
 Al   13.9984198      -17.1803207      -9.92306995    
 Al   11.6980696      -15.7425098      -10.7421398    
 Al   13.9984198      -15.7520800      -12.3968601    
 Al   13.9794598      -12.8947296      -12.4142504    
 Al   16.2822094      -11.4537201      -11.6565304    
 Al   16.3373108      -10.0126104      -14.0753298    
 Al   16.3373108      -12.8948202      -14.0753298    
 Al   16.3567696      -14.3030796      -11.5800600    
 Al   14.0103703      -14.3057699      -9.91263962    
 Al   16.3567696      -15.7484503      -9.07660007    
 Al   9.35383034      -18.6135502      -14.0514803    
 Al   9.35109997      -15.7451096      -14.0538397    
 Al   11.6867304      -14.3171797      -13.2200403    
 Al   11.6997299      -12.8813400      -10.7392101    
 Al   11.6997299      -10.0260897      -10.7392101    
 Al   11.6867304      -8.59025002      -13.2200403    
 Al   13.9984198      -24.3359203      -12.3968601    
 Al   14.0103703      -8.60165977      -9.91263962    
 Al   16.4439507      -9.96979046      -9.12275028    
 Al   16.3567696      -7.15897989      -9.07660007    
 Al   16.2822094      -8.51743984      -6.57075024    
 Al   16.3567696      -10.0083504      -4.14135981    
 Al   16.3515396      -11.4537201      -1.66647995    
 Al   13.9984198      -12.8819599      -2.47809005    
 Al   13.9885502      -14.3186102      -8.50000011E-04
 Al   11.6878796      -15.7479897     -0.826099992    
 Al   11.6867304      -14.3122997      -3.30914998    
 Al   9.35138035      -15.7456102      -4.13579988    
 Al   9.35929012      -14.3099699      -6.61695004    
 Al   7.01747990      -15.7408199      -7.44076014    
 Al   7.01268005      -14.3104696      -9.91534996    
 Al   4.71907997      -15.7468700      -10.7446604    
 Al   4.71726990      -14.3157101      -13.2254295    
 Al   7.01747990      -12.8825798      -12.3913698    
 Al   9.35929012      -11.4537201      -11.5641203    
 Al   9.35138035      -10.0228004      -14.0480003    
 Al   9.35138035      -12.8846302      -14.0480003    
 Al   11.6863604      -11.4537201      -13.2257996    
 Al   13.9794598      -10.0127001      -12.4142504    
 Al   16.3567696      -8.60435009      -11.5800600    
 Al   9.35109997      -21.4761791      -9.08854961    
 Al   9.35517025      -20.0440006      -6.60957003    
 Al   9.35816956      -18.6119804      -4.13318014    
 Al   9.35517025      -17.1833706      -1.65481997    
 Al   7.01823997      -15.7497196      -2.48123002    
 Al   7.02108002      -12.8839197      -2.47949004    
 Al   7.01268005      -11.4537201      -4.96730995    
 Al   4.71093988      -12.8825598      -5.79212999    
 Al   4.70695019      -11.4537201      -8.26601028    
 Al   2.35477996      -12.8813896      -9.09027958    
 Al   2.35466003      -14.3178701      -6.61239004    
 Al   2.36887002      -15.7508698      -4.13240004    
 Al   4.71726990      -14.3177099      -3.30773997    
 Al   4.71038008      -12.8829403     -0.826219976    
 Al   4.71707010      -15.7511396     -0.827920020    
 Al   7.01658010      -22.9016209      -14.8754501    
 Al   9.35109997      -14.3204298      -1.65564001    
 Al   9.35289001      -11.4537201      -1.65205002    
 Al   11.6911297      -10.0214195     -0.831049979    
 Al   13.9885397      -8.58882046      -8.50000011E-04
 Al   13.9934797      -7.16161013      -2.47666001    
 Al   13.9853096      -5.71667004      -4.95372009    
 Al   13.9934797      -21.4745102      -7.44361019    
 Al   11.6867199      -5.73165989      -8.26881981    
 Al   11.6863499      -7.15841007      -5.78610992    
 Al   9.35929012      -8.59745979      -6.61695004    
 Al   9.35268021      -7.16559982      -9.09202003    
 Al   7.01267004      -8.59696007      -9.91534996    
 Al   7.02107000      -24.3381195      -12.3978596    
 Al   4.71725988      -8.59171963      -13.2254295    
 Al   4.71093988      -10.0256996      -10.7403603    
 Al   2.35465002      -11.4537201      -11.5732498    
 Al   2.36886001      -10.0224895      -14.0542603    
 Al   2.36886001      -12.8849401      -14.0542603    
 Al   2.37217999      -15.7509403      -14.0507698    
 Al   2.36761999      -17.1782303      -11.5710497    
 Al   2.37217999      -18.6120796      -9.09512997    
 Al   4.71726990      -17.1797009      -8.26484966    
 Al   7.01823997      -18.6114807      -7.43795013    
 Al   4.71341991      -18.6116104      -5.78355980    
 Al   7.01683998      -17.1808109      -4.95946980    
 Al   4.71456003      -15.7461004      -5.78779984    
 Al   7.01747990      -14.3119497      -4.96588993    
 Al   9.35268974      -12.8824301      -4.13938999    
 Al   11.6980600      -11.4537201      -3.31374002    
 Al   9.35268021      -10.0249996      -4.13938999    
 Al   11.6997204      -10.0256701      -5.79304981    
 Al   14.0103598      -11.4537096      -4.97273016    
 Al   13.9966698      -10.0158005      -7.43582010    
 Al   11.6742401      -11.4537096      -8.26601028    
 Al   9.36065960      -12.8851900      -9.09247971    
 Al   9.36065006      -10.0222197      -9.09247971    
 Al   7.01771021      -10.0253496      -7.44133997    
 Al   7.01746988      -7.16660976      -7.44075012    
 Al   7.01822996      -4.29594994      -7.43794012    
 Al   7.01682997      -5.72662020      -4.95945978    
 Al   4.71455002      -7.16133022      -5.78779984    
 Al   4.71725988      -8.58971977      -3.30773997    
 Al   4.71037006      -10.0244999     -0.826219976    
 Al   7.01657009      -17.1863899      -14.8754501    
 Al   7.01822996      -7.15772009      -2.48123002    
 Al   9.35136986      -7.16181993      -4.13578987    
 Al   9.35816002      -4.29545021      -4.13317013    
 Al   11.6849804      -2.86342001      -3.30639005    
 Al   13.9863997      -1.43262994      -2.48032999    
 Al   13.9853096      -2.86342001      -1.17499996E-02
 Al   11.6883497      -4.29671001     -0.824039996    
 Al   9.35515976      -5.72406006      -1.65480995    
 Al   11.6878700      -7.15944004     -0.826089978    
 Al   11.6867199      -8.59512043      -3.30913997    
 Al   13.9984102      -10.0254602      -2.47809005    
 Al   16.3431396      -8.59473991      -1.65179002    
 Al   16.3367004      -5.72637987      -1.65346003    
 Al   16.3318806      -4.29186010      -4.13110018    
 Al   16.3372993      -7.14323997      -4.11329985    
 Al   16.3372993      -5.70212984      -6.60937023    
 Al   13.9794502      -7.14071989      -7.43982983    
 Al   13.9794502      -8.58172989      -4.94393015    
 Al   7.01772022      -12.8820801      -7.44133997    
 Al   9.36065960      -11.4537201      -6.61307001    
 Al   11.6911297      -12.8860102     -0.831049979    
 Al   13.9873304      -11.4537201      -2.24000006E-03
 Al   13.9934902      -18.6134892      -7.44361019    
 Al   11.6878796      -20.0440006      -8.26700974    
 Al   2.37468004      -14.3126297      -11.5728397    
 Al   4.71093988      -12.8817396      -10.7403603    
 Al   7.01772022      -11.4537096      -9.91534042    
 Al   7.01746988      -10.0248404      -12.3913698    
 Al   9.35268021      -8.59430027      -11.5666199    
 Al   11.6980600      -7.16490984      -10.7421398    
 Al   13.9984102      -22.9076691      -9.92306995    
 Al   2.37468004      -15.7469702      -9.08848953    
 Al   4.71093988      -14.3105803      -8.26552963    
 Al   4.71455002      -11.4537201      -13.2224197    
 Al   2.36888003      -17.1821003      -6.61136007    
 Al   2.36664009      -20.0440006      -6.61328983    
 Al   2.37219000      -21.4759197      -9.09512997    
 Al   4.71708012      -20.0439892      -8.26336956    
 Al   4.71038008      -18.6113701      -10.7481604    
 Al   7.02108002      -17.1800804      -9.92066956    
 Al   9.35268974      -15.7418203      -9.09202003    
 Al   11.6997299      -14.3093700      -8.26576042    
 Al   13.9966803      -12.8915997      -7.43583012    
 Al   11.6997299      -12.8817501      -5.79304981    
 Al   11.6863604      -15.7490196      -5.78610992    
 Al   13.9794598      -14.3256702      -4.94393015    
 Al   16.3567696      -12.8990698      -4.14136982    
 Al   16.3431606      -14.3126602      -1.65181005    
 Al   13.9934998      -15.7458000      -2.47666001    
 Al   11.6883698      -17.1775703      -3.30631995    
 Al   2.35909009      -18.6111698      -4.13364983    
 Al   2.36664009      -17.1801605      -1.65295994    
 Al   4.71342993      -17.1825294      -3.30831003    
 Al   7.02108002      -15.7498798      -12.3978596    
 Al   9.35268974      -14.3131104      -11.5666199    
 Al   2.35503006      -20.0440006      -11.5685396    
 Al   2.35502005      -18.6089401      -14.0541401    
 Al   4.71038008      -17.1821404      -13.2236404    
 Al   2.37217999      -14.3148699      -1.65211999    
 Al   2.36760998      -11.4537296      -1.65591002    
 Al   2.37466002      -10.0193901      -4.13670015    
 Al   2.35462999      -8.58957005      -6.61239004    
 Al   2.37463999      -7.16047001      -9.08848953    
 Al   4.71722984      -5.72772980      -8.26484966    
 Al   4.71903992      -7.16056013      -10.7446604    
 Al   7.02103996      -22.9078999      -9.92066956    
 Al   2.37467003      -12.8880596      -4.13670015    
 Al   4.71906996      -11.4537201      -3.30870008    
 Al   7.02105999      -10.0235004      -2.47949004    
 Al   9.35107994      -8.58699036      -1.65565002    
 Al   4.71091986      -10.0248699      -5.79212999    
 Al   7.01745987      -8.59547043      -4.96588993    
 Al   2.35475993      -11.4537296      -6.61746979    
 Al   2.35474992      -10.0260496      -9.09027958    
 Al   4.71090984      -8.59685040      -8.26552963    
 Al   2.37465000      -8.59480953      -11.5728397    
 Al   7.01514006      -20.0440006      -14.8755198    
 Al   9.35136986      -17.1765099      -6.61422014    
 Al   9.35138035      -5.73090982      -6.61422014    
 Al   11.6883602      -4.29657984      -5.78883982    
 Al   13.9864197      -2.86345005      -4.95852995    
 Al   13.9869099      -4.29483986      -2.48069000    
 Al   16.3323994      -2.86405993      -1.65734005    
 Al   11.6911297      -17.1764297      -13.2238903    
 Al   11.6997204      -8.59805012      -8.26574993    
 Al   11.6883602      -5.72984982      -3.30631995    
 Al   13.9966898      -11.4537201      -9.92636013    
 Al   13.9934902      -14.3213902      -14.8777399    
 Al   16.4439507      -11.4537001      -6.55251980    
 Al   2.36882997      -5.72533989      -6.61135006    
 Al   2.35904002      -4.29626989      -4.13364983    
 Al   4.70754004      -2.86343002      -3.30640006    
 Al   7.01859999      -1.43467999      -2.48151994    
 Al   7.01679993      -2.86342001      -2.69999990E-04
 Al   4.71338987      -4.29251003     -0.827340007    
 Al   2.36660004      -5.72728014      -1.65295994    
 Al   4.71705008      -7.15629005     -0.827920020    
 Al   7.01820993      -5.72518015      -2.99999992E-05
 Al   7.01859999      -4.29216003      -2.48151994    
 Al   9.35813046      -2.86342001      -1.65285003    
 Al   11.6883202      -1.43011999     -0.824060023    
 Al   13.9934397      -25.7665901      -14.8777704    
 Al   2.36883998      -7.15656996      -4.13240004    
 Al   4.71338987      -5.72489977      -3.30831003    
 Al   4.71337986      -4.29582024      -5.78355980    
 Al   7.01859999      -2.86342001      -4.95617008    
 Al   2.37215996      -8.59257984      -1.65211999    
 Al   2.35904002      -2.86344004      -1.65190995    
 Al   4.71337986      -1.43434000     -0.827340007    
 Al   7.01819992      -1.67000003E-03  -2.99999992E-05
 Al   16.3431492      -24.3356991      -14.0490503    
 N    17.1457996      -11.4537201      -8.26601028    
 N    18.1471004      -11.2140903      -7.87874985    
         262
 Energy:  -932.23044619999996     
 X   0.00000000       0.00000000       0.00000000    
 X   0.00000000      -17.1805725       0.00000000    
 X   0.00000000      -8.59028625      -14.8788128    
 X   30.0000000       0.00000000       0.00000000    
 X   0.00000000      -25.7708588      -14.8788128    
 X   30.0000000      -17.1805725       0.00000000    
 X   30.0000000      -8.59028625      -14.8788128    
 X   30.0000000      -25.7708588      -14.8788128    
 Al   16.4108505      -12.9773397      -9.14789963    
 Al   16.2847500      -14.3858995      -6.57247019    
 Al   16.3373203      -15.7640104      -4.11323023    
 Al   16.3368092      -17.1809502      -1.65342999    
 Al   16.3320694      -18.6157494      -4.13095999    
 Al   16.3369007      -20.0439606      -6.61220980    
 Al   16.3432198      -18.6112099      -9.09708023    
 Al   16.3514099      -17.1693401      -11.5659199    
 Al   16.3432407      -15.7520399      -14.0490704    
 Al   16.3274803      -18.6118908      -14.0525503    
 Al   16.3275700      -21.4759808      -14.0523996    
 Al   16.3514805      -22.9192600      -11.5655203    
 Al   16.3432198      -21.4765797      -9.09727001    
 Al   13.9890299      -20.0440807      -9.91759968    
 Al   13.9871702      -18.6102200      -12.3979301    
 Al   11.6969805      -20.0441093      -13.2259398    
 Al   11.6913300      -21.4797707      -10.7435398    
 Al   9.35286045      -22.9064198      -11.5729599    
 Al   9.35342026      -21.4746304      -14.0515499    
 Al   9.35120010      -24.3426208      -14.0539198    
 Al   11.6912203      -22.9112892      -13.2237501    
 Al   13.9870396      -21.4775696      -12.3979502    
 Al   16.3273506      -20.0438595      -11.5717201    
 Al   16.3371601      -17.2054501      -6.60950994    
 Al   13.9802704      -15.7659798      -7.44013023    
 Al   13.9855499      -17.1906509      -4.95373011    
 Al   11.6883297      -18.6110001      -5.78885984    
 Al   11.6864405      -17.1761703      -8.26887035    
 Al   9.35114956      -18.6119194      -9.08876038    
 Al   9.35291004      -17.1815701      -11.5729399    
 Al   7.01525021      -18.6150303      -12.4006100    
 Al   7.01643991      -20.0438805      -9.92574024    
 Al   4.71051979      -21.4764805      -10.7479200    
 Al   4.70246983      -20.0439091      -13.2256699    
 Al   2.35512996      -21.4790592      -14.0541601    
 Al   2.36723995      -22.9100494      -11.5708904    
 Al   2.37200999      -24.3372707      -14.0507298    
 Al   4.71058989      -22.9058800      -13.2238102    
 Al   7.01539993      -21.4729404      -12.4007597    
 Al   9.35352993      -20.0439796      -11.5735502    
 Al   11.6912298      -18.6083908      -10.7435198    
 Al   13.9984903      -17.1802902      -9.92280006    
 Al   11.6980600      -15.7423697      -10.7420797    
 Al   13.9984503      -15.7519503      -12.3969498    
 Al   13.9801397      -12.8946695      -12.4137096    
 Al   16.2845592      -11.4534998      -11.6518602    
 Al   16.3374405      -10.0124397      -14.0754700    
 Al   16.3374100      -12.8950300      -14.0755997    
 Al   16.3566704      -14.3039904      -11.5804100    
 Al   14.0106697      -14.3073397      -9.91343021    
 Al   16.3568001      -15.7491798      -9.07723045    
 Al   9.35344028      -18.6134109      -14.0517101    
 Al   9.35109997      -15.7452898      -14.0537500    
 Al   11.6864405      -14.3173504      -13.2201796    
 Al   11.6991501      -12.8815098      -10.7392597    
 Al   11.6990404      -10.0258198      -10.7397499    
 Al   11.6863298      -8.59010983      -13.2203302    
 Al   13.9984102      -24.3357391      -12.3972397    
 Al   14.0093803      -8.60033989      -9.91366959    
 Al   16.4078293      -9.92230988      -9.15205002    
 Al   16.3570499      -7.15887022      -9.07711983    
 Al   16.2846394      -8.52140045      -6.57297993    
 Al   16.3565006      -10.0086699      -4.14059019    
 Al   16.3516998      -11.4536104      -1.66676998    
 Al   13.9980898      -12.8820601      -2.47756004    
 Al   13.9886703      -14.3185797      -6.99999975E-04
 Al   11.6877604      -15.7481098     -0.826210022    
 Al   11.6864500      -14.3121796      -3.30893993    
 Al   9.35142040      -15.7456999      -4.13603020    
 Al   9.35925007      -14.3105001      -6.61666012    
 Al   7.01738024      -15.7410603      -7.44089985    
 Al   7.01280022      -14.3108196      -9.91549015    
 Al   4.71892977      -15.7468004      -10.7446604    
 Al   4.71721983      -14.3155699      -13.2253599    
 Al   7.01721001      -12.8827496      -12.3916702    
 Al   9.35912037      -11.4537897      -11.5646000    
 Al   9.35153008      -10.0230904      -14.0481596    
 Al   9.35155010      -12.8843403      -14.0480700    
 Al   11.6863804      -11.4537001      -13.2254696    
 Al   13.9803495      -10.0129004      -12.4135599    
 Al   16.3570099      -8.60389996      -11.5799999    
 Al   9.35116005      -21.4759808      -9.08864975    
 Al   9.35496044      -20.0441303      -6.60941982    
 Al   9.35848999      -18.6119194      -4.13328981    
 Al   9.35507965      -17.1835098      -1.65480006    
 Al   7.01836014      -15.7495403      -2.48117995    
 Al   7.02080011      -12.8839302      -2.47967005    
 Al   7.01313019      -11.4536896      -4.96694994    
 Al   4.71127987      -12.8829002      -5.79151011    
 Al   4.70774984      -11.4538202      -8.26603985    
 Al   2.35489011      -12.8818197      -9.09053993    
 Al   2.35464001      -14.3182402      -6.61219978    
 Al   2.36868000      -15.7506304      -4.13250017    
 Al   4.71706009      -14.3174295      -3.30794001    
 Al   4.71066999      -12.8830996     -0.826150000    
 Al   4.71694994      -15.7511396     -0.827920020    
 Al   7.01652002      -22.9017391      -14.8755798    
 Al   9.35116959      -14.3201504      -1.65534997    
 Al   9.35282040      -11.4537497      -1.65195000    
 Al   11.6912603      -10.0219097     -0.831269979    
 Al   13.9887695      -8.58895016      -7.50000007E-04
 Al   13.9933996      -7.16153002      -2.47650003    
 Al   13.9855204      -5.71681976      -4.95377016    
 Al   13.9933100      -21.4742699      -7.44366980    
 Al   11.6865597      -5.73160982      -8.26891994    
 Al   11.6865301      -7.15888977      -5.78631020    
 Al   9.35947037      -8.59696007      -6.61652994    
 Al   9.35311985      -7.16559982      -9.09212971    
 Al   7.01299000      -8.59665966      -9.91545963    
 Al   7.02090979      -24.3382797      -12.3978901    
 Al   4.71711016      -8.59177017      -13.2251797    
 Al   4.71123981      -10.0253496      -10.7409801    
 Al   2.35486007      -11.4538097      -11.5736198    
 Al   2.36863995      -10.0225401      -14.0541296    
 Al   2.36875010      -12.8849497      -14.0541296    
 Al   2.37206006      -15.7508202      -14.0507202    
 Al   2.36736989      -17.1780891      -11.5708303    
 Al   2.37198997      -18.6119900      -9.09512997    
 Al   4.71713018      -17.1794491      -8.26465988    
 Al   7.01841021      -18.6114902      -7.43823004    
 Al   4.71342993      -18.6116505      -5.78352022    
 Al   7.01675987      -17.1806793      -4.95978022    
 Al   4.71427011      -15.7460899      -5.78787994    
 Al   7.01741982      -14.3118696      -4.96559000    
 Al   9.35324001      -12.8823605      -4.13921022    
 Al   11.6980896      -11.4536104      -3.31422997    
 Al   9.35338974      -10.0251398      -4.13931990    
 Al   11.6981297      -10.0250702      -5.79233980    
 Al   14.0090399      -11.4538403      -4.97114992    
 Al   14.0021696      -10.0185900      -7.43720007    
 Al   11.6765900      -11.4538298      -8.26624966    
 Al   9.35999012      -12.8851500      -9.09249973    
 Al   9.35955048      -10.0222702      -9.09251976    
 Al   7.01788998      -10.0253897      -7.44131994    
 Al   7.01733017      -7.16619015      -7.44098997    
 Al   7.01846981      -4.29591990      -7.43808985    
 Al   7.01683998      -5.72681999      -4.95966005    
 Al   4.71429014      -7.16126013      -5.78777981    
 Al   4.71704006      -8.58983040      -3.30802011    
 Al   4.71054983      -10.0243196     -0.826210022    
 Al   7.01661015      -17.1861992      -14.8754797    
 Al   7.01837015      -7.15792990      -2.48122001    
 Al   9.35157967      -7.16160011      -4.13592005    
 Al   9.35834026      -4.29565001      -4.13331985    
 Al   11.6851301      -2.86348009      -3.30644011    
 Al   13.9862804      -1.43255997      -2.48035002    
 Al   13.9856195      -2.86349010      -1.15299998E-02
 Al   11.6883297      -4.29673004     -0.824209988    
 Al   9.35501003      -5.72403002      -1.65499997    
 Al   11.6879396      -7.15920019     -0.826129973    
 Al   11.6866999      -8.59541988      -3.30912995    
 Al   13.9981298      -10.0252705      -2.47768998    
 Al   16.3434105      -8.59467983      -1.65155005    
 Al   16.3369694      -5.72658014      -1.65353000    
 Al   16.3322601      -4.29176998      -4.13105011    
 Al   16.3374805      -7.14343023      -4.11342001    
 Al   16.3374100      -5.70241022      -6.60946989    
 Al   13.9801798      -7.14142990      -7.43971014    
 Al   13.9799900      -8.58189011      -4.94437981    
 Al   7.01769018      -12.8821201      -7.44136000    
 Al   9.35945988      -11.4536896      -6.61311007    
 Al   11.6912298      -12.8857899     -0.831279993    
 Al   13.9872799      -11.4535799      -1.79999997E-03
 Al   13.9933300      -18.6138401      -7.44356012    
 Al   11.6877499      -20.0439396      -8.26663017    
 Al   2.37445998      -14.3127403      -11.5729904    
 Al   4.71119022      -12.8820000      -10.7410097    
 Al   7.01764011      -11.4537497      -9.91530991    
 Al   7.01721001      -10.0246696      -12.3916302    
 Al   9.35297966      -8.59420013      -11.5666103    
 Al   11.6980896      -7.16515017      -10.7417698    
 Al   13.9983196      -22.9070606      -9.92304039    
 Al   2.37449002      -15.7473097      -9.08864021    
 Al   4.71106005      -14.3112602      -8.26543999    
 Al   4.71442986      -11.4536800      -13.2222795    
 Al   2.36880994      -17.1819191      -6.61147022    
 Al   2.36666012      -20.0440502      -6.61351013    
 Al   2.37210989      -21.4759998      -9.09488010    
 Al   4.71701002      -20.0440292      -8.26350021    
 Al   4.71043015      -18.6114807      -10.7481604    
 Al   7.02107000      -17.1800900      -9.92053032    
 Al   9.35278034      -15.7418203      -9.09214020    
 Al   11.6990995      -14.3096905      -8.26581001    
 Al   14.0000496      -12.8888197      -7.43728018    
 Al   11.6984196      -12.8822699      -5.79220009    
 Al   11.6864996      -15.7485304      -5.78631020    
 Al   13.9803400      -14.3251696      -4.94430017    
 Al   16.3570194      -12.8986197      -4.14145994    
 Al   16.3434792      -14.3128204      -1.65175998    
 Al   13.9934397      -15.7459898      -2.47660995    
 Al   11.6884298      -17.1775894      -3.30645990    
 Al   2.35911989      -18.6111507      -4.13349009    
 Al   2.36658001      -17.1801205      -1.65294003    
 Al   4.71323013      -17.1825104      -3.30814004    
 Al   7.02105999      -15.7497396      -12.3979702    
 Al   9.35282993      -14.3132095      -11.5667496    
 Al   2.35496998      -20.0439701      -11.5685101    
 Al   2.35507989      -18.6089096      -14.0541697    
 Al   4.71045017      -17.1822395      -13.2236500    
 Al   2.37199998      -14.3149700      -1.65243995    
 Al   2.36736989      -11.4537897      -1.65620995    
 Al   2.37419009      -10.0192404      -4.13648987    
 Al   2.35454988      -8.58938980      -6.61214018    
 Al   2.37432003      -7.16001987      -9.08864021    
 Al   4.71701002      -5.72801018      -8.26471043    
 Al   4.71881008      -7.16059017      -10.7447395    
 Al   7.02088022      -22.9080105      -9.92047977    
 Al   2.37436008      -12.8881102      -4.13631010    
 Al   4.71878004      -11.4537802      -3.30866003    
 Al   7.02080011      -10.0234003      -2.47977996    
 Al   9.35099030      -8.58712959      -1.65530002    
 Al   4.71110010      -10.0244904      -5.79138994    
 Al   7.01728010      -8.59552956      -4.96538019    
 Al   2.35455990      -11.4536800      -6.61681986    
 Al   2.35486007      -10.0256500      -9.09057999    
 Al   4.71110010      -8.59611034      -8.26552010    
 Al   2.37445998      -8.59451008      -11.5729303    
 Al   7.01539993      -20.0440102      -14.8756399    
 Al   9.35134983      -17.1764393      -6.61389017    
 Al   9.35140038      -5.73081017      -6.61396980    
 Al   11.6882401      -4.29655981      -5.78893995    
 Al   13.9866896      -2.86360002      -4.95872021    
 Al   13.9868603      -4.29495001      -2.48084998    
 Al   16.3324108      -2.86389995      -1.65752006    
 Al   11.6911898      -17.1767693      -13.2235203    
 Al   11.6984301      -8.59729958      -8.26554012    
 Al   11.6882000      -5.72984982      -3.30640006    
 Al   14.0001297      -11.4538603      -9.92348003    
 Al   13.9934196      -14.3215103      -14.8780499    
 Al   16.4188099      -11.4529696      -6.49831009    
 Al   2.36877990      -5.72544003      -6.61159992    
 Al   2.35910010      -4.29618979      -4.13363981    
 Al   4.70749998      -2.86338997      -3.30629992    
 Al   7.01866007      -1.43462002      -2.48131990    
 Al   7.01672983      -2.86352992      -1.99999995E-05
 Al   4.71333981      -4.29253006     -0.827319980    
 Al   2.36657000      -5.72747993      -1.65287006    
 Al   4.71687984      -7.15631008     -0.827910006    
 Al   7.01809978      -5.72525978       1.19999997E-04
 Al   7.01848984      -4.29229021      -2.48130012    
 Al   9.35840034      -2.86332989      -1.65278995    
 Al   11.6883497      -1.43013000     -0.824050009    
 Al   13.9933596      -25.7664700      -14.8780003    
 Al   2.36873007      -7.15688992      -4.13231993    
 Al   4.71327019      -5.72500992      -3.30821991    
 Al   4.71332979      -4.29573011      -5.78363991    
 Al   7.01851988      -2.86337996      -4.95652008    
 Al   2.37205005      -8.59237957      -1.65241003    
 Al   2.35904002      -2.86331010      -1.65184999    
 Al   4.71317005      -1.43428004     -0.827449977    
 Al   7.01830006      -1.59000000E-03   7.99999980E-05
 Al   16.3431892      -24.3358994      -14.0492296    
 N    16.8760700      -11.5460901      -8.41390991    
 N    18.4943409      -11.1292801      -7.72973013    
         262
 Energy:  -932.72241059999999     
 X   0.00000000       0.00000000       0.00000000    
 X   0.00000000      -17.1805725       0.00000000    
 X   0.00000000      -8.59028625      -14.8788128    
 X   30.0000000       0.00000000       0.00000000    
 X   0.00000000      -25.7708588      -14.8788128    
 X   30.0000000      -17.1805725       0.00000000    
 X   30.0000000      -8.59028625      -14.8788128    
 X   30.0000000      -25.7708588      -14.8788128    
 Al   16.4165401      -12.9705095      -9.14356995    
 Al   16.2843094      -14.3865995      -6.57216978    
 Al   16.3373203      -15.7640400      -4.11323977    
 Al   16.3367901      -17.1809597      -1.65342999    
 Al   16.3320408      -18.6157207      -4.13098001    
 Al   16.3368702      -20.0439606      -6.61221981    
 Al   16.3432102      -18.6112194      -9.09710026    
 Al   16.3514309      -17.1693001      -11.5658903    
 Al   16.3432293      -15.7520905      -14.0490599    
 Al   16.3274193      -18.6118908      -14.0525303    
 Al   16.3274899      -21.4759998      -14.0524101    