         262
 Energy:  -934.90081580000003     
 X   0.00000000       0.00000000       0.00000000    
 X   0.00000000      -17.1805725       0.00000000    
 X   0.00000000      -8.59028625      -14.8788128    
 X   30.0000000       0.00000000       0.00000000    
 X   0.00000000      -25.7708588      -14.8788128    
 X   30.0000000      -17.1805725       0.00000000    
 X   30.0000000      -8.59028625      -14.8788128    
 X   30.0000000      -25.7708588      -14.8788128    
 Al   16.4139309      -12.9444599      -9.26169968    
 Al   16.3402004      -14.3325500      -6.61102009    
 Al   16.3423901      -15.7717505      -4.13533020    
 Al   16.3434906      -17.1896801      -1.67112994    
 Al   16.3416195      -18.6175194      -4.14364004    
 Al   16.3473492      -20.0447102      -6.61526012    
 Al   16.3464909      -18.6095200      -9.09698963    
 Al   16.3428707      -17.1852493      -11.5663996    
 Al   16.3484306      -15.7506704      -14.0431995    
 Al   16.3320694      -18.6029892      -14.0269403    
 Al   16.3334808      -21.4806900      -14.0273199    
 Al   16.3418198      -22.8966198      -11.5701199    
 Al   16.3488808      -21.4731598      -9.09502029    
 Al   13.9918098      -20.0407391      -9.91666031    
 Al   13.9853296      -18.6147308      -12.4006996    
 Al   11.6906500      -20.0451698      -13.2180500    
 Al   11.6869802      -21.4812393      -10.7364902    
 Al   9.34436989      -22.9063301      -11.5738001    
 Al   9.34393024      -21.4745502      -14.0476999    
 Al   9.34584045      -24.3371601      -14.0528402    
 Al   11.6775904      -22.9069901      -13.2218399    
 Al   13.9862499      -21.4714203      -12.4014797    
 Al   16.3328705      -20.0412197      -11.5621099    
 Al   16.3504696      -17.1864204      -6.62350988    
 Al   14.0021000      -15.7363396      -7.44787979    
 Al   13.9982500      -17.1808891      -4.96244001    
 Al   11.6980000      -18.6050491      -5.78715992    
 Al   11.6923904      -17.1707497      -8.26601028    
 Al   9.35429001      -18.6111298      -9.08891010    
 Al   9.35044003      -17.1777096      -11.5717297    
 Al   7.01704979      -18.6156502      -12.3969603    
 Al   7.01551008      -20.0442009      -9.92275047    
 Al   4.71222019      -21.4760208      -10.7457600    
 Al   4.70947981      -20.0445404      -13.2215500    
 Al   2.36162996      -21.4797192      -14.0499496    
 Al   2.36255002      -22.9105301      -11.5699396    
 Al   2.37505007      -24.3398209      -14.0516500    
 Al   4.71367979      -22.9041500      -13.2213497    
 Al   7.01411009      -21.4729900      -12.3976402    
 Al   9.35116959      -20.0423107      -11.5728998    
 Al   11.6894102      -18.6088009      -10.7357903    
 Al   13.9925604      -17.1870003      -9.92407036    
 Al   11.6876297      -15.7436600      -10.7451000    
 Al   13.9867897      -15.7610703      -12.4084501    
 Al   13.9694700      -12.8959703      -12.4262600    
 Al   16.2803707      -11.4552002      -11.7383604    
 Al   16.3238792      -10.0062504      -14.1113997    
 Al   16.3293304      -12.9102402      -14.1027403    
 Al   16.3313103      -14.3398199      -11.6201897    
 Al   13.9862900      -14.3144302      -9.93010998    
 Al   16.3488903      -15.7503796      -9.10760975    
 Al   9.34885979      -18.6117706      -14.0474901    
 Al   9.34836960      -15.7489700      -14.0529203    
 Al   11.6804104      -14.3232603      -13.2324200    
 Al   11.6886501      -12.8747196      -10.7482405    
 Al   11.6847496      -10.0364504      -10.7493095    
 Al   11.6765699      -8.58850002      -13.2338696    
 Al   13.9772596      -24.3191204      -12.4206896    
 Al   13.9719496      -8.57264996      -9.94865990    
 Al   16.4120293      -9.92568016      -9.32223988    
 Al   16.3428307      -7.15699005      -9.10665989    
 Al   16.3611908      -8.61507034      -6.61892986    
 Al   16.3231907      -9.96407986      -3.97476006    
 Al   16.3301792      -11.4514599      -1.57692003    
 Al   13.9739504      -12.8908195      -2.44655991    
 Al   13.9847403      -14.3184204       1.85999996E-03
 Al   11.6804705      -15.7491102     -0.832130015    
 Al   11.6861801      -14.3150902      -3.31135011    
 Al   9.35560036      -15.7472095      -4.13455009    
 Al   9.35797977      -14.3133802      -6.61524010    
 Al   7.01318979      -15.7423801      -7.43863010    
 Al   7.01582003      -14.3117704      -9.91660976    
 Al   4.70922995      -15.7487497      -10.7446499    
 Al   4.71093988      -14.3150597      -13.2217197    
 Al   7.01629019      -12.8857899      -12.3950596    
 Al   9.35595989      -11.4554396      -11.5745497    
 Al   9.34751034      -10.0234404      -14.0511198    
 Al   9.34877968      -12.8846998      -14.0508003    
 Al   11.6814604      -11.4565201      -13.2373695    
 Al   13.9643602      -10.0165596      -12.4283895    
 Al   16.3179398      -8.54502964      -11.6603098    
 Al   9.35406017      -21.4782104      -9.08917046    
 Al   9.35826015      -20.0447903      -6.60801983    
 Al   9.36242962      -18.6149006      -4.13485003    
 Al   9.34743977      -17.1835003      -1.65820003    
 Al   7.01872015      -15.7462101      -2.48157001    
 Al   7.01885986      -12.8856897      -2.48386002    
 Al   7.01684999      -11.4545097      -4.96192980    
 Al   4.71410990      -12.8851404      -5.78602982    
 Al   4.71905994      -11.4547195      -8.26834965    
 Al   2.36301994      -12.8903599      -9.09234047    
 Al   2.35605001      -14.3218899      -6.61382008    
 Al   2.35792994      -15.7503595      -4.13250017    
 Al   4.71016979      -14.3169603      -3.30871010    
 Al   4.71220016      -12.8829803     -0.825320005    
 Al   4.71644020      -15.7488499     -0.828360021    
 Al   7.01325989      -22.9022999      -14.8763905    
 Al   9.34846020      -14.3167105      -1.65691996    
 Al   9.34000015      -11.4537001      -1.65303004    
 Al   11.6769896      -10.0229301     -0.818520010    
 Al   13.9871798      -8.58670044       6.33999985E-03
 Al   13.9974699      -7.16099977      -2.48198009    
 Al   13.9982700      -5.72630978      -4.96208000    
 Al   14.0022097      -4.29660988      -7.43943024    
 Al   11.6919403      -5.74088001      -8.26578999    
 Al   11.7013397      -7.16858006      -5.78751993    
 Al   9.35709953      -8.59327030      -6.61381006    
 Al   9.35947990      -7.17154980      -9.08868980    
 Al   7.01512003      -8.59642982      -9.91773033    
 Al   7.01540995      -7.16238022      -12.3967104    
 Al   4.70853996      -8.59366035      -13.2211103    
 Al   4.70756006      -10.0184097      -10.7483301    
 Al   2.34709001      -11.4534101      -11.5718699    
 Al   2.36207008      -10.0231705      -14.0503101    
 Al   2.36341000      -12.8845501      -14.0515404    
 Al   2.37601995      -15.7500200      -14.0515404    
 Al   2.36370993      -17.1784306      -11.5704498    
 Al   2.36608005      -18.6126003      -9.09364986    
 Al   4.70868015      -17.1800900      -8.26655006    
 Al   7.01743984      -18.6100197      -7.43589020    
 Al   4.70605993      -18.6128292      -5.78530979    
 Al   7.01164007      -17.1796398      -4.95835018    
 Al   4.70692015      -15.7499599      -5.78862000    
 Al   7.01772022      -14.3111296      -4.96119022    
 Al   9.35824013      -12.8846502      -4.14437008    
 Al   11.6793699      -11.4525805      -3.30411005    
 Al   9.35886002      -10.0225201      -4.14404011    
 Al   11.7148399      -10.0260201      -5.80589008    
 Al   13.9695997      -11.4523296      -4.90594006    
 Al   14.1143799      -10.0459204      -7.46083021    
 Al   11.7359200      -11.4523497      -8.26243019    
 Al   9.35659027      -12.8801804      -9.08724022    
 Al   9.35474014      -10.0283098      -9.08673000    
 Al   7.01227999      -10.0217199      -7.43861008    
 Al   7.01415014      -7.16451979      -7.43894005    
 Al   7.01631021      -4.29707003      -7.43601990    
 Al   7.01339006      -5.72805977      -4.95809984    
 Al   4.71053982      -7.15635014      -5.78847980    
 Al   4.71088982      -8.58987999      -3.30781007    
 Al   4.71210003      -10.0230103     -0.825810015    
 Al   7.01479006      -17.1872501      -14.8757200    
 Al   7.01905012      -7.16142988      -2.48081994    
 Al   9.35721970      -7.16018009      -4.13499022    
 Al   9.36328983      -4.29365015      -4.13445997    
 Al   11.6931801      -2.86484003      -3.30930996    
 Al   13.9909496      -1.43254006      -2.48737001    
 Al   13.9815798      -2.86580992      -2.54400000E-02
 Al   11.6834698      -4.29773998     -0.832050025    
 Al   9.34967995      -5.72555017      -1.65725005    
 Al   11.6834402      -7.15759993     -0.830429971    
 Al   11.6890001      -8.59401989      -3.31047010    
 Al   13.9763002      -10.0150604      -2.44884992    
 Al   16.3471394      -8.55745983      -1.60029995    
 Al   16.3477898      -5.72377014      -1.67042005    
 Al   16.3423901      -4.29160976      -4.14305019    
 Al   16.3446007      -7.14713001      -4.14055014    
 Al   16.3500099      -5.73047018      -6.62102985    
 Al   14.0025501      -7.16485977      -7.44566011    
 Al   14.0023899      -8.59556007      -4.96746016    
 Al   7.01233006      -12.8865700      -7.43798018    
 Al   9.35916996      -11.4534702      -6.61876011    
 Al   11.6746101      -12.8816996     -0.819610000    
 Al   13.9808998      -11.4537296       6.18000003E-03
 Al   14.0014696      -18.6082802      -7.44050980    
 Al   11.6931496      -20.0454693      -8.26047039    
 Al   2.35507989      -14.3191099      -11.5738897    
 Al   4.70761013      -12.8882704      -10.7488804    
 Al   7.01422024      -11.4547901      -9.92183971    
 Al   7.01582003      -10.0227804      -12.3949900    
 Al   9.35254955      -8.59681034      -11.5654001    
 Al   11.6784897      -7.16395998      -10.7457304    
 Al   13.9875898      -22.8918304      -9.92936993    
 Al   2.36006999      -15.7515497      -9.09095001    
 Al   4.70990992      -14.3204603      -8.26826000    
 Al   4.70687008      -11.4534702      -13.2242804    
 Al   2.35559011      -17.1825409      -6.60960007    
 Al   2.36045003      -20.0442696      -6.61291981    
 Al   2.36616993      -21.4758492      -9.09290981    
 Al   4.71237993      -20.0435390      -8.26572037    
 Al   4.71282005      -18.6123791      -10.7452497    
 Al   7.01875019      -17.1770592      -9.91543961    
 Al   9.36073971      -15.7340803      -9.08981037    
 Al   11.7106600      -14.2947502      -8.25975037    
 Al   14.1096697      -12.8446102      -7.44910002    
 Al   11.7131500      -12.8807001      -5.80483007    
 Al   11.7013702      -15.7374802      -5.78939009    
 Al   14.0010700      -14.3101397      -4.96577978    
 Al   16.3274994      -12.9603901      -3.95286989    
 Al   16.3471107      -14.3518496      -1.59840000    
 Al   13.9950705      -15.7455397      -2.48193002    
 Al   11.6925898      -17.1761608      -3.31100011    
 Al   2.35549998      -18.6094303      -4.13221979    
 Al   2.36672997      -17.1809998      -1.65472996    
 Al   4.71123981      -17.1787491      -3.30714989    
 Al   7.01817989      -15.7483702      -12.3959103    
 Al   9.35488987      -14.3117704      -11.5647497    
 Al   2.36016011      -20.0441303      -11.5641899    
 Al   2.36238003      -18.6070995      -14.0491199    
 Al   4.71459007      -17.1825199      -13.2227497    
 Al   2.36928010      -14.3188801      -1.65497005    
 Al   2.36324000      -11.4536695      -1.65286005    
 Al   2.36673999      -10.0193005      -4.13434982    
 Al   2.36114001      -8.58290005      -6.61335993    
 Al   2.35932994      -7.15530014      -9.09062958    
 Al   4.70852995      -5.72821999      -8.26581955    
 Al   4.70799017      -7.15785980      -10.7443399    
 Al   7.01625013      -5.73168993      -9.91464043    
 Al   2.36471009      -12.8883896      -4.13486004    
 Al   4.71258020      -11.4534101      -3.30307007    
 Al   7.01913023      -10.0226297      -2.48377991    
 Al   9.34988022      -8.59041977      -1.65799999    
 Al   4.71546984      -10.0199699      -5.78467989    
 Al   7.01796007      -8.59650993      -4.96083021    
 Al   2.37740993      -11.4537601      -6.61553001    
 Al   2.36558008      -10.0174198      -9.09399033    
 Al   4.71133995      -8.58681011      -8.26898003    
 Al   2.35279012      -8.59004021      -11.5727501    
 Al   7.01493979      -20.0443497      -14.8724899    
 Al   9.35698032      -17.1734104      -6.60906982    
 Al   9.35743999      -5.73397017      -6.60939980    
 Al   11.6977997      -4.30260992      -5.78681993    
 Al   13.9937000      -2.86325002      -4.96089983    
 Al   13.9928303      -4.29588985      -2.48658991    
 Al   16.3383598      -2.86594009      -1.66885996    
 Al   11.6820297      -17.1795502      -13.2198095    
 Al   11.7098198      -8.61376953      -8.25864983    
 Al   11.6937199      -5.73299980      -3.31042004    
 Al   14.0425100      -11.4468803      -9.93836975    
 Al   13.9898996      -5.73648977      -1.19599998E-02
 Al   16.4460602      -11.5017900      -6.18588018    
 Al   2.35768008      -5.72470999      -6.60994005    
 Al   2.35729003      -4.29577017      -4.13164997    
 Al   4.70704985      -2.86297011      -3.30526996    
 Al   7.01582003      -1.43417001      -2.48148990    
 Al   7.01316977      -2.86304998       2.49000010E-03
 Al   4.71243000      -4.29400015     -0.828660011    
 Al   2.36560988      -5.72644997      -1.65469003    
 Al   4.71841002      -7.15770006     -0.827820003    
 Al   7.01797009      -5.72750998       1.09999999E-03
 Al   7.01609993      -4.29290009      -2.48235011    
 Al   9.35548019      -2.86471009      -1.65409005    
 Al   11.6818705      -1.43124998     -0.833329976    
 Al   13.9860096      -17.1727600      -1.43799996E-02
 Al   2.35957003      -7.15446997      -4.13235998    
 Al   4.71164989      -5.72700977      -3.30680990    
 Al   4.70671988      -4.29450989      -5.78619003    
 Al   7.01397991      -2.86321998      -4.95604992    
 Al   2.37032008      -8.59138966      -1.65435004    
 Al   2.36154008      -2.86389995      -1.65557003    
 Al   4.71262980      -1.43119001     -0.827289999    
 Al   7.01611996      -5.49999997E-04   2.12000008E-03
 Al   16.3458309      -24.3316803      -14.0608702    
 N    17.5302505      -11.4027996      -8.65898991    
 N    17.8592606      -11.2550602      -7.39941978    
