       N       E                     dE             d eps       ncg     rms          rms(c)
DAV:   1     0.216156819381E+04    0.21616E+04   -0.18438E+05  4200   0.734E+02
DAV:   2    -0.732817964640E+03   -0.28944E+04   -0.27289E+04  5592   0.193E+02
DAV:   3    -0.949801353269E+03   -0.21698E+03   -0.20833E+03  6060   0.414E+01
DAV:   4    -0.960543886355E+03   -0.10743E+02   -0.97425E+01  6108   0.864E+00
DAV:   5    -0.961154950621E+03   -0.61106E+00   -0.59862E+00  6444   0.210E+00    0.215E+01
DAV:   6    -0.971435409560E+03   -0.10280E+02   -0.19275E+02  5796   0.164E+01    0.201E+01
DAV:   7    -0.938033282030E+03    0.33402E+02   -0.12553E+02  5340   0.159E+01    0.126E+01
DAV:   8    -0.944730577283E+03   -0.66973E+01   -0.41108E+01  5976   0.108E+01    0.106E+01
DAV:   9    -0.938076354036E+03    0.66542E+01   -0.12706E+01  5304   0.996E+00    0.102E+01
DAV:  10    -0.931943522315E+03    0.61328E+01   -0.93681E+00  5376   0.513E+00    0.214E+00
DAV:  11    -0.931862022231E+03    0.81500E-01   -0.36033E+00  5136   0.219E+00    0.179E+00
DAV:  12    -0.931786938515E+03    0.75084E-01   -0.60319E-01  5436   0.107E+00    0.108E+00
DAV:  13    -0.931757662261E+03    0.29276E-01   -0.11922E-01  4884   0.454E-01    0.556E-01
DAV:  14    -0.931735047382E+03    0.22615E-01   -0.38750E-02  5292   0.236E-01    0.317E-01
DAV:  15    -0.931721228718E+03    0.13819E-01   -0.24049E-02  4896   0.160E-01    0.234E-01
DAV:  16    -0.931726100161E+03   -0.48714E-02   -0.10137E-02  5016   0.104E-01    0.171E-01
DAV:  17    -0.931731456505E+03   -0.53563E-02   -0.67738E-03  4764   0.835E-02    0.105E-01
DAV:  18    -0.931738294636E+03   -0.68381E-02   -0.38463E-03  4908   0.625E-02    0.509E-02
DAV:  19    -0.931741038247E+03   -0.27436E-02   -0.10166E-03  5004   0.380E-02    0.707E-02
DAV:  20    -0.931742305422E+03   -0.12672E-02   -0.28705E-04  4776   0.236E-02    0.300E-02
DAV:  21    -0.931743696855E+03   -0.13914E-02   -0.31950E-04  4740   0.191E-02    0.348E-02
DAV:  22    -0.931744576680E+03   -0.87983E-03   -0.16409E-04  4488   0.136E-02    0.197E-02
DAV:  23    -0.931745337975E+03   -0.76129E-03   -0.15987E-04  4224   0.976E-03    0.177E-02
DAV:  24    -0.931746282190E+03   -0.94421E-03   -0.57456E-05  4296   0.598E-03    0.128E-02
DAV:  25    -0.931747120627E+03   -0.83844E-03   -0.49900E-05  3984   0.568E-03    0.753E-03
DAV:  26    -0.931747723200E+03   -0.60257E-03   -0.42135E-05  4320   0.449E-03    0.646E-03
DAV:  27    -0.931747963462E+03   -0.24026E-03   -0.10363E-05  3648   0.240E-03    0.516E-03
DAV:  28    -0.931748174268E+03   -0.21081E-03   -0.12753E-05  3684   0.234E-03    0.172E-03
DAV:  29    -0.931748210349E+03   -0.36081E-04   -0.13618E-06  2988   0.116E-03    0.891E-04
DAV:  30    -0.931748242400E+03   -0.32051E-04   -0.17342E-06  3072   0.889E-04    0.356E-04
DAV:  31    -0.931748251401E+03   -0.90015E-05   -0.42984E-07  2760   0.573E-04    0.287E-04
DAV:  32    -0.931748252218E+03   -0.81692E-06   -0.84984E-08  2484   0.368E-04
   1 F= -.93174825E+03 E0= -.93171048E+03  d E =-.931748E+03
       N       E                     dE             d eps       ncg     rms          rms(c)
DAV:   1    -0.929123932556E+03    0.26243E+01   -0.89359E+02  4128   0.252E+01    0.130E+01
DAV:   2    -0.932759037319E+03   -0.36351E+01   -0.49961E+01  5676   0.582E+00    0.943E+00
DAV:   3    -0.933809377594E+03   -0.10503E+01   -0.41561E+00  5628   0.423E+00    0.818E+00
DAV:   4    -0.932575991993E+03    0.12334E+01   -0.11591E+00  5424   0.370E+00    0.686E+00
DAV:   5    -0.932496213280E+03    0.79779E-01   -0.10254E+00  7428   0.176E+00    0.671E+00
DAV:   6    -0.932599755416E+03   -0.10354E+00   -0.13674E+00  7608   0.145E+00    0.695E+00
DAV:   7    -0.932290527010E+03    0.30923E+00   -0.11298E+00  4932   0.135E+00    0.187E+00
DAV:   8    -0.932228505939E+03    0.62021E-01   -0.32790E-01  5340   0.790E-01    0.121E+00
DAV:   9    -0.932235059115E+03   -0.65532E-02   -0.20009E-01  6384   0.466E-01    0.167E+00
DAV:  10    -0.932219878229E+03    0.15181E-01   -0.12201E-01  5196   0.324E-01    0.360E-01
DAV:  11    -0.932227648389E+03   -0.77702E-02   -0.19217E-02  5664   0.150E-01    0.513E-01
DAV:  12    -0.932225534163E+03    0.21142E-02   -0.36669E-03  5928   0.705E-02    0.123E-01
DAV:  13    -0.932227541662E+03   -0.20075E-02   -0.17288E-03  4752   0.426E-02    0.770E-02
DAV:  14    -0.932228240825E+03   -0.69916E-03   -0.51693E-04  7020   0.303E-02    0.883E-02
DAV:  15    -0.932228694932E+03   -0.45411E-03   -0.74056E-04  5040   0.252E-02    0.455E-02
DAV:  16    -0.932229112367E+03   -0.41743E-03   -0.22349E-04  5148   0.142E-02    0.329E-02
DAV:  17    -0.932229675915E+03   -0.56355E-03   -0.20149E-04  5412   0.136E-02    0.143E-02
DAV:  18    -0.932229918520E+03   -0.24260E-03   -0.78361E-05  4740   0.768E-03    0.214E-02
DAV:  19    -0.932230092494E+03   -0.17397E-03   -0.23310E-05  4056   0.402E-03    0.986E-03
DAV:  20    -0.932230273381E+03   -0.18089E-03   -0.35941E-05  4188   0.364E-03    0.400E-03
DAV:  21    -0.932230338890E+03   -0.65509E-04   -0.64351E-06  3696   0.181E-03    0.383E-03
DAV:  22    -0.932230375455E+03   -0.36565E-04   -0.23093E-06  3000   0.140E-03    0.291E-03
DAV:  23    -0.932230411840E+03   -0.36386E-04   -0.55154E-06  3612   0.186E-03    0.482E-03
DAV:  24    -0.932230422467E+03   -0.10627E-04   -0.81443E-07  2616   0.100E-03    0.324E-03
DAV:  25    -0.932230435034E+03   -0.12568E-04   -0.10212E-06  2628   0.876E-04    0.118E-03
DAV:  26    -0.932230441813E+03   -0.67790E-05   -0.69246E-07  2448   0.780E-04    0.569E-04
DAV:  27    -0.932230446200E+03   -0.43863E-05   -0.45499E-07  2352   0.717E-04
   2 F= -.93223045E+03 E0= -.93218717E+03  d E =-.482194E+00
       N       E                     dE             d eps       ncg     rms          rms(c)
DAV:   1    -0.932618160003E+03   -0.38772E+00   -0.26371E+01  4176   0.545E+00    0.129E+00
DAV:   2    -0.932780099568E+03   -0.16194E+00   -0.11976E+00  5532   0.903E-01    0.299E+00
DAV:   3    -0.932733577898E+03    0.46522E-01   -0.33493E-01  5676   0.444E-01    0.167E+00
DAV:   4    -0.932744746230E+03   -0.11168E-01   -0.37646E-02  4848   0.502E-01    0.882E-01
DAV:   5    -0.932723447276E+03    0.21299E-01   -0.17118E-02  5040   0.414E-01    0.734E-01
DAV:   6    -0.932723010068E+03    0.43721E-03   -0.18046E-02  5172   0.199E-01    0.219E-01
DAV:   7    -0.932722094519E+03    0.91555E-03   -0.12912E-02  4872   0.170E-01    0.162E-01
DAV:   8    -0.932722302105E+03   -0.20759E-03   -0.25532E-03  4992   0.686E-02    0.101E-01
DAV:   9    -0.932722282666E+03    0.19439E-04   -0.50164E-04  5016   0.331E-02    0.448E-02
DAV:  10    -0.932722350918E+03   -0.68252E-04   -0.41402E-04  4944   0.235E-02    0.343E-02
DAV:  11    -0.932722341335E+03    0.95831E-05   -0.82789E-05  5256   0.117E-02    0.128E-02
DAV:  12    -0.932722351092E+03   -0.97563E-05   -0.36183E-05  4452   0.590E-03    0.117E-02
DAV:  13    -0.932722363854E+03   -0.12762E-04   -0.10076E-05  3624   0.322E-03    0.500E-03
DAV:  14    -0.932722371538E+03   -0.76845E-05   -0.19669E-06  2508   0.177E-03    0.294E-03
DAV:  15    -0.932722377190E+03   -0.56514E-05   -0.94988E-07  2508   0.118E-03    0.200E-03
DAV:  16    -0.932722389208E+03   -0.12018E-04   -0.81416E-07  2628   0.971E-04    0.117E-03
DAV:  17    -0.932722398023E+03   -0.88149E-05   -0.86920E-07  2592   0.814E-04    0.914E-04
DAV:  18    -0.932722403255E+03   -0.52318E-05   -0.28324E-07  2424   0.626E-04    0.477E-04
DAV:  19    -0.932722409054E+03   -0.57998E-05   -0.61777E-07  2760   0.571E-04    0.541E-04
DAV:  20    -0.932722410608E+03   -0.15534E-05   -0.14543E-07  2340   0.417E-04
   3 F= -.93272241E+03 E0= -.93267901E+03  d E =-.974158E+00
       N       E                     dE             d eps       ncg     rms          rms(c)
DAV:   1    -0.933022781349E+03   -0.30037E+00   -0.18452E+01  4176   0.450E+00    0.105E+00
DAV:   2    -0.933109844582E+03   -0.87063E-01   -0.97230E-01  5028   0.804E-01    0.632E-01
DAV:   3    -0.933126641306E+03   -0.16797E-01   -0.74788E-02  6048   0.296E-01    0.141E+00
DAV:   4    -0.933104635796E+03    0.22006E-01   -0.16864E-02  5832   0.194E-01    0.386E-01
DAV:   5    -0.933115786643E+03   -0.11151E-01   -0.16590E-02  4764   0.234E-01    0.426E-01
DAV:   6    -0.933109304225E+03    0.64824E-02   -0.41388E-03  5088   0.255E-01    0.162E-01
DAV:   7    -0.933108575064E+03    0.72916E-03   -0.59215E-03  5412   0.139E-01    0.104E-01
DAV:   8    -0.933108081975E+03    0.49309E-03   -0.18253E-03  5580   0.697E-02    0.570E-02
DAV:   9    -0.933108164674E+03   -0.82700E-04   -0.98769E-04  5412   0.368E-02    0.448E-02
DAV:  10    -0.933108136814E+03    0.27861E-04   -0.16395E-04  4956   0.186E-02    0.326E-02
DAV:  11    -0.933108150979E+03   -0.14165E-04   -0.18266E-04  6084   0.151E-02    0.156E-02
DAV:  12    -0.933108160518E+03   -0.95396E-05   -0.77098E-05  4740   0.916E-03    0.126E-02
DAV:  13    -0.933108163815E+03   -0.32970E-05   -0.23244E-05  4608   0.468E-03
   4 F= -.93310816E+03 E0= -.93306446E+03  d E =-.135991E+01
       N       E                     dE             d eps       ncg     rms          rms(c)
DAV:   1    -0.932850718437E+03    0.25744E+00   -0.11236E+02  4176   0.110E+01    0.439E+00
DAV:   2    -0.934606419634E+03   -0.17557E+01   -0.12295E+01  5196   0.300E+00    0.684E+00
DAV:   3    -0.933853155812E+03    0.75326E+00   -0.11718E+00  5604   0.260E+00    0.219E+00
DAV:   4    -0.933945888712E+03   -0.92733E-01   -0.68592E-01  5052   0.242E+00    0.193E+00
DAV:   5    -0.933604830137E+03    0.34106E+00   -0.15025E-01  5076   0.139E+00    0.178E+00
DAV:   6    -0.933597884791E+03    0.69453E-02   -0.17059E-01  6948   0.653E-01    0.120E+00
DAV:   7    -0.933570818432E+03    0.27066E-01   -0.14346E-01  4896   0.492E-01    0.415E-01
DAV:   8    -0.933570889806E+03   -0.71374E-04   -0.22403E-02  5256   0.203E-01    0.354E-01
DAV:   9    -0.933571963791E+03   -0.10740E-02   -0.11767E-02  6132   0.113E-01    0.320E-01
DAV:  10    -0.933570853147E+03    0.11106E-02   -0.29290E-03  4872   0.630E-02    0.758E-02
DAV:  11    -0.933571157346E+03   -0.30420E-03   -0.11030E-03  5280   0.358E-02    0.837E-02
DAV:  12    -0.933571198471E+03   -0.41124E-04   -0.36112E-04  5556   0.227E-02    0.258E-02
DAV:  13    -0.933571311605E+03   -0.11313E-03   -0.18421E-04  5100   0.147E-02    0.413E-02
DAV:  14    -0.933571358196E+03   -0.46590E-04   -0.43729E-05  4224   0.895E-03    0.197E-02
DAV:  15    -0.933571454856E+03   -0.96660E-04   -0.50014E-05  4476   0.608E-03    0.156E-02
DAV:  16    -0.933571542066E+03   -0.87210E-04   -0.12963E-05  3924   0.397E-03    0.755E-03
DAV:  17    -0.933571616927E+03   -0.74860E-04   -0.10595E-05  3900   0.322E-03    0.127E-02
DAV:  18    -0.933571666376E+03   -0.49450E-04   -0.34474E-06  3000   0.216E-03    0.375E-03
DAV:  19    -0.933571740373E+03   -0.73997E-04   -0.98368E-06  3708   0.230E-03    0.384E-03
DAV:  20    -0.933571754636E+03   -0.14263E-04   -0.11220E-06  2760   0.104E-03    0.265E-03
DAV:  21    -0.933571775704E+03   -0.21068E-04   -0.14795E-06  2892   0.110E-03    0.161E-03
DAV:  22    -0.933571786059E+03   -0.10355E-04   -0.71785E-07  2604   0.741E-04    0.159E-03
DAV:  23    -0.933571791929E+03   -0.58700E-05   -0.23354E-07  2388   0.471E-04    0.704E-04
DAV:  24    -0.933571797835E+03   -0.59059E-05   -0.26192E-07  2484   0.440E-04    0.307E-04
DAV:  25    -0.933571800716E+03   -0.28810E-05   -0.13124E-07  2400   0.319E-04
   5 F= -.93357180E+03 E0= -.93352788E+03  d E =-.182355E+01
       N       E                     dE             d eps       ncg     rms          rms(c)
DAV:   1    -0.933558510005E+03    0.13288E-01   -0.32973E+00  4128   0.181E+00    0.595E-01
DAV:   2    -0.933631289589E+03   -0.72780E-01   -0.33540E-01  5100   0.565E-01    0.243E+00
DAV:   3    -0.933568380371E+03    0.62909E-01   -0.84511E-02  5232   0.363E-01    0.418E-01
DAV:   4    -0.933584909894E+03   -0.16530E-01   -0.18140E-02  4824   0.283E-01    0.355E-01
DAV:   5    -0.933577385752E+03    0.75241E-02   -0.28156E-03  5040   0.225E-01    0.263E-01
DAV:   6    -0.933576815955E+03    0.56980E-03   -0.38420E-03  5448   0.868E-02    0.145E-01
DAV:   7    -0.933577097302E+03   -0.28135E-03   -0.29426E-03  4956   0.818E-02    0.118E-01
DAV:   8    -0.933576555524E+03    0.54178E-03   -0.11390E-03  5172   0.563E-02    0.526E-02
DAV:   9    -0.933576587400E+03   -0.31875E-04   -0.33775E-04  5232   0.227E-02    0.227E-02
DAV:  10    -0.933576611506E+03   -0.24107E-04   -0.88310E-05  5136   0.130E-02    0.197E-02
DAV:  11    -0.933576627349E+03   -0.15842E-04   -0.24627E-05  4548   0.670E-03    0.108E-02
DAV:  12    -0.933576641416E+03   -0.14067E-04   -0.82202E-06  3456   0.356E-03    0.377E-03
DAV:  13    -0.933576655217E+03   -0.13801E-04   -0.31784E-06  2868   0.212E-03    0.175E-03
DAV:  14    -0.933576670877E+03   -0.15660E-04   -0.17196E-06  2868   0.132E-03    0.116E-03
DAV:  15    -0.933576679612E+03   -0.87351E-05   -0.74861E-07  2424   0.918E-04    0.785E-04
DAV:  16    -0.933576688176E+03   -0.85640E-05   -0.84109E-07  2772   0.772E-04    0.431E-04
DAV:  17    -0.933576694122E+03   -0.59461E-05   -0.65606E-07  2616   0.610E-04    0.446E-04
DAV:  18    -0.933576696995E+03   -0.28724E-05   -0.30057E-07  2388   0.473E-04
   6 F= -.93357670E+03 E0= -.93353258E+03  d E =-.182844E+01
       N       E                     dE             d eps       ncg     rms          rms(c)
DAV:   1    -0.933577502954E+03   -0.80883E-03   -0.45831E-01  4152   0.679E-01    0.232E-01
DAV:   2    -0.933587702307E+03   -0.10199E-01   -0.47867E-02  5112   0.211E-01    0.852E-01
DAV:   3    -0.933578742767E+03    0.89595E-02   -0.10301E-02  5220   0.144E-01    0.153E-01
DAV:   4    -0.933581447271E+03   -0.27045E-02   -0.26540E-03  4848   0.116E-01    0.134E-01
DAV:   5    -0.933580177504E+03    0.12698E-02   -0.43492E-04  5028   0.875E-02    0.937E-02
DAV:   6    -0.933580138005E+03    0.39500E-04   -0.61827E-04  5712   0.348E-02    0.459E-02
DAV:   7    -0.933580133924E+03    0.40807E-05   -0.44991E-04  4956   0.317E-02    0.360E-02
DAV:   8    -0.933580084772E+03    0.49152E-04   -0.11944E-04  5316   0.181E-02    0.153E-02
DAV:   9    -0.933580089133E+03   -0.43609E-05   -0.44551E-05  4932   0.801E-03
   7 F= -.93358009E+03 E0= -.93353605E+03  d E =-.183184E+01
       N       E                     dE             d eps       ncg     rms          rms(c)
DAV:   1    -0.933793753960E+03   -0.21367E+00   -0.43428E+00  4128   0.232E+00    0.140E+00
DAV:   2    -0.934158044136E+03   -0.36429E+00   -0.99711E-01  7440   0.100E+00    0.438E+00
DAV:   3    -0.933802444469E+03    0.35560E+00   -0.17991E-01  6036   0.106E+00    0.875E-01
DAV:   4    -0.933799150517E+03    0.32940E-02   -0.12393E-01  4920   0.558E-01    0.545E-01
DAV:   5    -0.933798824696E+03    0.32582E-03   -0.25072E-02  6336   0.197E-01    0.273E-01
DAV:   6    -0.933800946192E+03   -0.21215E-02   -0.11690E-02  5616   0.146E-01    0.174E-01
DAV:   7    -0.933799179230E+03    0.17670E-02   -0.46353E-03  4956   0.109E-01    0.918E-02
DAV:   8    -0.933799408674E+03   -0.22944E-03   -0.12351E-03  6516   0.487E-02    0.127E-01
DAV:   9    -0.933799244784E+03    0.16389E-03   -0.54363E-04  4920   0.325E-02    0.671E-02
DAV:  10    -0.933799221801E+03    0.22982E-04   -0.16262E-04  6096   0.171E-02    0.214E-02
DAV:  11    -0.933799244514E+03   -0.22712E-04   -0.68937E-05  4620   0.877E-03    0.850E-03
DAV:  12    -0.933799251459E+03   -0.69459E-05   -0.96597E-06  3792   0.368E-03    0.543E-03
DAV:  13    -0.933799256537E+03   -0.50771E-05   -0.23587E-06  2508   0.236E-03    0.469E-03
DAV:  14    -0.933799259528E+03   -0.29913E-05   -0.97095E-07  2460   0.153E-03
   8 F= -.93379926E+03 E0= -.93375602E+03  d E =-.219170E+00
       N       E                     dE             d eps       ncg     rms          rms(c)
DAV:   1    -0.933995203494E+03   -0.19595E+00   -0.38061E+01  4164   0.692E+00    0.354E+00
DAV:   2    -0.935580258618E+03   -0.15851E+01   -0.53977E+00  7260   0.252E+00    0.706E+00
DAV:   3    -0.934353817899E+03    0.12264E+01   -0.99151E-01  5724   0.272E+00    0.283E+00
DAV:   4    -0.934085480635E+03    0.26834E+00   -0.73641E-01  5100   0.158E+00    0.182E+00
DAV:   5    -0.934062662543E+03    0.22818E-01   -0.19809E-01  6312   0.566E-01    0.837E-01
DAV:   6    -0.934073220770E+03   -0.10558E-01   -0.78416E-02  5112   0.372E-01    0.496E-01
DAV:   7    -0.934067421439E+03    0.57993E-02   -0.23592E-02  4992   0.257E-01    0.444E-01
DAV:   8    -0.934068342724E+03   -0.92129E-03   -0.13398E-02  7560   0.166E-01    0.507E-01
DAV:   9    -0.934065507601E+03    0.28351E-02   -0.53771E-03  5172   0.105E-01    0.701E-02
DAV:  10    -0.934066001120E+03   -0.49352E-03   -0.20677E-03  4788   0.518E-02    0.794E-02
DAV:  11    -0.934065992118E+03    0.90021E-05   -0.23398E-04  5076   0.206E-02    0.300E-02
DAV:  12    -0.934066028789E+03   -0.36670E-04   -0.12128E-04  4788   0.124E-02    0.183E-02
DAV:  13    -0.934066046399E+03   -0.17610E-04   -0.32335E-05  5196   0.826E-03    0.282E-02
DAV:  14    -0.934066047958E+03   -0.15586E-05   -0.15490E-05  3264   0.550E-03
   9 F= -.93406605E+03 E0= -.93402589E+03  d E =-.485959E+00
       N       E                     dE             d eps       ncg     rms          rms(c)
DAV:   1    -0.934113104791E+03   -0.47058E-01   -0.13413E+01  4164   0.404E+00    0.105E+00
DAV:   2    -0.934281956327E+03   -0.16885E+00   -0.93776E-01  5196   0.942E-01    0.271E+00
DAV:   3    -0.934178742759E+03    0.10321E+00   -0.12997E-01  5256   0.643E-01    0.590E-01
DAV:   4    -0.934203603085E+03   -0.24860E-01   -0.54167E-02  5004   0.553E-01    0.537E-01
DAV:   5    -0.934179401724E+03    0.24201E-01   -0.90885E-03  5088   0.368E-01    0.336E-01
DAV:   6    -0.934180592901E+03   -0.11912E-02   -0.11651E-02  5412   0.177E-01    0.170E-01
DAV:   7    -0.934177997142E+03    0.25958E-02   -0.11038E-02  5052   0.156E-01    0.836E-02
DAV:   8    -0.934177880747E+03    0.11640E-03   -0.16792E-03  5112   0.586E-02    0.552E-02
DAV:   9    -0.934177874638E+03    0.61090E-05   -0.43209E-04  4896   0.274E-02    0.407E-02
DAV:  10    -0.934177877732E+03   -0.30939E-05   -0.85949E-05  5112   0.132E-02    0.280E-02
DAV:  11    -0.934177914504E+03   -0.36773E-04   -0.42928E-05  4944   0.791E-03    0.889E-03
DAV:  12    -0.934177936304E+03   -0.21799E-04   -0.14562E-05  4068   0.455E-03    0.456E-03
DAV:  13    -0.934177965705E+03   -0.29402E-04   -0.28141E-06  2796   0.220E-03    0.388E-03
DAV:  14    -0.934178013083E+03   -0.47378E-04   -0.33963E-06  3156   0.184E-03    0.218E-03
DAV:  15    -0.934178035604E+03   -0.22521E-04   -0.15535E-06  2916   0.145E-03    0.152E-03
DAV:  16    -0.934178062956E+03   -0.27352E-04   -0.16245E-06  2892   0.116E-03    0.124E-03
DAV:  17    -0.934178085927E+03   -0.22970E-04   -0.14221E-06  2952   0.875E-04    0.742E-04
DAV:  18    -0.934178094718E+03   -0.87915E-05   -0.47745E-07  2592   0.622E-04    0.364E-04
DAV:  19    -0.934178101017E+03   -0.62991E-05   -0.35670E-07  2508   0.503E-04    0.250E-04
DAV:  20    -0.934178104079E+03   -0.30621E-05   -0.16666E-07  2400   0.383E-04
  10 F= -.93417810E+03 E0= -.93413945E+03  d E =-.112056E+00
       N       E                     dE             d eps       ncg     rms          rms(c)
DAV:   1    -0.934150792332E+03    0.27309E-01   -0.14205E+01  4140   0.419E+00    0.107E+00
DAV:   2    -0.934311010466E+03   -0.16022E+00   -0.97092E-01  5064   0.949E-01    0.247E+00
DAV:   3    -0.934225202741E+03    0.85808E-01   -0.12281E-01  5244   0.632E-01    0.631E-01
DAV:   4    -0.934243477683E+03   -0.18275E-01   -0.52367E-02  5004   0.546E-01    0.562E-01
DAV:   5    -0.934221474769E+03    0.22003E-01   -0.91484E-03  5112   0.359E-01    0.352E-01
DAV:   6    -0.934223535578E+03   -0.20608E-02   -0.13387E-02  5256   0.197E-01    0.183E-01
DAV:   7    -0.934220069569E+03    0.34660E-02   -0.13269E-02  5040   0.172E-01    0.889E-02
DAV:   8    -0.934219959821E+03    0.10975E-03   -0.19616E-03  5028   0.622E-02    0.620E-02
DAV:   9    -0.934219942631E+03    0.17190E-04   -0.51758E-04  4896   0.291E-02    0.439E-02
DAV:  10    -0.934219942677E+03   -0.45686E-07   -0.98797E-05  5016   0.136E-02    0.304E-02
DAV:  11    -0.934219972794E+03   -0.30117E-04   -0.48882E-05  5004   0.851E-03    0.101E-02
DAV:  12    -0.934219992542E+03   -0.19748E-04   -0.18758E-05  4296   0.497E-03    0.476E-03
DAV:  13    -0.934220016703E+03   -0.24161E-04   -0.27941E-06  2760   0.226E-03    0.382E-03
DAV:  14    -0.934220058220E+03   -0.41517E-04   -0.30869E-06  3036   0.179E-03    0.233E-03
DAV:  15    -0.934220080381E+03   -0.22161E-04   -0.15581E-06  2976   0.147E-03    0.155E-03
DAV:  16    -0.934220102499E+03   -0.22118E-04   -0.14212E-06  2904   0.118E-03    0.127E-03
DAV:  17    -0.934220127713E+03   -0.25214E-04   -0.17618E-06  2952   0.934E-04    0.797E-04
DAV:  18    -0.934220136693E+03   -0.89802E-05   -0.49063E-07  2676   0.619E-04    0.474E-04
DAV:  19    -0.934220142097E+03   -0.54042E-05   -0.26211E-07  2424   0.482E-04    0.240E-04
DAV:  20    -0.934220146109E+03   -0.40119E-05   -0.20645E-07  2424   0.400E-04
  11 F= -.93422015E+03 E0= -.93418286E+03  d E =-.154098E+00
       N       E                     dE             d eps       ncg     rms          rms(c)
DAV:   1    -0.934266545277E+03   -0.46403E-01   -0.23230E+00  4128   0.170E+00    0.351E-01
DAV:   2    -0.934287488156E+03   -0.20943E-01   -0.99012E-02  5496   0.332E-01    0.953E-01
DAV:   3    -0.934273805582E+03    0.13683E-01   -0.17568E-02  5136   0.249E-01    0.205E-01
DAV:   4    -0.934275121346E+03   -0.13158E-02   -0.72757E-03  5028   0.168E-01    0.175E-01
DAV:   5    -0.934274177696E+03    0.94365E-03   -0.10906E-03  5124   0.836E-02    0.126E-01
DAV:   6    -0.934274472730E+03   -0.29503E-03   -0.10903E-03  5076   0.526E-02    0.838E-02
DAV:   7    -0.934274208150E+03    0.26458E-03   -0.10726E-03  5016   0.522E-02    0.487E-02
DAV:   8    -0.934274199066E+03    0.90837E-05   -0.25606E-04  4896   0.215E-02    0.296E-02
DAV:   9    -0.934274201189E+03   -0.21229E-05   -0.73794E-05  4860   0.117E-02    0.162E-02
DAV:  10    -0.934274199928E+03    0.12610E-05   -0.20172E-05  4524   0.635E-03
  12 F= -.93427420E+03 E0= -.93423682E+03  d E =-.540538E-01
       N       E                     dE             d eps       ncg     rms          rms(c)
DAV:   1    -0.934356499301E+03   -0.82298E-01   -0.20988E+01  4128   0.511E+00    0.117E+00
DAV:   2    -0.934558308183E+03   -0.20181E+00   -0.93379E-01  5496   0.107E+00    0.284E+00
DAV:   3    -0.934437587416E+03    0.12072E+00   -0.18710E-01  5172   0.843E-01    0.682E-01
DAV:   4    -0.934439584130E+03   -0.19967E-02   -0.77998E-02  4932   0.593E-01    0.601E-01
DAV:   5    -0.934427715548E+03    0.11869E-01   -0.12943E-02  5160   0.284E-01    0.427E-01
DAV:   6    -0.934430199645E+03   -0.24841E-02   -0.11134E-02  5052   0.165E-01    0.300E-01
DAV:   7    -0.934427239711E+03    0.29599E-02   -0.10380E-02  5076   0.162E-01    0.177E-01
DAV:   8    -0.934427167610E+03    0.72101E-04   -0.27788E-03  5004   0.670E-02    0.117E-01
DAV:   9    -0.934427164062E+03    0.35476E-05   -0.81336E-04  4896   0.380E-02    0.599E-02
DAV:  10    -0.934427142434E+03    0.21628E-04   -0.26018E-04  5004   0.226E-02    0.271E-02
DAV:  11    -0.934427150549E+03   -0.81156E-05   -0.93951E-05  5136   0.125E-02    0.111E-02
DAV:  12    -0.934427155492E+03   -0.49429E-05   -0.32570E-05  4692   0.644E-03
  13 F= -.93442716E+03 E0= -.93438957E+03  d E =-.207009E+00
       N       E                     dE             d eps       ncg     rms          rms(c)
DAV:   1    -0.934277153614E+03    0.15000E+00   -0.84746E+01  4128   0.103E+01    0.290E+00
DAV:   2    -0.935073070956E+03   -0.79592E+00   -0.39723E+00  5412   0.238E+00    0.517E+00
DAV:   3    -0.934775296931E+03    0.29777E+00   -0.91496E-01  5160   0.204E+00    0.192E+00
DAV:   4    -0.934688428481E+03    0.86868E-01   -0.38923E-01  4944   0.159E+00    0.166E+00
DAV:   5    -0.934591922159E+03    0.96506E-01   -0.84559E-02  5220   0.748E-01    0.111E+00
DAV:   6    -0.934603678302E+03   -0.11756E-01   -0.68496E-02  4968   0.388E-01    0.799E-01
DAV:   7    -0.934588845494E+03    0.14833E-01   -0.51193E-02  5268   0.352E-01    0.566E-01
DAV:   8    -0.934587183385E+03    0.16621E-02   -0.14397E-02  4920   0.140E-01    0.437E-01
DAV:   9    -0.934586551698E+03    0.63169E-03   -0.46686E-03  5124   0.816E-02    0.273E-01
DAV:  10    -0.934586095926E+03    0.45577E-03   -0.19092E-03  4884   0.598E-02    0.148E-01
DAV:  11    -0.934586011190E+03    0.84736E-04   -0.12872E-03  5256   0.448E-02    0.278E-02
DAV:  12    -0.934586124778E+03   -0.11359E-03   -0.54006E-04  4860   0.247E-02    0.313E-02
DAV:  13    -0.934586156412E+03   -0.31634E-04   -0.47091E-05  5040   0.907E-03    0.151E-02
DAV:  14    -0.934586199271E+03   -0.42859E-04   -0.49539E-05  4536   0.702E-03    0.132E-02
DAV:  15    -0.934586220215E+03   -0.20944E-04   -0.97708E-06  3456   0.372E-03    0.933E-03
DAV:  16    -0.934586230889E+03   -0.10674E-04   -0.47120E-06  3024   0.240E-03    0.386E-03
DAV:  17    -0.934586243133E+03   -0.12243E-04   -0.12036E-06  2664   0.141E-03    0.232E-03
DAV:  18    -0.934586274124E+03   -0.30992E-04   -0.35460E-06  3192   0.154E-03    0.132E-03
DAV:  19    -0.934586284599E+03   -0.10474E-04   -0.89484E-07  2868   0.935E-04    0.135E-03
DAV:  20    -0.934586295680E+03   -0.11081E-04   -0.11149E-06  2868   0.764E-04    0.439E-04
DAV:  21    -0.934586298497E+03   -0.28172E-05   -0.25797E-07  2448   0.496E-04
  14 F= -.93458630E+03 E0= -.93454888E+03  d E =-.366152E+00
       N       E                     dE             d eps       ncg     rms          rms(c)
DAV:   1    -0.934604866607E+03   -0.18571E-01   -0.13129E+00  4128   0.130E+00    0.303E-01
DAV:   2    -0.934616384588E+03   -0.11518E-01   -0.53228E-02  5616   0.258E-01    0.694E-01
DAV:   3    -0.934609483814E+03    0.69008E-02   -0.11979E-02  5148   0.214E-01    0.161E-01
DAV:   4    -0.934609806520E+03   -0.32271E-03   -0.51198E-03  5148   0.158E-01    0.139E-01
DAV:   5    -0.934608845790E+03    0.96073E-03   -0.93763E-04  5184   0.779E-02    0.782E-02
DAV:   6    -0.934608967291E+03   -0.12150E-03   -0.68591E-04  5040   0.401E-02    0.540E-02
DAV:   7    -0.934608824772E+03    0.14252E-03   -0.46365E-04  5028   0.353E-02    0.238E-02
DAV:   8    -0.934608825108E+03   -0.33532E-06   -0.14519E-04  5016   0.153E-02    0.191E-02
DAV:   9    -0.934608823391E+03    0.17164E-05   -0.25869E-05  4584   0.724E-03
  15 F= -.93460882E+03 E0= -.93457145E+03  d E =-.225249E-01
       N       E                     dE             d eps       ncg     rms          rms(c)
DAV:   1    -0.934620331130E+03   -0.11506E-01   -0.11801E+01  4128   0.389E+00    0.937E-01
DAV:   2    -0.934720917639E+03   -0.10059E+00   -0.47121E-01  5556   0.785E-01    0.205E+00
DAV:   3    -0.934665959608E+03    0.54958E-01   -0.10994E-01  5076   0.652E-01    0.535E-01
DAV:   4    -0.934667801290E+03   -0.18417E-02   -0.45262E-02  5196   0.504E-01    0.474E-01
DAV:   5    -0.934656485791E+03    0.11315E-01   -0.89954E-03  5184   0.254E-01    0.257E-01
DAV:   6    -0.934657664541E+03   -0.11788E-02   -0.68058E-03  5040   0.122E-01    0.171E-01
DAV:   7    -0.934656347653E+03    0.13169E-02   -0.43261E-03  5016   0.108E-01    0.920E-02
DAV:   8    -0.934656317486E+03    0.30166E-04   -0.13347E-03  5040   0.467E-02    0.730E-02
DAV:   9    -0.934656290316E+03    0.27170E-04   -0.26539E-04  5016   0.226E-02    0.484E-02
DAV:  10    -0.934656274497E+03    0.15819E-04   -0.10007E-04  5124   0.128E-02    0.147E-02
DAV:  11    -0.934656281468E+03   -0.69710E-05   -0.41401E-05  4944   0.733E-03    0.504E-03
DAV:  12    -0.934656283203E+03   -0.17344E-05   -0.55023E-06  2904   0.333E-03
  16 F= -.93465628E+03 E0= -.93461897E+03  d E =-.699847E-01
       N       E                     dE             d eps       ncg     rms          rms(c)
DAV:   1    -0.934494541690E+03    0.16174E+00   -0.47070E+01  4128   0.774E+00    0.209E+00
DAV:   2    -0.934884477548E+03   -0.38994E+00   -0.19150E+00  5424   0.163E+00    0.398E+00
DAV:   3    -0.934722211255E+03    0.16227E+00   -0.51952E-01  5052   0.141E+00    0.134E+00
DAV:   4    -0.934715582634E+03    0.66286E-02   -0.19693E-01  5064   0.118E+00    0.119E+00
DAV:   5    -0.934643959874E+03    0.71623E-01   -0.47197E-02  5172   0.615E-01    0.642E-01
DAV:   6    -0.934648754748E+03   -0.47949E-02   -0.33763E-02  5016   0.260E-01    0.421E-01
DAV:   7    -0.934644190491E+03    0.45643E-02   -0.18908E-02  5184   0.226E-01    0.291E-01
DAV:   8    -0.934643642674E+03    0.54782E-03   -0.64202E-03  5136   0.107E-01    0.242E-01
DAV:   9    -0.934643310305E+03    0.33237E-03   -0.20154E-03  4884   0.579E-02    0.163E-01
DAV:  10    -0.934643159121E+03    0.15118E-03   -0.70647E-04  5040   0.326E-02    0.785E-02
DAV:  11    -0.934643183164E+03   -0.24043E-04   -0.32447E-04  5268   0.208E-02    0.220E-02
DAV:  12    -0.934643197363E+03   -0.14199E-04   -0.86324E-05  4788   0.117E-02    0.879E-03
DAV:  13    -0.934643215613E+03   -0.18251E-04   -0.29591E-05  5184   0.592E-03    0.579E-03
DAV:  14    -0.934643225778E+03   -0.10165E-04   -0.30887E-06  2688   0.249E-03    0.429E-03
DAV:  15    -0.934643241351E+03   -0.15573E-04   -0.25051E-06  2940   0.181E-03    0.163E-03
DAV:  16    -0.934643255056E+03   -0.13705E-04   -0.13582E-06  2856   0.139E-03    0.186E-03
DAV:  17    -0.934643261405E+03   -0.63486E-05   -0.43752E-07  2436   0.850E-04    0.151E-03
DAV:  18    -0.934643271776E+03   -0.10371E-04   -0.78220E-07  2784   0.788E-04    0.677E-04
DAV:  19    -0.934643280043E+03   -0.82670E-05   -0.10294E-06  2820   0.724E-04    0.111E-03
DAV:  20    -0.934643281419E+03   -0.13763E-05   -0.14977E-07  2412   0.444E-04
  17 F= -.93464328E+03 E0= -.93460568E+03  d E =-.569829E-01
       N       E                     dE             d eps       ncg     rms          rms(c)
DAV:   1    -0.934622112088E+03    0.21168E-01   -0.17465E+01  4128   0.475E+00    0.140E+00
DAV:   2    -0.934856710147E+03   -0.23460E+00   -0.94968E-01  5772   0.114E+00    0.293E+00
DAV:   3    -0.934703150310E+03    0.15356E+00   -0.23325E-01  5172   0.110E+00    0.757E-01
DAV:   4    -0.934676997702E+03    0.26153E-01   -0.11011E-01  5160   0.711E-01    0.448E-01
DAV:   5    -0.934671294357E+03    0.57033E-02   -0.21336E-02  5196   0.287E-01    0.302E-01
DAV:   6    -0.934671247356E+03    0.47000E-04   -0.97453E-03  5112   0.164E-01    0.218E-01
DAV:   7    -0.934669908315E+03    0.13390E-02   -0.58246E-03  5160   0.119E-01    0.771E-02
DAV:   8    -0.934669914917E+03   -0.66019E-05   -0.23839E-03  4896   0.629E-02    0.509E-02
DAV:   9    -0.934669907244E+03    0.76735E-05   -0.44934E-04  5172   0.297E-02    0.413E-02
DAV:  10    -0.934669905056E+03    0.21873E-05   -0.74787E-05  5616   0.109E-02    0.284E-02
DAV:  11    -0.934669907536E+03   -0.24796E-05   -0.36422E-05  4584   0.724E-03
  18 F= -.93466991E+03 E0= -.93463257E+03  d E =-.836090E-01
       N       E                     dE             d eps       ncg     rms          rms(c)
DAV:   1    -0.934706756861E+03   -0.36852E-01   -0.33604E+00  4320   0.209E+00    0.776E-01
DAV:   2    -0.934796774523E+03   -0.90018E-01   -0.31838E-01  5844   0.699E-01    0.199E+00
DAV:   3    -0.934729277421E+03    0.67497E-01   -0.10365E-01  5424   0.637E-01    0.457E-01
DAV:   4    -0.934723951706E+03    0.53257E-02   -0.36669E-02  4992   0.382E-01    0.286E-01
DAV:   5    -0.934722309350E+03    0.16424E-02   -0.69825E-03  5352   0.156E-01    0.195E-01
DAV:   6    -0.934722435703E+03   -0.12635E-03   -0.45215E-03  5196   0.103E-01    0.138E-01
DAV:   7    -0.934721781967E+03    0.65374E-03   -0.20742E-03  5052   0.708E-02    0.635E-02
DAV:   8    -0.934721817030E+03   -0.35063E-04   -0.79179E-04  5064   0.373E-02    0.262E-02
DAV:   9    -0.934721798210E+03    0.18820E-04   -0.21051E-04  4956   0.212E-02    0.212E-02
DAV:  10    -0.934721805346E+03   -0.71358E-05   -0.43828E-05  5208   0.831E-03    0.157E-02
DAV:  11    -0.934721816251E+03   -0.10905E-04   -0.91725E-06  3264   0.433E-03    0.808E-03
DAV:  12    -0.934721828280E+03   -0.12029E-04   -0.13291E-05  3612   0.367E-03    0.357E-03
DAV:  13    -0.934721835157E+03   -0.68768E-05   -0.17525E-06  2508   0.188E-03    0.282E-03
DAV:  14    -0.934721847189E+03   -0.12033E-04   -0.10541E-06  2664   0.120E-03    0.153E-03
DAV:  15    -0.934721855762E+03   -0.85727E-05   -0.77544E-07  2460   0.102E-03    0.999E-04
DAV:  16    -0.934721863912E+03   -0.81496E-05   -0.60965E-07  2664   0.828E-04    0.110E-03
DAV:  17    -0.934721872341E+03   -0.84294E-05   -0.75008E-07  2760   0.661E-04    0.584E-04
DAV:  18    -0.934721874631E+03   -0.22903E-05   -0.21223E-07  2376   0.464E-04
  19 F= -.93472187E+03 E0= -.93468450E+03  d E =-.519671E-01
       N       E                     dE             d eps       ncg     rms          rms(c)
DAV:   1    -0.934720042210E+03    0.18301E-02   -0.60666E+00  4308   0.279E+00    0.105E+00
DAV:   2    -0.934884293606E+03   -0.16425E+00   -0.58873E-01  5796   0.926E-01    0.265E+00
DAV:   3    -0.934761343555E+03    0.12295E+00   -0.18032E-01  5412   0.855E-01    0.627E-01
DAV:   4    -0.934750887076E+03    0.10456E-01   -0.66703E-02  5052   0.514E-01    0.396E-01
DAV:   5    -0.934747940220E+03    0.29469E-02   -0.13246E-02  5400   0.211E-01    0.265E-01
DAV:   6    -0.934748093416E+03   -0.15320E-03   -0.86677E-03  5148   0.144E-01    0.183E-01
DAV:   7    -0.934746876404E+03    0.12170E-02   -0.40108E-03  5028   0.976E-02    0.773E-02
DAV:   8    -0.934746940711E+03   -0.64307E-04   -0.14406E-03  5088   0.512E-02    0.353E-02
DAV:   9    -0.934746898134E+03    0.42577E-04   -0.36401E-04  4944   0.283E-02    0.291E-02
DAV:  10    -0.934746903583E+03   -0.54487E-05   -0.76565E-05  5388   0.110E-02    0.204E-02
DAV:  11    -0.934746915376E+03   -0.11793E-04   -0.19155E-05  3984   0.579E-03    0.972E-03
DAV:  12    -0.934746929163E+03   -0.13786E-04   -0.21189E-05  4248   0.450E-03    0.454E-03
DAV:  13    -0.934746937423E+03   -0.82606E-05   -0.18627E-06  2508   0.202E-03    0.360E-03
DAV:  14    -0.934746952327E+03   -0.14904E-04   -0.14987E-06  2844   0.138E-03    0.188E-03
DAV:  15    -0.934746960043E+03   -0.77163E-05   -0.82376E-07  2448   0.110E-03    0.125E-03
DAV:  16    -0.934746970834E+03   -0.10790E-04   -0.73409E-07  2736   0.911E-04    0.131E-03
DAV:  17    -0.934746982512E+03   -0.11679E-04   -0.10975E-06  2832   0.780E-04    0.933E-04
DAV:  18    -0.934746985832E+03   -0.33199E-05   -0.22644E-07  2448   0.507E-04
  20 F= -.93474699E+03 E0= -.93470957E+03  d E =-.770783E-01
       N       E                     dE             d eps       ncg     rms          rms(c)
DAV:   1    -0.934760460384E+03   -0.13478E-01   -0.19686E+00  4128   0.155E+00    0.310E-01
DAV:   2    -0.934771116229E+03   -0.10656E-01   -0.11558E-01  5004   0.311E-01    0.229E-01
DAV:   3    -0.934771223059E+03   -0.10683E-03   -0.52720E-03  5424   0.858E-02    0.234E-01
DAV:   4    -0.934770889942E+03    0.33312E-03   -0.97455E-04  5148   0.601E-02    0.161E-01
DAV:   5    -0.934772044184E+03   -0.11542E-02   -0.88810E-04  5508   0.100E-01    0.150E-01
DAV:   6    -0.934770589019E+03    0.14552E-02   -0.63782E-04  5856   0.907E-02    0.727E-02
DAV:   7    -0.934770610116E+03   -0.21097E-04   -0.80293E-04  5100   0.434E-02    0.420E-02
DAV:   8    -0.934770525455E+03    0.84661E-04   -0.40461E-04  5028   0.307E-02    0.234E-02
DAV:   9    -0.934770520161E+03    0.52944E-05   -0.87278E-05  4872   0.130E-02    0.118E-02
DAV:  10    -0.934770525048E+03   -0.48873E-05   -0.24402E-05  4572   0.772E-03
  21 F= -.93477053E+03 E0= -.93473324E+03  d E =-.235392E-01
       N       E                     dE             d eps       ncg     rms          rms(c)
DAV:   1    -0.934770269302E+03    0.25086E-03   -0.10246E+00  4128   0.112E+00    0.220E-01
DAV:   2    -0.934775648802E+03   -0.53795E-02   -0.59206E-02  4968   0.224E-01    0.156E-01
DAV:   3    -0.934775639507E+03    0.92953E-05   -0.27978E-03  5352   0.575E-02    0.140E-01
DAV:   4    -0.934775565718E+03    0.73789E-04   -0.39668E-04  5376   0.327E-02    0.114E-01
DAV:   5    -0.934775449936E+03    0.11578E-03   -0.41219E-04  4980   0.291E-02    0.621E-02
DAV:   6    -0.934775860644E+03   -0.41071E-03   -0.34476E-04  5796   0.572E-02    0.584E-02
DAV:   7    -0.934775447628E+03    0.41302E-03   -0.19318E-04  5376   0.535E-02    0.294E-02
DAV:   8    -0.934775404337E+03    0.43291E-04   -0.13442E-04  5184   0.208E-02    0.166E-02
DAV:   9    -0.934775402758E+03    0.15790E-05   -0.41241E-05  4980   0.939E-03
  22 F= -.93477540E+03 E0= -.93473819E+03  d E =-.284169E-01
       N       E                     dE             d eps       ncg     rms          rms(c)
DAV:   1    -0.934790272420E+03   -0.14868E-01   -0.18997E+00  4224   0.160E+00    0.396E-01
DAV:   2    -0.934812361961E+03   -0.22090E-01   -0.94276E-02  5280   0.364E-01    0.966E-01
DAV:   3    -0.934797898383E+03    0.14464E-01   -0.23846E-02  5040   0.286E-01    0.205E-01
DAV:   4    -0.934798143577E+03   -0.24519E-03   -0.81303E-03  4896   0.203E-01    0.165E-01
DAV:   5    -0.934796787546E+03    0.13560E-02   -0.14677E-03  5160   0.981E-02    0.107E-01
DAV:   6    -0.934796999726E+03   -0.21218E-03   -0.12114E-03  5340   0.581E-02    0.742E-02
DAV:   7    -0.934796701574E+03    0.29815E-03   -0.98656E-04  5136   0.496E-02    0.239E-02
DAV:   8    -0.934796708752E+03   -0.71782E-05   -0.25409E-04  4944   0.206E-02    0.165E-02
DAV:   9    -0.934796707199E+03    0.15532E-05   -0.41397E-05  5028   0.917E-03
  23 F= -.93479671E+03 E0= -.93475962E+03  d E =-.213044E-01
       N       E                     dE             d eps       ncg     rms          rms(c)
DAV:   1    -0.934771823906E+03    0.24885E-01   -0.16915E+01  4200   0.477E+00    0.124E+00
DAV:   2    -0.934968249228E+03   -0.19643E+00   -0.86254E-01  5172   0.107E+00    0.275E+00
DAV:   3    -0.934843855888E+03    0.12439E+00   -0.19056E-01  5076   0.879E-01    0.631E-01
DAV:   4    -0.934839512405E+03    0.43435E-02   -0.76901E-02  4932   0.626E-01    0.490E-01
DAV:   5    -0.934827711511E+03    0.11801E-01   -0.13752E-02  5112   0.295E-01    0.322E-01
DAV:   6    -0.934829054225E+03   -0.13427E-02   -0.10482E-02  5460   0.173E-01    0.224E-01
DAV:   7    -0.934826793765E+03    0.22605E-02   -0.84042E-03  5088   0.141E-01    0.641E-02
DAV:   8    -0.934826848595E+03   -0.54830E-04   -0.22200E-03  4968   0.612E-02    0.476E-02
DAV:   9    -0.934826834423E+03    0.14172E-04   -0.34674E-04  5100   0.268E-02    0.343E-02
DAV:  10    -0.934826850732E+03   -0.16309E-04   -0.83615E-05  5340   0.122E-02    0.136E-02
DAV:  11    -0.934826875472E+03   -0.24740E-04   -0.36193E-05  4764   0.742E-03    0.555E-03
DAV:  12    -0.934826887270E+03   -0.11798E-04   -0.53405E-06  2844   0.347E-03    0.328E-03
DAV:  13    -0.934826905736E+03   -0.18465E-04   -0.22182E-06  2796   0.195E-03    0.173E-03
DAV:  14    -0.934826927513E+03   -0.21777E-04   -0.15676E-06  2916   0.147E-03    0.123E-03
DAV:  15    -0.934826938413E+03   -0.10900E-04   -0.64450E-07  2544   0.108E-03    0.961E-04
DAV:  16    -0.934826948356E+03   -0.99431E-05   -0.52657E-07  2616   0.818E-04    0.730E-04
DAV:  17    -0.934826959467E+03   -0.11111E-04   -0.82667E-07  2772   0.749E-04    0.373E-04
DAV:  18    -0.934826964140E+03   -0.46728E-05   -0.37297E-07  2484   0.585E-04
  24 F= -.93482696E+03 E0= -.93479025E+03  d E =-.515614E-01
       N       E                     dE             d eps       ncg     rms          rms(c)
DAV:   1    -0.934826369543E+03    0.58992E-03   -0.35529E-01  4176   0.684E-01    0.157E-01
DAV:   2    -0.934829781533E+03   -0.34120E-02   -0.15706E-02  5256   0.145E-01    0.373E-01
DAV:   3    -0.934827674118E+03    0.21074E-02   -0.33165E-03  5028   0.108E-01    0.820E-02
DAV:   4    -0.934827746987E+03   -0.72868E-04   -0.12402E-03  4944   0.789E-02    0.690E-02
DAV:   5    -0.934827524157E+03    0.22283E-03   -0.22476E-04  5172   0.392E-02    0.447E-02
DAV:   6    -0.934827570108E+03   -0.45951E-04   -0.20630E-04  5280   0.241E-02    0.311E-02
DAV:   7    -0.934827515282E+03    0.54826E-04   -0.17560E-04  5148   0.208E-02    0.102E-02
DAV:   8    -0.934827516888E+03   -0.16058E-05   -0.41864E-05  4908   0.823E-03
  25 F= -.93482752E+03 E0= -.93479086E+03  d E =-.521141E-01
       N       E                     dE             d eps       ncg     rms          rms(c)
DAV:   1    -0.934835936959E+03   -0.84217E-02   -0.17411E+00  4140   0.150E+00    0.366E-01
DAV:   2    -0.934855110009E+03   -0.19173E-01   -0.84438E-02  5268   0.331E-01    0.878E-01
DAV:   3    -0.934843333430E+03    0.11777E-01   -0.17921E-02  5064   0.277E-01    0.201E-01
DAV:   4    -0.934843159351E+03    0.17408E-03   -0.75116E-03  5124   0.188E-01    0.169E-01
DAV:   5    -0.934842188271E+03    0.97108E-03   -0.12770E-03  5160   0.834E-02    0.108E-01
DAV:   6    -0.934842392292E+03   -0.20402E-03   -0.11041E-03  5004   0.492E-02    0.709E-02
DAV:   7    -0.934842170285E+03    0.22201E-03   -0.81530E-04  5016   0.464E-02    0.367E-02
DAV:   8    -0.934842165919E+03    0.43658E-05   -0.21911E-04  4884   0.201E-02    0.263E-02
DAV:   9    -0.934842167164E+03   -0.12447E-05   -0.50110E-05  4932   0.106E-02    0.160E-02
DAV:  10    -0.934842165823E+03    0.13414E-05   -0.16821E-05  4224   0.593E-03
  26 F= -.93484217E+03 E0= -.93480543E+03  d E =-.146489E-01
       N       E                     dE             d eps       ncg     rms          rms(c)
DAV:   1    -0.934831496479E+03    0.10671E-01   -0.60144E+00  4140   0.278E+00    0.697E-01
DAV:   2    -0.934899059896E+03   -0.67563E-01   -0.29854E-01  5268   0.628E-01    0.165E+00
DAV:   3    -0.934858471196E+03    0.40589E-01   -0.66024E-02  5088   0.530E-01    0.387E-01
DAV:   4    -0.934856764365E+03    0.17068E-02   -0.27204E-02  5076   0.361E-01    0.329E-01
DAV:   5    -0.934853140913E+03    0.36235E-02   -0.46346E-03  5136   0.160E-01    0.210E-01
DAV:   6    -0.934853861957E+03   -0.72104E-03   -0.40929E-03  5004   0.940E-02    0.139E-01
DAV:   7    -0.934853032479E+03    0.82948E-03   -0.29188E-03  4956   0.882E-02    0.731E-02
DAV:   8    -0.934853026034E+03    0.64447E-05   -0.81267E-04  4884   0.386E-02    0.515E-02
DAV:   9    -0.934853028618E+03   -0.25837E-05   -0.19588E-04  4920   0.210E-02    0.308E-02
DAV:  10    -0.934853022966E+03    0.56523E-05   -0.68456E-05  5028   0.118E-02    0.160E-02
DAV:  11    -0.934853025743E+03   -0.27779E-05   -0.24037E-05  4488   0.620E-03
  27 F= -.93485303E+03 E0= -.93481609E+03  d E =-.255089E-01
       N       E                     dE             d eps       ncg     rms          rms(c)
DAV:   1    -0.934858369751E+03   -0.53468E-02   -0.10890E+00  4200   0.122E+00    0.308E-01
DAV:   2    -0.934874015075E+03   -0.15645E-01   -0.80692E-02  5208   0.312E-01    0.784E-01
DAV:   3    -0.934864594299E+03    0.94208E-02   -0.14558E-02  5028   0.228E-01    0.213E-01
DAV:   4    -0.934864190681E+03    0.40362E-03   -0.50555E-03  4908   0.144E-01    0.163E-01
DAV:   5    -0.934863662162E+03    0.52852E-03   -0.82956E-04  5220   0.675E-02    0.124E-01
DAV:   6    -0.934863894644E+03   -0.23248E-03   -0.11920E-03  5220   0.570E-02    0.780E-02
DAV:   7    -0.934863540132E+03    0.35451E-03   -0.11013E-03  4932   0.519E-02    0.327E-02
DAV:   8    -0.934863539800E+03    0.33142E-06   -0.21607E-04  4968   0.199E-02    0.145E-02
DAV:   9    -0.934863540386E+03   -0.58585E-06   -0.41632E-05  5040   0.928E-03
  28 F= -.93486354E+03 E0= -.93482660E+03  d E =-.105146E-01
       N       E                     dE             d eps       ncg     rms          rms(c)
DAV:   1    -0.934863113716E+03    0.42608E-03   -0.59141E-01  4176   0.892E-01    0.228E-01
DAV:   2    -0.934871655909E+03   -0.85422E-02   -0.42797E-02  5184   0.230E-01    0.588E-01
DAV:   3    -0.934866383224E+03    0.52727E-02   -0.81236E-03  5016   0.170E-01    0.157E-01
DAV:   4    -0.934866135680E+03    0.24754E-03   -0.28684E-03  4884   0.106E-01    0.120E-01
DAV:   5    -0.934865876827E+03    0.25885E-03   -0.45388E-04  5184   0.479E-02    0.916E-02
DAV:   6    -0.934866015441E+03   -0.13861E-03   -0.63831E-04  5172   0.417E-02    0.586E-02
DAV:   7    -0.934865821188E+03    0.19425E-03   -0.59694E-04  4944   0.384E-02    0.248E-02
DAV:   8    -0.934865825201E+03   -0.40130E-05   -0.12060E-04  5004   0.150E-02    0.109E-02
DAV:   9    -0.934865827716E+03   -0.25148E-05   -0.24847E-05  4632   0.729E-03
  29 F= -.93486583E+03 E0= -.93482889E+03  d E =-.128020E-01
       N       E                     dE             d eps       ncg     rms          rms(c)
DAV:   1    -0.934871809216E+03   -0.59840E-02   -0.26610E-01  4152   0.612E-01    0.131E-01
DAV:   2    -0.934873337965E+03   -0.15287E-02   -0.14064E-02  5232   0.123E-01    0.182E-01
DAV:   3    -0.934873148976E+03    0.18899E-03   -0.11435E-03  5244   0.730E-02    0.898E-02
DAV:   4    -0.934873216649E+03   -0.67673E-04   -0.58739E-04  4944   0.741E-02    0.716E-02
DAV:   5    -0.934872874768E+03    0.34188E-03   -0.15987E-04  5316   0.464E-02    0.447E-02
DAV:   6    -0.934872894194E+03   -0.19425E-04   -0.15068E-04  5112   0.206E-02    0.248E-02
DAV:   7    -0.934872889335E+03    0.48588E-05   -0.16967E-04  4920   0.196E-02    0.154E-02
DAV:   8    -0.934872879549E+03    0.97854E-05   -0.38697E-05  4908   0.101E-02    0.981E-03
DAV:   9    -0.934872880792E+03   -0.12423E-05   -0.12576E-05  3636   0.465E-03
  30 F= -.93487288E+03 E0= -.93483591E+03  d E =-.705308E-02
       N       E                     dE             d eps       ncg     rms          rms(c)
DAV:   1    -0.934875686053E+03   -0.28065E-02   -0.80273E-01  4152   0.106E+00    0.230E-01
DAV:   2    -0.934880350508E+03   -0.46645E-02   -0.43082E-02  5208   0.216E-01    0.322E-01
DAV:   3    -0.934879771582E+03    0.57893E-03   -0.36101E-03  5232   0.128E-01    0.157E-01
DAV:   4    -0.934880008135E+03   -0.23655E-03   -0.18273E-03  4920   0.131E-01    0.125E-01
DAV:   5    -0.934878911921E+03    0.10962E-02   -0.49453E-04  5316   0.818E-02    0.785E-02
DAV:   6    -0.934878944792E+03   -0.32870E-04   -0.44759E-04  5124   0.354E-02    0.444E-02
DAV:   7    -0.934878921669E+03    0.23123E-04   -0.51857E-04  4920   0.339E-02    0.279E-02
DAV:   8    -0.934878883207E+03    0.38462E-04   -0.12199E-04  5028   0.179E-02    0.182E-02
DAV:   9    -0.934878883324E+03   -0.11654E-06   -0.41475E-05  4752   0.820E-03
  31 F= -.93487888E+03 E0= -.93484186E+03  d E =-.130556E-01
       N       E                     dE             d eps       ncg     rms          rms(c)
DAV:   1    -0.934878919994E+03   -0.36787E-04   -0.52984E-02  4212   0.275E-01    0.597E-02
DAV:   2    -0.934879233398E+03   -0.31340E-03   -0.29224E-03  5184   0.562E-02    0.824E-02
DAV:   3    -0.934879201173E+03    0.32224E-04   -0.24184E-04  5244   0.331E-02    0.404E-02
DAV:   4    -0.934879220538E+03   -0.19365E-04   -0.12227E-04  4932   0.342E-02    0.322E-02
DAV:   5    -0.934879143374E+03    0.77164E-04   -0.33748E-05  5268   0.217E-02    0.204E-02
DAV:   6    -0.934879146308E+03   -0.29347E-05   -0.28909E-05  4632   0.924E-03
  32 F= -.93487915E+03 E0= -.93484209E+03  d E =-.133186E-01
       N       E                     dE             d eps       ncg     rms          rms(c)
DAV:   1    -0.934881760375E+03   -0.26170E-02   -0.13502E-01  4152   0.427E-01    0.936E-02
DAV:   2    -0.934882789898E+03   -0.10295E-02   -0.62473E-03  4956   0.852E-02    0.173E-01
DAV:   3    -0.934882390574E+03    0.39932E-03   -0.96620E-04  5088   0.606E-02    0.562E-02
DAV:   4    -0.934882384320E+03    0.62543E-05   -0.35158E-04  5160   0.495E-02    0.475E-02
DAV:   5    -0.934882261534E+03    0.12279E-03   -0.85009E-05  5220   0.267E-02    0.280E-02
DAV:   6    -0.934882279075E+03   -0.17541E-04   -0.77694E-05  5124   0.131E-02    0.155E-02
DAV:   7    -0.934882267826E+03    0.11249E-04   -0.64133E-05  4680   0.123E-02    0.648E-03
DAV:   8    -0.934882266711E+03    0.11156E-05   -0.10854E-05  3912   0.518E-03
  33 F= -.93488227E+03 E0= -.93484530E+03  d E =-.312040E-02
       N       E                     dE             d eps       ncg     rms          rms(c)
DAV:   1    -0.934884284295E+03   -0.20165E-02   -0.12152E+00  4128   0.128E+00    0.276E-01
DAV:   2    -0.934892860873E+03   -0.85766E-02   -0.56131E-02  4944   0.248E-01    0.490E-01
DAV:   3    -0.934889941170E+03    0.29197E-02   -0.78099E-03  5136   0.170E-01    0.166E-01
DAV:   4    -0.934889836246E+03    0.10492E-03   -0.29372E-03  5112   0.144E-01    0.137E-01
DAV:   5    -0.934888810995E+03    0.10253E-02   -0.73595E-04  5232   0.781E-02    0.833E-02
DAV:   6    -0.934888984072E+03   -0.17308E-03   -0.72409E-04  5124   0.437E-02    0.543E-02
DAV:   7    -0.934888796668E+03    0.18740E-03   -0.60374E-04  5016   0.387E-02    0.179E-02
DAV:   8    -0.934888801326E+03   -0.46578E-05   -0.12279E-04  4956   0.143E-02    0.113E-02
DAV:   9    -0.934888801781E+03   -0.45472E-06   -0.19743E-05  4332   0.619E-03
  34 F= -.93488880E+03 E0= -.93485203E+03  d E =-.965547E-02
       N       E                     dE             d eps       ncg     rms          rms(c)
DAV:   1    -0.934871273805E+03    0.17528E-01   -0.48428E+00  4128   0.256E+00    0.544E-01
DAV:   2    -0.934903174996E+03   -0.31901E-01   -0.22276E-01  4920   0.486E-01    0.898E-01
DAV:   3    -0.934893899397E+03    0.92756E-02   -0.28119E-02  5136   0.323E-01    0.334E-01
DAV:   4    -0.934893339276E+03    0.56012E-03   -0.10814E-02  5148   0.281E-01    0.269E-01
DAV:   5    -0.934889343871E+03    0.39954E-02   -0.28754E-03  5244   0.154E-01    0.168E-01
DAV:   6    -0.934889987734E+03   -0.64386E-03   -0.28270E-03  5124   0.857E-02    0.108E-01
DAV:   7    -0.934889261684E+03    0.72605E-03   -0.24115E-03  5076   0.765E-02    0.358E-02
DAV:   8    -0.934889274944E+03   -0.13260E-04   -0.46560E-04  4968   0.283E-02    0.222E-02
DAV:   9    -0.934889278334E+03   -0.33892E-05   -0.85109E-05  5064   0.128E-02    0.150E-02
DAV:  10    -0.934889279113E+03   -0.77929E-06   -0.18970E-05  4080   0.676E-03
  35 F= -.93488928E+03 E0= -.93485288E+03  d E =-.101328E-01
       N       E                     dE             d eps       ncg     rms          rms(c)
DAV:   1    -0.934887159710E+03    0.21186E-02   -0.10532E+00  4128   0.119E+00    0.239E-01
DAV:   2    -0.934893514458E+03   -0.63547E-02   -0.47783E-02  4908   0.221E-01    0.380E-01
DAV:   3    -0.934892115020E+03    0.13994E-02   -0.50309E-03  5196   0.139E-01    0.162E-01
DAV:   4    -0.934891944622E+03    0.17040E-03   -0.19770E-03  5112   0.124E-01    0.126E-01
DAV:   5    -0.934891154133E+03    0.79049E-03   -0.61149E-04  5304   0.698E-02    0.788E-02
DAV:   6    -0.934891288695E+03   -0.13456E-03   -0.55103E-04  5088   0.382E-02    0.488E-02
DAV:   7    -0.934891149909E+03    0.13879E-03   -0.50550E-04  4932   0.356E-02    0.169E-02
DAV:   8    -0.934891150735E+03   -0.82600E-06   -0.10123E-04  5016   0.136E-02    0.102E-02
DAV:   9    -0.934891151996E+03   -0.12610E-05   -0.17478E-05  4188   0.572E-03
  36 F= -.93489115E+03 E0= -.93485458E+03  d E =-.120057E-01
       N       E                     dE             d eps       ncg     rms          rms(c)
DAV:   1    -0.934893038093E+03   -0.18874E-02   -0.46442E-01  4128   0.778E-01    0.142E-01
DAV:   2    -0.934895271583E+03   -0.22335E-02   -0.23877E-02  4656   0.144E-01    0.916E-02
DAV:   3    -0.934895473486E+03   -0.20190E-03   -0.68673E-04  5268   0.520E-02    0.879E-02
DAV:   4    -0.934895262318E+03    0.21117E-03   -0.21686E-04  5028   0.505E-02    0.587E-02
DAV:   5    -0.934895316080E+03   -0.53763E-04   -0.28049E-04  5568   0.372E-02    0.645E-02
DAV:   6    -0.934895182526E+03    0.13355E-03   -0.17218E-04  5400   0.256E-02    0.188E-02
DAV:   7    -0.934895199834E+03   -0.17308E-04   -0.85140E-05  5148   0.121E-02    0.946E-03
DAV:   8    -0.934895194777E+03    0.50568E-05   -0.28034E-05  4524   0.856E-03    0.617E-03
DAV:   9    -0.934895194625E+03    0.15193E-06   -0.44921E-06  2820   0.385E-03
  37 F= -.93489519E+03 E0= -.93485875E+03  d E =-.404263E-02
       N       E                     dE             d eps       ncg     rms          rms(c)
DAV:   1    -0.934891476860E+03    0.37179E-02   -0.13735E+00  4128   0.134E+00    0.245E-01
DAV:   2    -0.934898168554E+03   -0.66917E-02   -0.71541E-02  4644   0.248E-01    0.156E-01
DAV:   3    -0.934898653015E+03   -0.48446E-03   -0.20426E-03  5268   0.859E-02    0.137E-01
DAV:   4    -0.934898174617E+03    0.47840E-03   -0.59597E-04  4956   0.855E-02    0.102E-01
DAV:   5    -0.934898195379E+03   -0.20763E-04   -0.80872E-04  5232   0.585E-02    0.873E-02
DAV:   6    -0.934897918737E+03    0.27664E-03   -0.52431E-04  5220   0.422E-02    0.367E-02
DAV:   7    -0.934897956805E+03   -0.38068E-04   -0.18987E-04  5160   0.205E-02    0.209E-02
DAV:   8    -0.934897939125E+03    0.17680E-04   -0.85931E-05  5052   0.150E-02    0.110E-02
DAV:   9    -0.934897940770E+03   -0.16451E-05   -0.19126E-05  4476   0.651E-03
  38 F= -.93489794E+03 E0= -.93486171E+03  d E =-.678877E-02
       N       E                     dE             d eps       ncg     rms          rms(c)
DAV:   1    -0.934898603774E+03   -0.66465E-03   -0.40862E-01  4224   0.714E-01    0.233E-01
DAV:   2    -0.934906309642E+03   -0.77059E-02   -0.32614E-02  5736   0.220E-01    0.570E-01
DAV:   3    -0.934901287974E+03    0.50217E-02   -0.88769E-03  5052   0.185E-01    0.137E-01
DAV:   4    -0.934900769806E+03    0.51817E-03   -0.27826E-03  4992   0.115E-01    0.968E-02
DAV:   5    -0.934900529511E+03    0.24029E-03   -0.49587E-04  5100   0.483E-02    0.686E-02
DAV:   6    -0.934900600461E+03   -0.70950E-04   -0.46745E-04  5316   0.356E-02    0.478E-02
DAV:   7    -0.934900483969E+03    0.11649E-03   -0.37623E-04  4992   0.305E-02    0.178E-02
DAV:   8    -0.934900486640E+03   -0.26715E-05   -0.99370E-05  5040   0.138E-02    0.101E-02
DAV:   9    -0.934900485378E+03    0.12622E-05   -0.21428E-05  4308   0.709E-03
  39 F= -.93490049E+03 E0= -.93486429E+03  d E =-.254461E-02
       N       E                     dE             d eps       ncg     rms          rms(c)
DAV:   1    -0.934900313629E+03    0.17301E-03   -0.10534E-01  4248   0.364E-01    0.120E-01
DAV:   2    -0.934902298991E+03   -0.19854E-02   -0.85799E-03  5796   0.113E-01    0.290E-01
DAV:   3    -0.934901016788E+03    0.12822E-02   -0.23498E-03  5028   0.940E-02    0.684E-02
DAV:   4    -0.934900895068E+03    0.12172E-03   -0.71975E-04  4968   0.596E-02    0.483E-02
DAV:   5    -0.934900825427E+03    0.69641E-04   -0.13071E-04  5100   0.254E-02    0.340E-02
DAV:   6    -0.934900841382E+03   -0.15956E-04   -0.11725E-04  5136   0.179E-02    0.240E-02
DAV:   7    -0.934900814240E+03    0.27142E-04   -0.92464E-05  4968   0.151E-02    0.873E-03
DAV:   8    -0.934900815819E+03   -0.15788E-05   -0.25148E-05  4644   0.703E-03
  40 F= -.93490082E+03 E0= -.93486464E+03  d E =-.287505E-02
