NiAl                                    
           1
     0.000000  -17.180573    0.000000
     0.000000   -8.590287  -14.878813
    30.000000    0.000000    0.000000
   Al   N 
 252   2
Direct configuration=     1
   0.44647042  0.61313695  0.54813167
   0.61676438  0.44161789  0.54274033
   0.77933134  0.27645418  0.54457700
   0.94446263  0.11112916  0.54455700
   0.94469853  0.27765051  0.54439633
   0.94446231  0.44440843  0.54455703
   0.77756522  0.61141772  0.54477170
   0.61066527  0.77733149  0.54505137
   0.44475100  0.94423190  0.54477170
   0.61108088  0.94445975  0.54423703
   0.77779301  0.94445975  0.54423703
   0.94533687  0.77733149  0.54505140
   0.94435069  0.61141772  0.54477170
   0.83338994  0.66655317  0.46628503
   0.66659154  0.83325800  0.46624437
   0.72222214  0.88888878  0.38989003
   0.88918804  0.72203871  0.38970437
   0.94436763  0.77781601  0.31176303
   0.77772874  0.94439516  0.31179437
   0.94460836  0.94455377  0.31170337
   0.88918767  0.88877311  0.38970437
   0.83348356  0.83325793  0.46624437
   0.77779271  0.77774752  0.54423703
   0.77933153  0.44421420  0.54457700
   0.66769054  0.50002913  0.46598200
   0.83412399  0.33293785  0.46617733
   0.88871778  0.38906605  0.38961200
   0.72184811  0.55574460  0.38955770
   0.77788688  0.61083844  0.31170337
   0.61114991  0.77781608  0.31176303
   0.66677775  0.83344424  0.23383837
   0.83310763  0.66711780  0.23388603
   0.88886298  0.72238034  0.15701270
   0.72222205  0.88888885  0.15674603
   0.77790746  0.94457414  0.07850070
   0.94462679  0.77768650  0.07892070
   0.94437139  0.94434764  0.07907270
   0.88886298  0.88875651  0.15701270
   0.83311096  0.83344424  0.23383837
   0.77772849  0.77787596  0.31179433
   0.72210616  0.72203878  0.38970433
   0.66652204  0.66692618  0.46661397
   0.55530926  0.72197560  0.38993563
   0.50025968  0.83318871  0.46661397
   0.33336245  0.83435748  0.46598197
   0.27495109  0.78343131  0.54274027
   0.10978752  0.94599804  0.54457697
   0.27754735  0.94599804  0.54457697
   0.44336860  0.77829185  0.54522563
   0.49955860  0.66622512  0.46701230
   0.61162511  0.61003515  0.54522563
   0.61120903  0.94439529  0.31179433
   0.44417142  0.94455384  0.31170333
   0.38907810  0.88851436  0.38955763
   0.38887251  0.72177861  0.38999097
   0.22268194  0.72177854  0.38999097
   0.05574060  0.88851429  0.38955763
   0.99988468  0.83318864  0.46661397
   0.16754934  0.66622505  0.46701230
   0.27372584  0.61313681  0.54813163
   0.11167277  0.61003502  0.54522560
   0.27495100  0.44161775  0.54274027
   0.44336913  0.27833927  0.54522560
   0.61066523  0.11200349  0.54505127
   0.66652232  0.16655152  0.46661393
   0.83339018  0.00005713  0.46628493
   0.88885516  0.05552197  0.38959593
   0.72184793  0.22240685  0.38955760
   0.77749466  0.27796579  0.31171260
   0.61055419  0.44472297  0.31197627
   0.66615318  0.50009103  0.23391593
   0.49974106  0.66640732  0.23375593
   0.55547826  0.72214504  0.15730260
   0.38881138  0.88887668  0.15724227
   0.33342410  0.83281979  0.23391593
   0.27805654  0.77722053  0.31197627
   0.11129902  0.94416127  0.31171260
   0.27787259  0.94416133  0.31171260
   0.22221603  0.88890155  0.38954527
   0.16561310  0.83435748  0.46598193
   0.11167251  0.77829185  0.54522560
   0.94460768  0.61083844  0.31170333
   0.94455295  0.44422703  0.31183900
   0.94442060  0.27778963  0.31193897
   0.94455283  0.11121989  0.31183893
   0.83333552  0.16676263  0.23394127
   0.66658932  0.16664569  0.23403587
   0.49974140  0.33385116  0.23375590
   0.55518945  0.38928710  0.15703123
   0.38888911  0.55555574  0.15689827
   0.44428755  0.61095472  0.07849263
   0.61116739  0.44441657  0.07848860
   0.77791516  0.27773734  0.07896227
   0.72221023  0.22231216  0.15724223
   0.72209020  0.05552997  0.15701253
   0.88897740  0.05564429  0.15723557
   0.83310787  0.99977418  0.23388587
   0.77788709  0.11127494  0.31170323
   0.61115009  0.11103366  0.31176287
   0.55537222  0.05585446  0.38970417
   0.49988611  0.00005693  0.46628480
   0.33361572  0.16645528  0.46644947
   0.16627138  0.33293758  0.46617713
   0.99978866  0.50028224  0.46644947
   0.05574051  0.55574433  0.38955747
   0.22221596  0.38888230  0.38954517
   0.27805602  0.44472277  0.31197617
   0.11153985  0.61107139  0.31175613
   0.16718468  0.66640712  0.23375580
   0.99997910  0.83325578  0.23403580
   0.05564501  0.88887648  0.15724213
   0.22262062  0.72185577  0.15703117
   0.27774979  0.77783402  0.07848850
   0.11107074  0.94458187  0.07896217
   0.27768042  0.94458187  0.07896217
   0.44461397  0.94434730  0.07907253
   0.61102037  0.77768623  0.07892053
   0.77768087  0.61128048  0.07907257
   0.72221020  0.55547757  0.15724220
   0.83333518  0.49990191  0.23394123
   0.88893830  0.38871091  0.15711390
   0.83335154  0.33332410  0.23389453
   0.72200796  0.38899588  0.15715187
   0.66615301  0.33375559  0.23391587
   0.61072178  0.27820673  0.31175617
   0.55530915  0.22271508  0.38993547
   0.44440428  0.27820673  0.31175613
   0.38887225  0.38934866  0.38999080
   0.49955895  0.33421523  0.46701213
   0.33309298  0.49975929  0.46655580
   0.38888884  0.55555547  0.38914117
   0.44443520  0.61110224  0.31202187
   0.27779524  0.61110224  0.31202180
   0.33346324  0.50012968  0.23392380
   0.16708902  0.50009063  0.23391577
   0.00009589  0.49990177  0.23394103
   0.16665739  0.33332397  0.23389437
   0.22232922  0.38899581  0.15715173
   0.38881110  0.22231182  0.15724210
   0.55571389  0.05552977  0.15701243
   0.50045135  0.99977391  0.23388573
   0.33323580  0.16676229  0.23394107
   0.27787278  0.27796538  0.31171240
   0.11112300  0.27778923  0.31193867
   0.05555560  0.22222156  0.38949930
   0.00003566  0.16670228  0.46621327
   0.16627146  0.00078985  0.46617693
   0.22239965  0.05538365  0.38961167
   0.27756057  0.11121949  0.31183870
   0.38895613  0.05552150  0.38959573
   0.38907830  0.22240652  0.38955743
   0.50025917  0.16655132  0.46661380
   0.44475103  0.11101658  0.54477143
   0.27774129  0.11112869  0.54455670
   0.11098393  0.27765004  0.54439600
   0.27754742  0.27645377  0.54457673
   0.10978712  0.44421373  0.54457673
   0.16561323  0.50002880  0.46598177
   0.33336230  0.33227953  0.46598177
   0.49974012  0.50012988  0.23392397
   0.44443589  0.44446207  0.31202193
   0.72210653  0.05585446  0.38970420
   0.66659178  0.00015028  0.46624420
   0.83326199  0.50028251  0.46644963
   0.88885496  0.55562302  0.38959600
   0.44416718  0.77780653  0.07915597
   0.38885698  0.72185590  0.15703123
   0.33346313  0.66640665  0.23392387
   0.16708879  0.83281979  0.23391573
   0.11153913  0.77738869  0.31175600
   0.05604740  0.72197573  0.38993530
   0.99988377  0.66692638  0.46661357
   0.61113950  0.61083421  0.07915607
   0.55518924  0.55552341  0.15703137
   0.22232947  0.88867431  0.15715180
   0.77791523  0.44434714  0.07896253
   0.94442801  0.44447692  0.07888800
   0.94437144  0.61128055  0.07907300
   0.88897708  0.55537831  0.15723597
   0.72208951  0.72238020  0.15701283
   0.66658892  0.66676495  0.23403613
   0.61072104  0.61107173  0.31175643
   0.55511101  0.55553914  0.38999103
   0.50047935  0.49975989  0.46655600
   0.55511109  0.38934907  0.38999103
   0.72223451  0.38888270  0.38954550
   0.66768973  0.33228013  0.46598210
   0.61162410  0.27833974  0.54522573
   0.77756380  0.11101726  0.54477187
   0.83326097  0.16645575  0.46644990
   0.88871658  0.22221685  0.38961227
   0.94435766  0.27782109  0.07863630
   0.94442850  0.11109475  0.07888793
   0.88893848  0.22235033  0.15711423
   0.50009816  0.83325598  0.23403603
   0.44440404  0.77738869  0.31175633
   0.77790761  0.77751760  0.07850090
   0.61085136  0.94457387  0.07850077
   0.55571326  0.88875631  0.15701273
   0.77768183  0.11103823  0.07907267
   0.61102103  0.11129295  0.07892033
   0.44416832  0.27802594  0.07915537
   0.27775011  0.44441623  0.07848777
   0.11135997  0.61083407  0.07915480
   0.05564524  0.55547771  0.15724100
   0.05570985  0.72214490  0.15730137
   0.99997833  0.66676508  0.23403457
   0.61114001  0.27802601  0.07915570
   0.55547867  0.22237661  0.15730227
   0.50009777  0.16664595  0.23403547
   0.44417008  0.11127548  0.31170267
   0.38885682  0.38928710  0.15703063
   0.33342384  0.33375606  0.23391517
   0.44428858  0.44475772  0.07849207
   0.27809169  0.61095438  0.07849180
   0.22262034  0.55552348  0.15703033
   0.11135996  0.77780640  0.07915483
   0.66677737  0.99977841  0.23383807
   0.77749393  0.44453922  0.31171240
   0.11129962  0.44453949  0.31171260
   0.05555034  0.38906632  0.38961210
   0.00003705  0.33326146  0.46621397
   0.16661913  0.16672654  0.46623047
   0.11100844  0.11138933  0.54441333
   0.55537212  0.88877318  0.38970433
   0.22268253  0.55553820  0.38999077
   0.22239932  0.22221658  0.38961190
   0.33309350  0.66714730  0.46655623
   0.33361674  0.99992795  0.46644957
   0.44646926  0.44039299  0.54813160
   0.11107146  0.44434694  0.07896110
   0.11115508  0.27782088  0.07863473
   0.05555587  0.22222196  0.15691797
   0.00011505  0.16678226  0.23395320
   0.16665724  0.00001828  0.23389347
   0.22204425  0.05560517  0.15711293
   0.27781057  0.11109455  0.07888670
   0.38871183  0.05564422  0.15723490
   0.33323480  0.00000222  0.23394047
   0.16643546  0.16678226  0.23395350
   0.11112230  0.11108722  0.31193773
   0.05554805  0.05538473  0.38961060
   0.99978668  0.99992956  0.46644813
   0.27768160  0.27773694  0.07896140
   0.22204433  0.22235033  0.15711293
   0.05568395  0.38871098  0.15711267
   0.00011506  0.33310265  0.23395323
   0.44461440  0.11103816  0.07907200
   0.11115527  0.11102398  0.07863473
   0.05568368  0.05560517  0.15711263
   0.00009584  0.00000215  0.23393987
   0.94435015  0.94423190  0.54477173
   0.38888905  0.55555574  0.57152667
   0.38795474  0.52952833  0.60490343
Direct configuration=     2
   0.44793626  0.61482714  0.54702837
   0.61646855  0.44173345  0.54282494
   0.77932406  0.27644879  0.54457722
   0.94445857  0.11112618  0.54456037
   0.94471472  0.27764010  0.54440223
   0.94446181  0.44440422  0.54456323
   0.77756464  0.61141176  0.54477412
   0.61067547  0.77734162  0.54504703
   0.44473552  0.94423296  0.54477483
   0.61107635  0.94446736  0.54424939
   0.77778655  0.94445719  0.54425229
   0.94536465  0.77731479  0.54504925
   0.94433820  0.61142411  0.54477414
   0.83339166  0.66655857  0.46630115
   0.66658297  0.83326052  0.46623903
   0.72221757  0.88891094  0.38989932
   0.88920145  0.72206943  0.38971085
   0.94436710  0.77781463  0.31176202
   0.77773635  0.94440025  0.31178079
   0.94458952  0.94455913  0.31170667
   0.88917639  0.88876348  0.38970747
   0.83347654  0.83326214  0.46623473
   0.77779280  0.77773107  0.54424489
   0.77933647  0.44422289  0.54457185
   0.66763874  0.50004835  0.46600916
   0.83411707  0.33293885  0.46618500
   0.88872504  0.38906707  0.38961089
   0.72186959  0.55574769  0.38954817
   0.77788579  0.61085266  0.31170500
   0.61115117  0.77781341  0.31176373
   0.66677232  0.83344108  0.23384150
   0.83310660  0.66710567  0.23388134
   0.88886230  0.72236407  0.15701736
   0.72221484  0.88889277  0.15674916
   0.77790678  0.94457564  0.07850434
   0.94464811  0.77767551  0.07890786
   0.94438523  0.94434492  0.07906696
   0.88885919  0.88876775  0.15701973
   0.83311287  0.83345099  0.23384656
   0.77773854  0.77785407  0.31178419
   0.72207209  0.72206840  0.38970766
   0.66652919  0.66690833  0.46661630
   0.55530318  0.72197129  0.38993523
   0.50024946  0.83319479  0.46661491
   0.33337697  0.83432129  0.46600451
   0.27509550  0.78311767  0.54281851
   0.10977319  0.94600769  0.54458134
   0.27755053  0.94601636  0.54458042
   0.44340973  0.77831562  0.54522233
   0.49962338  0.66627815  0.46702232
   0.61164629  0.61007765  0.54522657
   0.61119303  0.94441093  0.31178139
   0.44418523  0.94454777  0.31170318
   0.38908339  0.88852390  0.38954798
   0.38888091  0.72178224  0.38997183
   0.22264787  0.72181507  0.38996810
   0.05572309  0.88853370  0.38954436
   0.99986116  0.83321403  0.46661358
   0.16743787  0.66629460  0.46697928
   0.26997762  0.61510652  0.54692754
   0.11164871  0.61007047  0.54523484
   0.27510631  0.44176799  0.54282137
   0.44341376  0.27828735  0.54521655
   0.61064901  0.11202331  0.54505675
   0.66654562  0.16651606  0.46660286
   0.83339321  0.00004707  0.46628892
   0.88885814  0.05552941  0.38959201
   0.72184765  0.22239302  0.38954831
   0.77749223  0.27798093  0.31171392
   0.61059493  0.44470351  0.31197513
   0.66616221  0.50010054  0.23391253
   0.49975667  0.66641664  0.23376001
   0.55547457  0.72214466  0.15729769
   0.38880578  0.88887206  0.15724081
   0.33342425  0.83283993  0.23390696
   0.27804458  0.77725272  0.31197079
   0.11131071  0.94417224  0.31171759
   0.27785374  0.94416611  0.31171845
   0.22222588  0.88887947  0.38954595
   0.16564774  0.83431151  0.46601169
   0.11164854  0.77828789  0.54523370
   0.94459294  0.61084497  0.31170536
   0.94456588  0.44421672  0.31183187
   0.94441344  0.27779704  0.31194980
   0.94456169  0.11121874  0.31183615
   0.83332672  0.16675924  0.23394542
   0.66658409  0.16665772  0.23402655
   0.49975127  0.33382733  0.23377091
   0.55523034  0.38924515  0.15704279
   0.38889383  0.55555806  0.15692515
   0.44430355  0.61097233  0.07849636
   0.61119495  0.44440379  0.07848785
   0.77789761  0.27774418  0.07895590
   0.72218746  0.22232550  0.15723532
   0.72210181  0.05552512  0.15702234
   0.88897721  0.05564416  0.15723171
   0.83311086  0.99978267  0.23388413
   0.77788054  0.11125583  0.31170551
   0.61115553  0.11102685  0.31176067
   0.55539359  0.05586915  0.38970873
   0.49989687  0.00005063  0.46629227
   0.33361637  0.16644497  0.46644679
   0.16627845  0.33294102  0.46618391
   0.99977268  0.50028672  0.46644361
   0.05573447  0.55575123  0.38955199
   0.22223733  0.38889568  0.38955113
   0.27804113  0.44469448  0.31198243
   0.11153635  0.61107915  0.31177065
   0.16716354  0.66641500  0.23376643
   0.99998727  0.83325783  0.23403040
   0.05565651  0.88886009  0.15723684
   0.22257920  0.72189794  0.15704119
   0.27774245  0.77785903  0.07849535
   0.11107779  0.94457348  0.07895473
   0.27768546  0.94457359  0.07895821
   0.44460846  0.94434445  0.07906872
   0.61101993  0.77767134  0.07891233
   0.77767553  0.61128080  0.07906623
   0.72220213  0.55546469  0.15723776
   0.83332616  0.49992109  0.23394707
   0.88894177  0.38870836  0.15711427
   0.83333351  0.33334489  0.23389211
   0.72200459  0.38900151  0.15714233
   0.66615841  0.33373553  0.23391392
   0.61072414  0.27819477  0.31177470
   0.55528620  0.22274852  0.38993639
   0.44441459  0.27820236  0.31177979
   0.38886141  0.38930093  0.38993772
   0.49961917  0.33410898  0.46696810
   0.33320864  0.49985176  0.46673901
   0.38888729  0.55557211  0.38921982
   0.44443198  0.61110353  0.31199978
   0.27779651  0.61110506  0.31198497
   0.33346614  0.50012840  0.23392969
   0.16705719  0.50010623  0.23391094
   0.00008923  0.49991151  0.23394910
   0.16666279  0.33333675  0.23389457
   0.22232592  0.38899483  0.15714297
   0.38880786  0.22233109  0.15723477
   0.55570362  0.05552913  0.15701850
   0.50043938  0.99977581  0.23388700
   0.33324856  0.16676203  0.23394574
   0.27785596  0.27797352  0.31171922
   0.11112968  0.27779908  0.31194460
   0.05555735  0.22222456  0.38950421
   0.00003072  0.16670367  0.46620929
   0.16628264  0.00077491  0.46618731
   0.22239489  0.05539476  0.38961096
   0.27755258  0.11123224  0.31183366
   0.38894126  0.05552383  0.38959812
   0.38909594  0.22240561  0.38955672
   0.50026132  0.16652454  0.46660422
   0.44475551  0.11100026  0.54478025
   0.27775068  0.11113296  0.54456558
   0.11098030  0.27764657  0.54440870
   0.27755465  0.27646169  0.54458283
   0.10980016  0.44421998  0.54458023
   0.16565852  0.50002030  0.46600606
   0.33335626  0.33230984  0.46599974
   0.49974145  0.50013135  0.23392304
   0.44443271  0.44446457  0.31198215
   0.72208592  0.05586988  0.38970752
   0.66659843  0.00012125  0.46624281
   0.83328446  0.50027884  0.46644443
   0.88886448  0.55559715  0.38959170
   0.44416850  0.77781702  0.07914871
   0.38885069  0.72189985  0.15703964
   0.33346613  0.66640467  0.23392143
   0.16707032  0.83283713  0.23390713
   0.11153370  0.77738778  0.31176596
   0.05607431  0.72195056  0.38993640
   0.99984956  0.66692409  0.46661074
   0.61115443  0.61084433  0.07914957
   0.55523171  0.55551771  0.15703547
   0.22233191  0.88866518  0.15714764
   0.77790092  0.44435452  0.07896022
   0.94442362  0.44449209  0.07888876
   0.94438473  0.61126376  0.07907035
   0.88897443  0.55538723  0.15723353
   0.72209608  0.72237997  0.15701442
   0.66659400  0.66675569  0.23403554
   0.61071731  0.61107948  0.31175919
   0.55512810  0.55554249  0.38996996
   0.50026836  0.49985735  0.46666839
   0.55517009  0.38929166  0.38994739
   0.72219939  0.38889617  0.38955012
   0.66764819  0.33230496  0.46601133
   0.61159476  0.27834634  0.54523405
   0.77757480  0.11101408  0.54478255
   0.83327329  0.16645244  0.46644798
   0.88871340  0.22222633  0.38961444
   0.94436199  0.27781079  0.07863719
   0.94442672  0.11109354  0.07888607
   0.88894338  0.22233870  0.15710778
   0.50008645  0.83326313  0.23403531
   0.44440580  0.77739759  0.31176094
   0.77790689  0.77751585  0.07849902
   0.61084848  0.94457628  0.07850253
   0.55571852  0.88875714  0.15701492
   0.77767651  0.11106020  0.07906653
   0.61101423  0.11131354  0.07891217
   0.44416642  0.27801185  0.07913966
   0.27774788  0.44439965  0.07848499
   0.11132838  0.61084470  0.07914386
   0.05566611  0.55546807  0.15723359
   0.05570919  0.72215004  0.15729378
   0.99999109  0.66675193  0.23402932
   0.61115632  0.27799973  0.07914539
   0.55548336  0.22237413  0.15729268
   0.50008211  0.16666523  0.23402678
   0.44419046  0.11125182  0.31169974
   0.38885935  0.38923732  0.15703663
   0.33344445  0.33372173  0.23390933
   0.44430734  0.44471419  0.07848535
   0.27805868  0.61097453  0.07849545
   0.22257721  0.55552312  0.15703670
   0.11133911  0.77781284  0.07914865
   0.66677391  0.99978651  0.23384680
   0.77750067  0.44451752  0.31171167
   0.11130189  0.44452298  0.31171324
   0.05554635  0.38907275  0.38960795
   0.00003963  0.33327396  0.46622310
   0.16662023  0.16673734  0.46622882
   0.11099311  0.11140138  0.54441382
   0.55540454  0.88874846  0.38970625
   0.22264635  0.55552418  0.38994761
   0.22239669  0.22222203  0.38960680
   0.33319834  0.66695362  0.46667085
   0.33361286  0.99994882  0.46644728
   0.44824855  0.43674891  0.54729364
   0.11106939  0.44436311  0.07895943
   0.11115071  0.27782038  0.07863653
   0.05555641  0.22221553  0.15691671
   0.00011834  0.16676852  0.23395526
   0.16667198  0.00000111  0.23389085
   0.22204606  0.05560413  0.15711134
   0.27782526  0.11108855  0.07888583
   0.38871355  0.05564325  0.15722929
   0.33324431 -0.00000776  0.23393678
   0.16644992  0.16676746  0.23394972
   0.11111934  0.11108312  0.31194682
   0.05554898  0.05538419  0.38961156
   0.99977199  0.99994521  0.46644544
   0.27770281  0.27773184  0.07895770
   0.22205334  0.22234441  0.15710902
   0.05567613  0.38871619  0.15711096
   0.00010084  0.33312634  0.23395077
   0.44459323  0.11105776  0.07906834
   0.11114965  0.11102032  0.07863477
   0.05567661  0.05561265  0.15710569
   0.00009522 -0.00000536  0.23394318
   0.94435572  0.94424390  0.54477314
   0.38929506  0.56549613  0.56253576
   0.38802624  0.51951280  0.61647785
Direct configuration=     3
   0.44768412  0.61453641  0.54721815
   0.61651944  0.44171358  0.54281038
   0.77932531  0.27644972  0.54457718
   0.94445927  0.11112669  0.54455979
   0.94471194  0.27764189  0.54440121
   0.94446190  0.44440495  0.54456217
   0.77756474  0.61141279  0.54477371
   0.61067372  0.77733988  0.54504778
   0.44473818  0.94423278  0.54477429
   0.61107713  0.94446605  0.54424727
   0.77778766  0.94445763  0.54424967
   0.94535987  0.77731767  0.54504962
   0.94434035  0.61142301  0.54477372
   0.83339137  0.66655764  0.46629838
   0.66658444  0.83326009  0.46623995
   0.72221835  0.88890713  0.38989773
   0.88919914  0.72206414  0.38970974
   0.94436719  0.77781486  0.31176219
   0.77773504  0.94439937  0.31178312
   0.94459276  0.94455821  0.31170610
   0.88917833  0.88876514  0.38970694
   0.83347775  0.83326141  0.46623639
   0.77779278  0.77773390  0.54424354
   0.77933562  0.44422139  0.54457273
   0.66764765  0.50004505  0.46600448
   0.83411826  0.33293868  0.46618368
   0.88872379  0.38906689  0.38961108
   0.72186589  0.55574716  0.38954981
   0.77788598  0.61085021  0.31170472
   0.61115096  0.77781386  0.31176361
   0.66677325  0.83344162  0.23384096
   0.83310678  0.66710775  0.23388215
   0.88886242  0.72236687  0.15701656
   0.72221608  0.88889209  0.15674862
   0.77790690  0.94457538  0.07850371
   0.94464445  0.77767740  0.07891007
   0.94438284  0.94434539  0.07906795
   0.88885984  0.88876582  0.15701852
   0.83311254  0.83344983  0.23384515
   0.77773681  0.77785784  0.31178593
   0.72207795  0.72206331  0.38970709
   0.66652796  0.66691140  0.46661589
   0.55530423  0.72197203  0.38993530
   0.50025121  0.83319374  0.46661475
   0.33337447  0.83432751  0.46600063
   0.27507066  0.78317162  0.54280505
   0.10977565  0.94600603  0.54458059
   0.27754998  0.94601321  0.54457983
   0.44340266  0.77831153  0.54522289
   0.49961224  0.66626903  0.46702060
   0.61164264  0.61007034  0.54522641
   0.61119578  0.94440824  0.31178362
   0.44418285  0.94454882  0.31170321
   0.38908248  0.88852226  0.38954964
   0.38887946  0.72178161  0.38997512
   0.22265373  0.72180878  0.38997203
   0.05572611  0.88853036  0.38954664
   0.99986521  0.83320966  0.46661364
   0.16745705  0.66628264  0.46698496
   0.27062237  0.61476771  0.54713466
   0.11165285  0.61006437  0.54523325
   0.27507960  0.44174215  0.54280742
   0.44340608  0.27829628  0.54521811
   0.61065180  0.11201990  0.54505581
   0.66654161  0.16652216  0.46660476
   0.83339269  0.00004880  0.46628823
   0.88885763  0.05552813  0.38959269
   0.72184770  0.22239540  0.38954990
   0.77749265  0.27797832  0.31171369
   0.61058792  0.44470686  0.31197532
   0.66616065  0.50009891  0.23391312
   0.49975398  0.66641504  0.23375931
   0.55547521  0.72214473  0.15729853
   0.38880674  0.88887286  0.15724106
   0.33342422  0.83283646  0.23390851
   0.27804664  0.77724719  0.31197173
   0.11130870  0.94417035  0.31171673
   0.27785698  0.94416529  0.31171744
   0.22222419  0.88888327  0.38954583
   0.16564178  0.83431941  0.46600657
   0.11165266  0.77828857  0.54523231
   0.94459548  0.61084385  0.31170501
   0.94456366  0.44421849  0.31183309
   0.94441467  0.27779577  0.31194794
   0.94456017  0.11121894  0.31183663
   0.83332824  0.16675982  0.23394470
   0.66658499  0.16665565  0.23402815
   0.49974957  0.33383143  0.23376833
   0.55522331  0.38925236  0.15704081
   0.38889301  0.55555766  0.15692053
   0.44430080  0.61096930  0.07849572
   0.61119021  0.44440599  0.07848798
   0.77790063  0.27774300  0.07895699
   0.72219138  0.22232321  0.15723651
   0.72209982  0.05552596  0.15702065
   0.88897724  0.05564419  0.15723238
   0.83311034  0.99978121  0.23388443
   0.77788167  0.11125912  0.31170512
   0.61115459  0.11102802  0.31176104
   0.55538992  0.05586662  0.38970794
   0.49989502  0.00005171  0.46629098
   0.33361626  0.16644674  0.46644725
   0.16627723  0.33294043  0.46618275
   0.99977543  0.50028595  0.46644461
   0.05573551  0.55575004  0.38955293
   0.22223365  0.38889337  0.38955010
   0.27804369  0.44469935  0.31198136
   0.11153695  0.61107782  0.31176816
   0.16716718  0.66641365  0.23376460
   0.99998586  0.83325747  0.23403133
   0.05565453  0.88886291  0.15723775
   0.22258632  0.72189069  0.15703947
   0.27774372  0.77785473  0.07849417
   0.11107658  0.94457492  0.07895601
   0.27768459  0.94457502  0.07895889
   0.44460941  0.94434494  0.07906937
   0.61102001  0.77767390  0.07891374
   0.77767645  0.61128074  0.07906732
   0.72220352  0.55546691  0.15723852
   0.83332771  0.49991779  0.23394606
   0.88894118  0.38870880  0.15711421
   0.83333661  0.33334131  0.23389253
   0.72200517  0.38900054  0.15714397
   0.66615748  0.33373898  0.23391426
   0.61072373  0.27819683  0.31177151
   0.55529015  0.22274276  0.38993623
   0.44441281  0.27820311  0.31177572
   0.38886328  0.38930914  0.38994685
   0.49960882  0.33412725  0.46697567
   0.33318875  0.49983585  0.46670749
   0.38888755  0.55556925  0.38920629
   0.44443253  0.61110331  0.31200358
   0.27779630  0.61110458  0.31199131
   0.33346564  0.50012862  0.23392868
   0.16706267  0.50010355  0.23391177
   0.00009037  0.49990983  0.23394771
   0.16666186  0.33333456  0.23389454
   0.22232649  0.38899500  0.15714448
   0.38880842  0.22232777  0.15723603
   0.55570539  0.05552924  0.15701746
   0.50044144  0.99977548  0.23388678
   0.33324636  0.16676207  0.23394494
   0.27785886  0.27797212  0.31171805
   0.11112853  0.27779739  0.31194358
   0.05555705  0.22222405  0.38950336
   0.00003157  0.16670343  0.46620998
   0.16628072  0.00077748  0.46618553
   0.22239571  0.05539285  0.38961108
   0.27755395  0.11123005  0.31183453
   0.38894382  0.05552343  0.38959771
   0.38909290  0.22240577  0.38955684
   0.50026095  0.16652915  0.46660587
   0.44475474  0.11100306  0.54477873
   0.27774907  0.11113222  0.54456405
   0.11098092  0.27764717  0.54440651
   0.27755341  0.27646033  0.54458178
   0.10979792  0.44421890  0.54457963
   0.16565073  0.50002176  0.46600188
   0.33335730  0.33230463  0.46599665
   0.49974123  0.50013110  0.23392320
   0.44443325  0.44446414  0.31198899
   0.72208946  0.05586723  0.38970695
   0.66659729  0.00012624  0.46624305
   0.83328060  0.50027947  0.46644532
   0.88886284  0.55560160  0.38959244
   0.44416827  0.77781521  0.07914996
   0.38885177  0.72189229  0.15703820
   0.33346561  0.66640501  0.23392185
   0.16707350  0.83283415  0.23390861
   0.11153464  0.77738793  0.31176425
   0.05606968  0.72195489  0.38993621
   0.99985544  0.66692448  0.46661122
   0.61115186  0.61084259  0.07915068
   0.55522440  0.55551869  0.15703476
   0.22233149  0.88866675  0.15714836
   0.77790338  0.44435325  0.07896062
   0.94442438  0.44448948  0.07888863
   0.94438244  0.61126665  0.07907081
   0.88897489  0.55538570  0.15723395
   0.72209495  0.72238001  0.15701415
   0.66659312  0.66675729  0.23403564
   0.61071795  0.61107815  0.31175872
   0.55512516  0.55554192  0.38997358
   0.50030465  0.49984058  0.46664906
   0.55515994  0.38930154  0.38995490
   0.72220543  0.38889386  0.38954933
   0.66765533  0.33230069  0.46600630
   0.61159981  0.27834520  0.54523262
   0.77757290  0.11101463  0.54478071
   0.83327117  0.16645301  0.46644831
   0.88871395  0.22222470  0.38961407
   0.94436125  0.27781256  0.07863703
   0.94442702  0.11109375  0.07888639
   0.88894254  0.22234070  0.15710889
   0.50008847  0.83326190  0.23403544
   0.44440549  0.77739606  0.31176014
   0.77790702  0.77751615  0.07849934
   0.61084898  0.94457586  0.07850223
   0.55571761  0.88875700  0.15701454
   0.77767742  0.11105642  0.07906759
   0.61101540  0.11131000  0.07891357
   0.44416674  0.27801427  0.07914236
   0.27774827  0.44440250  0.07848547
   0.11133382  0.61084287  0.07914574
   0.05566252  0.55546973  0.15723486
   0.05570930  0.72214916  0.15729508
   0.99998890  0.66675420  0.23403022
   0.61115352  0.27800425  0.07914716
   0.55548255  0.22237455  0.15729433
   0.50008480  0.16666192  0.23402827
   0.44418695  0.11125589  0.31170024
   0.38885892  0.38924588  0.15703559
   0.33344091  0.33372763  0.23391033
   0.44430411  0.44472168  0.07848651
   0.27806435  0.61097106  0.07849482
   0.22258463  0.55552318  0.15703561
   0.11134270  0.77781173  0.07914971
   0.66677450  0.99978512  0.23384530
   0.77749951  0.44452125  0.31171179
   0.11130150  0.44452582  0.31171313
   0.05554704  0.38907165  0.38960867
   0.00003918  0.33327181  0.46622153
   0.16662004  0.16673548  0.46622910
   0.11099574  0.11139931  0.54441374
   0.55539896  0.88875272  0.38970592
   0.22265258  0.55552659  0.38995504
   0.22239714  0.22222109  0.38960768
   0.33318031  0.66698694  0.46665113
   0.33361353  0.99994523  0.46644767
   0.44794249  0.43737574  0.54743778
   0.11106975  0.44436033  0.07895972
   0.11115146  0.27782047  0.07863622
   0.05555632  0.22221664  0.15691693
   0.00011777  0.16677088  0.23395490
   0.16666945  0.00000406  0.23389130
   0.22204575  0.05560431  0.15711161
   0.27782274  0.11108958  0.07888598
   0.38871326  0.05564342  0.15723025
   0.33324267 -0.00000604  0.23393742
   0.16644743  0.16677000  0.23395037
   0.11111985  0.11108383  0.31194526
   0.05554882  0.05538428  0.38961139
   0.99977452  0.99994252  0.46644590
   0.27769916  0.27773272  0.07895833
   0.22205179  0.22234543  0.15710969
   0.05567747  0.38871530  0.15711126
   0.00010329  0.33312226  0.23395119
   0.44459687  0.11105439  0.07906897
   0.11115061  0.11102095  0.07863476
   0.05567783  0.05561136  0.15710688
   0.00009533 -0.00000407  0.23394261
   0.94435476  0.94424183  0.54477290
   0.38922522  0.56378625  0.56408231
   0.38801394  0.52123560  0.61448690
Direct configuration=     4
   0.44747615  0.61429661  0.54737468
   0.61656141  0.44169718  0.54279838
   0.77932635  0.27645048  0.54457715
   0.94445985  0.11112712  0.54455931
   0.94470964  0.27764336  0.54440038
   0.94446197  0.44440555  0.54456129
   0.77756482  0.61141363  0.54477336
   0.61067227  0.77733844  0.54504839
   0.44474038  0.94423263  0.54477385
   0.61107777  0.94446497  0.54424551
   0.77778858  0.94445800  0.54424750
   0.94535593  0.77732004  0.54504993
   0.94434212  0.61142210  0.54477337
   0.83339112  0.66655687  0.46629609
   0.66658566  0.83325973  0.46624071
   0.72221900  0.88890399  0.38989641
   0.88919724  0.72205979  0.38970882
   0.94436727  0.77781506  0.31176234
   0.77773396  0.94439865  0.31178505