 254 254   0   0
  0.2268316E+02  0.1514622E-08  0.1514622E-08  0.2900000E-08  0.5000000E-15
  1.000000000000000E-004
  CAR 
 NiAl                                    
      5.96551349    -22.60594445  301     -0.58564445      1.00000000
    -22.606  0.0000E+00  0.0000E+00
    -22.511  0.0000E+00  0.0000E+00
    -22.415  0.0000E+00  0.0000E+00
    -22.320  0.0000E+00  0.0000E+00
    -22.225  0.0000E+00  0.0000E+00
    -22.130  0.0000E+00  0.0000E+00
    -22.035  0.0000E+00  0.0000E+00
    -21.939  0.0000E+00  0.0000E+00
    -21.844  0.0000E+00  0.0000E+00
    -21.749  0.0000E+00  0.0000E+00
    -21.654  0.0000E+00  0.0000E+00
    -21.558  0.1277E-10  0.1217E-11
    -21.463  0.1087E-03  0.1035E-04
    -21.368  0.9046E+00  0.8616E-01
    -21.273  0.1665E+02  0.1672E+01
    -21.177  0.3444E+01  0.2000E+01
    -21.082  0.2532E-02  0.2000E+01
    -20.987  0.2048E-08  0.2000E+01
    -20.892  0.0000E+00  0.2000E+01
    -20.796  0.0000E+00  0.2000E+01
    -20.701  0.0000E+00  0.2000E+01
    -20.606  0.0000E+00  0.2000E+01
    -20.511  0.0000E+00  0.2000E+01
    -20.415  0.0000E+00  0.2000E+01
    -20.320  0.0000E+00  0.2000E+01
    -20.225  0.0000E+00  0.2000E+01
    -20.130  0.0000E+00  0.2000E+01
    -20.035  0.0000E+00  0.2000E+01
    -19.939  0.0000E+00  0.2000E+01
    -19.844  0.0000E+00  0.2000E+01
    -19.749  0.0000E+00  0.2000E+01
    -19.654  0.0000E+00  0.2000E+01
    -19.558  0.0000E+00  0.2000E+01
    -19.463  0.0000E+00  0.2000E+01
    -19.368  0.0000E+00  0.2000E+01
    -19.273  0.0000E+00  0.2000E+01
    -19.177  0.0000E+00  0.2000E+01
    -19.082  0.0000E+00  0.2000E+01
    -18.987  0.0000E+00  0.2000E+01
    -18.892  0.0000E+00  0.2000E+01
    -18.796  0.0000E+00  0.2000E+01
    -18.701  0.0000E+00  0.2000E+01
    -18.606  0.0000E+00  0.2000E+01
    -18.511  0.0000E+00  0.2000E+01
    -18.415  0.0000E+00  0.2000E+01
    -18.320  0.0000E+00  0.2000E+01
    -18.225  0.0000E+00  0.2000E+01
    -18.130  0.0000E+00  0.2000E+01
    -18.035  0.0000E+00  0.2000E+01
    -17.939  0.0000E+00  0.2000E+01
    -17.844  0.0000E+00  0.2000E+01
    -17.749  0.0000E+00  0.2000E+01
    -17.654  0.0000E+00  0.2000E+01
    -17.558  0.0000E+00  0.2000E+01
    -17.463  0.0000E+00  0.2000E+01
    -17.368  0.0000E+00  0.2000E+01
    -17.273  0.0000E+00  0.2000E+01
    -17.177  0.0000E+00  0.2000E+01
    -17.082  0.0000E+00  0.2000E+01
    -16.987  0.0000E+00  0.2000E+01
    -16.892  0.0000E+00  0.2000E+01
    -16.796  0.0000E+00  0.2000E+01
    -16.701  0.0000E+00  0.2000E+01
    -16.606  0.0000E+00  0.2000E+01
    -16.511  0.0000E+00  0.2000E+01
    -16.415  0.0000E+00  0.2000E+01
    -16.320  0.0000E+00  0.2000E+01
    -16.225  0.0000E+00  0.2000E+01
    -16.130  0.0000E+00  0.2000E+01
    -16.035  0.0000E+00  0.2000E+01
    -15.939  0.0000E+00  0.2000E+01
    -15.844  0.0000E+00  0.2000E+01
    -15.749  0.0000E+00  0.2000E+01
    -15.654  0.0000E+00  0.2000E+01
    -15.558  0.0000E+00  0.2000E+01
    -15.463  0.0000E+00  0.2000E+01
    -15.368  0.0000E+00  0.2000E+01
    -15.273  0.0000E+00  0.2000E+01
    -15.177  0.0000E+00  0.2000E+01
    -15.082  0.0000E+00  0.2000E+01
    -14.987  0.0000E+00  0.2000E+01
    -14.892  0.0000E+00  0.2000E+01
    -14.796  0.0000E+00  0.2000E+01
    -14.701  0.0000E+00  0.2000E+01
    -14.606  0.0000E+00  0.2000E+01
    -14.511  0.0000E+00  0.2000E+01
    -14.415  0.0000E+00  0.2000E+01
    -14.320  0.0000E+00  0.2000E+01
    -14.225  0.0000E+00  0.2000E+01
    -14.130  0.0000E+00  0.2000E+01
    -14.035  0.0000E+00  0.2000E+01
    -13.939  0.0000E+00  0.2000E+01
    -13.844  0.0000E+00  0.2000E+01
    -13.749  0.0000E+00  0.2000E+01
    -13.654  0.0000E+00  0.2000E+01
    -13.558  0.0000E+00  0.2000E+01
    -13.463  0.0000E+00  0.2000E+01
    -13.368  0.0000E+00  0.2000E+01
    -13.273  0.0000E+00  0.2000E+01
    -13.177  0.0000E+00  0.2000E+01
    -13.082  0.0000E+00  0.2000E+01
    -12.987  0.0000E+00  0.2000E+01
    -12.892  0.0000E+00  0.2000E+01
    -12.796  0.0000E+00  0.2000E+01
    -12.701  0.0000E+00  0.2000E+01
    -12.606  0.0000E+00  0.2000E+01
    -12.511  0.0000E+00  0.2000E+01
    -12.415  0.0000E+00  0.2000E+01
    -12.320  0.0000E+00  0.2000E+01
    -12.225  0.0000E+00  0.2000E+01
    -12.130  0.0000E+00  0.2000E+01
    -12.035  0.0000E+00  0.2000E+01
    -11.939  0.0000E+00  0.2000E+01
    -11.844  0.0000E+00  0.2000E+01
    -11.749  0.0000E+00  0.2000E+01
    -11.654  0.0000E+00  0.2000E+01
    -11.558  0.0000E+00  0.2000E+01
    -11.463  0.0000E+00  0.2000E+01
    -11.368  0.0000E+00  0.2000E+01
    -11.273  0.0000E+00  0.2000E+01
    -11.177  0.0000E+00  0.2000E+01
    -11.082  0.0000E+00  0.2000E+01
    -10.987  0.0000E+00  0.2000E+01
    -10.892  0.0000E+00  0.2000E+01
    -10.796  0.0000E+00  0.2000E+01
    -10.701  0.0000E+00  0.2000E+01
    -10.606  0.0000E+00  0.2000E+01
    -10.511  0.2058E-11  0.2000E+01
    -10.415  0.3356E-04  0.2000E+01
    -10.320  0.5200E+00  0.2050E+01
    -10.225  0.1559E+02  0.3534E+01
    -10.130  0.4882E+01  0.3999E+01
    -10.035  0.6492E-02  0.4000E+01
     -9.939  0.1000E-07  0.4000E+01
     -9.844  0.0000E+00  0.4000E+01
     -9.749  0.0000E+00  0.4000E+01
     -9.654  0.0000E+00  0.4000E+01
     -9.558  0.0000E+00  0.4000E+01
     -9.463  0.0000E+00  0.4000E+01
     -9.368  0.0000E+00  0.4000E+01
     -9.273  0.3029E-07  0.4000E+01
     -9.177  0.6798E-02  0.4001E+01
     -9.082  0.1961E+01  0.4187E+01
     -8.987  0.3236E+01  0.4496E+01
     -8.892  0.2215E+01  0.4707E+01
     -8.796  0.2576E+02  0.7160E+01
     -8.701  0.3565E+01  0.7500E+01
     -8.606  0.1818E+00  0.7517E+01
     -8.511  0.4072E+01  0.7905E+01
     -8.415  0.7251E+01  0.8596E+01
     -8.320  0.3806E+02  0.1222E+02
     -8.225  0.1985E+02  0.1411E+02
     -8.130  0.2511E+02  0.1650E+02
     -8.035  0.5219E+01  0.1700E+02
     -7.939  0.9392E+00  0.1709E+02
     -7.844  0.2397E+02  0.1937E+02
     -7.749  0.7650E+01  0.2010E+02
     -7.654  0.2150E+02  0.2215E+02
     -7.558  0.2433E+02  0.2447E+02
     -7.463  0.7566E+02  0.3167E+02
     -7.368  0.8699E+01  0.3250E+02
     -7.273  0.5015E-02  0.3250E+02
     -7.177  0.1743E+01  0.3267E+02
     -7.082  0.4586E+02  0.3703E+02
     -6.987  0.7407E+02  0.4409E+02
     -6.892  0.1381E+02  0.4540E+02
     -6.796  0.2156E+02  0.4746E+02
     -6.701  0.7256E+01  0.4815E+02
     -6.606  0.2887E+02  0.5090E+02
     -6.511  0.2981E+02  0.5374E+02
     -6.415  0.3862E+02  0.5741E+02
     -6.320  0.7127E+02  0.6420E+02
     -6.225  0.4943E+02  0.6891E+02
     -6.130  0.1364E+02  0.7021E+02
     -6.034  0.5136E+02  0.7510E+02
     -5.939  0.8783E+02  0.8346E+02
     -5.844  0.7295E+02  0.9041E+02
     -5.749  0.3577E+02  0.9382E+02
     -5.654  0.6339E+01  0.9442E+02
     -5.558  0.2388E+02  0.9670E+02
     -5.463  0.6712E+02  0.1031E+03
     -5.368  0.1662E+03  0.1189E+03
     -5.273  0.6178E+02  0.1248E+03
     -5.177  0.6361E+02  0.1309E+03
     -5.082  0.1168E+03  0.1420E+03
     -4.987  0.1084E+03  0.1523E+03
     -4.892  0.5908E+02  0.1579E+03
     -4.796  0.6189E+02  0.1638E+03
     -4.701  0.2902E+03  0.1915E+03
     -4.606  0.1429E+03  0.2051E+03
     -4.511  0.2483E+03  0.2287E+03
     -4.415  0.2317E+03  0.2508E+03
     -4.320  0.3226E+03  0.2815E+03
     -4.225  0.2212E+03  0.3026E+03
     -4.130  0.2849E+03  0.3297E+03
     -4.034  0.2818E+03  0.3566E+03
     -3.939  0.4526E+03  0.3997E+03
     -3.844  0.5367E+03  0.4508E+03
     -3.749  0.4432E+03  0.4930E+03
     -3.654  0.4603E+03  0.5368E+03
     -3.558  0.4563E+03  0.5803E+03
     -3.463  0.3717E+03  0.6157E+03
     -3.368  0.3583E+03  0.6498E+03
     -3.273  0.3566E+03  0.6838E+03
     -3.177  0.5270E+03  0.7340E+03
     -3.082  0.4951E+03  0.7811E+03
     -2.987  0.3468E+03  0.8141E+03
     -2.892  0.5988E+03  0.8712E+03
     -2.796  0.5222E+03  0.9209E+03
     -2.701  0.5033E+03  0.9688E+03
     -2.606  0.5391E+03  0.1020E+04
     -2.511  0.6565E+03  0.1083E+04
     -2.415  0.7079E+03  0.1150E+04
     -2.320  0.8146E+03  0.1228E+04
     -2.225  0.9430E+03  0.1318E+04
     -2.130  0.7736E+03  0.1391E+04
     -2.034  0.8982E+03  0.1477E+04
     -1.939  0.7905E+03  0.1552E+04
     -1.844  0.5441E+03  0.1604E+04
     -1.749  0.6186E+03  0.1663E+04
     -1.654  0.5312E+03  0.1713E+04
     -1.558  0.5572E+03  0.1766E+04
     -1.463  0.7122E+03  0.1834E+04
     -1.368  0.8058E+03  0.1911E+04
     -1.273  0.5637E+03  0.1965E+04
     -1.177  0.5220E+03  0.2014E+04
     -1.082  0.7917E+03  0.2090E+04
     -0.987  0.8079E+03  0.2167E+04
     -0.892  0.7926E+03  0.2242E+04
     -0.796  0.6390E+03  0.2303E+04
     -0.701  0.9133E+03  0.2390E+04
     -0.606  0.1216E+04  0.2506E+04
     -0.511  0.9342E+03  0.2595E+04
     -0.415  0.5004E+03  0.2642E+04
     -0.320  0.2281E+03  0.2664E+04
     -0.225  0.1166E+03  0.2675E+04
     -0.130  0.1489E+03  0.2689E+04
     -0.034  0.1650E+03  0.2705E+04
      0.061  0.1062E+03  0.2715E+04
      0.156  0.3461E+02  0.2719E+04
      0.251  0.5931E+02  0.2724E+04
      0.346  0.1685E+02  0.2726E+04
      0.442  0.1391E+03  0.2739E+04
      0.537  0.7427E+02  0.2746E+04
      0.632  0.1100E+03  0.2757E+04
      0.727  0.6286E+02  0.2763E+04
      0.823  0.9451E+02  0.2772E+04
      0.918  0.1576E+03  0.2787E+04
      1.013  0.1474E+03  0.2801E+04
      1.108  0.1890E+02  0.2802E+04
      1.204  0.2770E+02  0.2805E+04
      1.299  0.1134E+03  0.2816E+04
      1.394  0.7677E+02  0.2823E+04
      1.489  0.3215E+02  0.2826E+04
      1.585  0.7708E+02  0.2834E+04
      1.680  0.9997E+02  0.2843E+04
      1.775  0.8868E+02  0.2852E+04
      1.870  0.7120E+02  0.2858E+04
      1.966  0.1142E+03  0.2869E+04
      2.061  0.4745E+02  0.2874E+04
      2.156  0.5335E+02  0.2879E+04
      2.251  0.1029E+03  0.2889E+04
      2.346  0.1166E+03  0.2900E+04
      2.442  0.5957E+02  0.2905E+04
      2.537  0.2523E+02  0.2908E+04
      2.632  0.7736E+02  0.2915E+04
      2.727  0.2401E+02  0.2917E+04
      2.823  0.6932E+01  0.2918E+04
      2.918  0.5679E+02  0.2924E+04
      3.013  0.1052E+03  0.2934E+04
      3.108  0.2254E+03  0.2955E+04
      3.204  0.1029E+03  0.2965E+04
      3.299  0.2362E+02  0.2967E+04
      3.394  0.1799E+02  0.2969E+04
      3.489  0.1030E+03  0.2979E+04
      3.585  0.5124E+02  0.2983E+04
      3.680  0.3141E+02  0.2986E+04
      3.775  0.8702E+02  0.2995E+04
      3.870  0.1031E+02  0.2996E+04
      3.966  0.2972E+02  0.2999E+04
      4.061  0.6756E+01  0.2999E+04
      4.156  0.7449E+02  0.3006E+04
      4.251  0.5344E+02  0.3011E+04
      4.346  0.3159E+02  0.3014E+04
      4.442  0.9969E+02  0.3024E+04
      4.537  0.5715E+02  0.3029E+04
      4.632  0.4018E+02  0.3033E+04
      4.727  0.2911E+02  0.3036E+04
      4.823  0.5477E+00  0.3036E+04
      4.918  0.5352E-04  0.3036E+04
      5.013  0.6093E-11  0.3036E+04
      5.108  0.0000E+00  0.3036E+04
      5.204  0.0000E+00  0.3036E+04
      5.299  0.0000E+00  0.3036E+04
      5.394  0.0000E+00  0.3036E+04
      5.489  0.0000E+00  0.3036E+04
      5.585  0.0000E+00  0.3036E+04
      5.680  0.0000E+00  0.3036E+04
      5.775  0.0000E+00  0.3036E+04
      5.870  0.0000E+00  0.3036E+04
      5.966  0.0000E+00  0.3036E+04
