  254  254    1    1
  0.2268316E+02  0.1514622E-08  0.1514622E-08  0.2900000E-08  0.5000000E-15
  1.000000000000000E-004
  CAR 
 NiAl                                    
   2530      4   1518
 
  0.0000000E+00  0.0000000E+00  0.0000000E+00  0.2500000E+00
    1      -21.307164   1.000000
    2      -10.250662   1.000000
    3       -9.070846   1.000000
    4       -8.541567   1.000000
    5       -8.164309   1.000000
    6       -8.164244   1.000000
    7       -8.164181   1.000000
    8       -8.164052   1.000000
    9       -8.163850   1.000000
   10       -8.163755   1.000000
   11       -7.715048   1.000000
   12       -7.658735   1.000000
   13       -7.658674   1.000000
   14       -7.658617   1.000000
   15       -7.658556   1.000000
   16       -7.658378   1.000000
   17       -7.658258   1.000000
   18       -6.873518   1.000000
   19       -6.873299   1.000000
   20       -6.873286   1.000000
   21       -6.873187   1.000000
   22       -6.873141   1.000000
   23       -6.872864   1.000000
   24       -6.690289   1.000000
   25       -6.528697   1.000000
   26       -6.528630   1.000000
   27       -6.528569   1.000000
   28       -6.528400   1.000000
   29       -6.528344   1.000000
   30       -6.528304   1.000000
   31       -6.108657   1.000000
   32       -6.108567   1.000000
   33       -6.108520   1.000000
   34       -6.108492   1.000000
   35       -6.108346   1.000000
   36       -6.108316   1.000000
   37       -5.914593   1.000000
   38       -5.907641   1.000000
   39       -5.907492   1.000000
   40       -5.907470   1.000000
   41       -5.907389   1.000000
   42       -5.907362   1.000000
   43       -5.907305   1.000000
   44       -5.907279   1.000000
   45       -5.907198   1.000000
   46       -5.907151   1.000000
   47       -5.907109   1.000000
   48       -5.906817   1.000000
   49       -5.808267   1.000000
   50       -5.803341   1.000000
   51       -5.678341   1.000000
   52       -5.576150   1.000000
   53       -5.576114   1.000000
   54       -5.576014   1.000000
   55       -5.575938   1.000000
   56       -5.575909   1.000000
   57       -5.575905   1.000000
   58       -5.481775   1.000000
   59       -5.481600   1.000000
   60       -5.481509   1.000000
   61       -5.481404   1.000000
   62       -5.481286   1.000000
   63       -5.481255   1.000000
   64       -5.449625   1.000000
   65       -5.128526   1.000000
   66       -5.128482   1.000000
   67       -5.128417   1.000000
   68       -5.128354   1.000000
   69       -5.128324   1.000000
   70       -5.128295   1.000000
   71       -5.045067   1.000000
   72       -4.971326   1.000000
   73       -4.971280   1.000000
   74       -4.971223   1.000000
   75       -4.971169   1.000000
   76       -4.970872   1.000000
   77       -4.969480   1.000000
   78       -4.873124   1.000000
   79       -4.798390   1.000000
   80       -4.798383   1.000000
   81       -4.798324   1.000000
   82       -4.759347   1.000000
   83       -4.759247   1.000000
   84       -4.759199   1.000000
   85       -4.759092   1.000000
   86       -4.759041   1.000000
   87       -4.758772   1.000000
   88       -4.675655   1.000000
   89       -4.675582   1.000000
   90       -4.675569   1.000000
   91       -4.675469   1.000000
   92       -4.675445   1.000000
   93       -4.675394   1.000000
   94       -4.657378   1.000000
   95       -4.657367   1.000000
   96       -4.657289   1.000000
   97       -4.564875   1.000000
   98       -4.564695   1.000000
   99       -4.564636   1.000000
  100       -4.564518   1.000000
  101       -4.564492   1.000000
  102       -4.564456   1.000000
  103       -4.564444   1.000000
  104       -4.564397   1.000000
  105       -4.564305   1.000000
  106       -4.564245   1.000000
  107       -4.564217   1.000000
  108       -4.564171   1.000000
  109       -4.522628   1.000000
  110       -4.522620   1.000000
  111       -4.522540   1.000000
  112       -4.451965   1.000000
  113       -4.451952   1.000000
  114       -4.451850   1.000000
  115       -4.417486   1.000000
  116       -4.417421   1.000000
  117       -4.417355   1.000000
  118       -4.417298   1.000000
  119       -4.416843   1.000000
  120       -4.416410   1.000000
  121       -4.361154   1.000000
  122       -4.361058   1.000000
  123       -4.361044   1.000000
  124       -4.361001   1.000000
  125       -4.360973   1.000000
  126       -4.360931   1.000000
  127       -4.360857   1.000000
  128       -4.360820   1.000000
  129       -4.360774   1.000000
  130       -4.360727   1.000000
  131       -4.360659   1.000000
  132       -4.360647   1.000000
  133       -4.350391   1.000000
  134       -4.350355   1.000000
  135       -4.350321   1.000000
  136       -4.350302   1.000000
  137       -4.350290   1.000000
  138       -4.350209   1.000000
  139       -4.350073   1.000000
  140       -4.350042   1.000000
  141       -4.349968   1.000000
  142       -4.349805   1.000000
  143       -4.349774   1.000000
  144       -4.349705   1.000000
  145       -4.304181   1.000000
  146       -4.304042   1.000000
  147       -4.304004   1.000000
  148       -4.303870   1.000000
  149       -4.303468   1.000000
  150       -4.303259   1.000000
  151       -4.267939   1.000000
  152       -4.267843   1.000000
  153       -4.267760   1.000000
  154       -4.267672   1.000000
  155       -4.267662   1.000000
  156       -4.267575   1.000000
  157       -4.247264   1.000000
  158       -4.247258   1.000000
  159       -4.247140   1.000000
  160       -4.209340   1.000000
  161       -4.209285   1.000000
  162       -4.209202   1.000000
  163       -4.209178   1.000000
  164       -4.209150   1.000000
  165       -4.209117   1.000000
  166       -4.208981   1.000000
  167       -4.208936   1.000000
  168       -4.208929   1.000000
  169       -4.208836   1.000000
  170       -4.208780   1.000000
  171       -4.208732   1.000000
  172       -4.146273   1.000000
  173       -4.146267   1.000000
  174       -4.146092   1.000000
  175       -4.117743   1.000000
  176       -4.117666   1.000000
  177       -4.117650   1.000000
  178       -4.117475   1.000000
  179       -4.117442   1.000000
  180       -4.117279   1.000000
  181       -4.039010   1.000000
  182       -4.038983   1.000000
  183       -4.038890   1.000000
  184       -4.011493   1.000000
  185       -4.011469   1.000000
  186       -4.011329   1.000000
  187       -4.011315   1.000000
  188       -4.011275   1.000000
  189       -4.011242   1.000000
  190       -4.011171   1.000000
  191       -4.011141   1.000000
  192       -4.011094   1.000000
  193       -4.011043   1.000000
  194       -4.010963   1.000000
  195       -4.010846   1.000000
  196       -3.977175   1.000000
  197       -3.977171   1.000000
  198       -3.977023   1.000000
  199       -3.913535   1.000000
  200       -3.913494   1.000000
  201       -3.913349   1.000000
  202       -3.912191   1.000000
  203       -3.912069   1.000000
  204       -3.912005   1.000000
  205       -3.911952   1.000000
  206       -3.911890   1.000000
  207       -3.911801   1.000000
  208       -3.866842   1.000000
  209       -3.866753   1.000000
  210       -3.866573   1.000000
  211       -3.866511   1.000000
  212       -3.866476   1.000000
  213       -3.866380   1.000000
  214       -3.866344   1.000000
  215       -3.866303   1.000000
  216       -3.866158   1.000000
  217       -3.866058   1.000000
  218       -3.865984   1.000000
  219       -3.865855   1.000000
  220       -3.855108   1.000000
  221       -3.855057   1.000000
  222       -3.854978   1.000000
  223       -3.854891   1.000000
  224       -3.854848   1.000000
  225       -3.854734   1.000000
  226       -3.772106   1.000000
  227       -3.772081   1.000000
  228       -3.772055   1.000000
  229       -3.772018   1.000000
  230       -3.771940   1.000000
  231       -3.771894   1.000000
  232       -3.771851   1.000000
  233       -3.771827   1.000000
  234       -3.771740   1.000000
  235       -3.771708   1.000000
  236       -3.771571   1.000000
  237       -3.771492   1.000000
  238       -3.740477   1.000000
  239       -3.740316   1.000000
  240       -3.740203   1.000000
  241       -3.740195   1.000000
  242       -3.740057   1.000000
  243       -3.739895   1.000000
  244       -3.724650   1.000000
  245       -3.724590   1.000000
  246       -3.724110   1.000000
  247       -3.724078   1.000000
  248       -3.720599   1.000000
  249       -3.720487   1.000000
  250       -3.720412   1.000000
  251       -3.720278   1.000000
  252       -3.720168   1.000000
  253       -3.720148   1.000000
  254       -3.714798   1.000000
  255       -3.714403   1.000000
  256       -3.674696   1.000000
  257       -3.674667   1.000000
  258       -3.674520   1.000000
  259       -3.674496   1.000000
  260       -3.674445   1.000000
  261       -3.674250   1.000000
  262       -3.674236   1.000000
  263       -3.674182   1.000000
  264       -3.674100   1.000000
  265       -3.674038   1.000000
  266       -3.673954   1.000000
  267       -3.673780   1.000000
  268       -3.664225   1.000000
  269       -3.664200   1.000000
  270       -3.664113   1.000000
  271       -3.615512   1.000000
  272       -3.615460   1.000000
  273       -3.615305   1.000000
  274       -3.615221   1.000000
  275       -3.615167   1.000000
  276       -3.615135   1.000000
  277       -3.608452   1.000000
  278       -3.608425   1.000000
  279       -3.607693   1.000000
  280       -3.607649   1.000000
  281       -3.588326   1.000000
  282       -3.588325   1.000000
  283       -3.572692   1.000000
  284       -3.572563   1.000000
  285       -3.572429   1.000000
  286       -3.572144   1.000000
  287       -3.572115   1.000000
  288       -3.571983   1.000000
  289       -3.561742   1.000000
  290       -3.561723   1.000000
  291       -3.560533   1.000000
  292       -3.560501   1.000000
  293       -3.556439   1.000000
  294       -3.556356   1.000000
  295       -3.491211   1.000000
  296       -3.491194   1.000000
  297       -3.490566   1.000000
  298       -3.490554   1.000000
  299       -3.485327   1.000000
  300       -3.485256   1.000000
  301       -3.485211   1.000000
  302       -3.485142   1.000000
  303       -3.485053   1.000000
  304       -3.485002   1.000000
  305       -3.484914   1.000000
  306       -3.484867   1.000000
  307       -3.484840   1.000000
  308       -3.484795   1.000000
  309       -3.484716   1.000000
  310       -3.484692   1.000000
  311       -3.438511   1.000000
  312       -3.438298   1.000000
  313       -3.438142   1.000000
  314       -3.438100   1.000000
  315       -3.437968   1.000000
  316       -3.437794   1.000000
  317       -3.402893   1.000000
  318       -3.402727   1.000000
  319       -3.402631   1.000000
  320       -3.402383   1.000000
  321       -3.402356   1.000000
  322       -3.402193   1.000000
  323       -3.399438   1.000000
  324       -3.399391   1.000000
  325       -3.399280   1.000000
  326       -3.399217   1.000000
  327       -3.399134   1.000000
  328       -3.399045   1.000000
  329       -3.399026   1.000000
  330       -3.398963   1.000000
  331       -3.398829   1.000000
  332       -3.398822   1.000000
  333       -3.398745   1.000000
  334       -3.398713   1.000000
  335       -3.382875   1.000000
  336       -3.382798   1.000000
  337       -3.382685   1.000000
  338       -3.382616   1.000000
  339       -3.382570   1.000000
  340       -3.382468   1.000000
  341       -3.288176   1.000000
  342       -3.288165   1.000000
  343       -3.288145   1.000000
  344       -3.262911   1.000000
  345       -3.262735   1.000000
  346       -3.262622   1.000000
  347       -3.262558   1.000000
  348       -3.262437   1.000000
  349       -3.262239   1.000000
  350       -3.223401   1.000000
  351       -3.223341   1.000000
  352       -3.209384   1.000000
  353       -3.209357   1.000000
  354       -3.209282   1.000000
  355       -3.209207   1.000000
  356       -3.209129   1.000000
  357       -3.209082   1.000000
  358       -3.208989   1.000000
  359       -3.208901   1.000000
  360       -3.208849   1.000000
  361       -3.208828   1.000000
  362       -3.208749   1.000000
  363       -3.208619   1.000000
  364       -3.182894   1.000000
  365       -3.182825   1.000000
  366       -3.144897   1.000000
  367       -3.144855   1.000000
  368       -3.144789   1.000000
  369       -3.144746   1.000000
  370       -3.144708   1.000000
  371       -3.144621   1.000000
  372       -3.139144   1.000000
  373       -3.139082   1.000000
  374       -3.138971   1.000000
  375       -3.138881   1.000000
  376       -3.138832   1.000000
  377       -3.138652   1.000000
  378       -3.135599   1.000000
  379       -3.135525   1.000000
  380       -3.135432   1.000000
  381       -3.135242   1.000000
  382       -3.135208   1.000000
  383       -3.135134   1.000000
  384       -3.068946   1.000000
  385       -3.068905   1.000000
  386       -3.068856   1.000000
  387       -3.068821   1.000000
  388       -3.068784   1.000000
  389       -3.068744   1.000000
  390       -3.068672   1.000000
  391       -3.068648   1.000000
  392       -3.068600   1.000000
  393       -3.068568   1.000000
  394       -3.068485   1.000000
  395       -3.068451   1.000000
  396       -3.031873   1.000000
  397       -3.031642   1.000000
  398       -3.031541   1.000000
  399       -3.031473   1.000000
  400       -3.031306   1.000000
  401       -3.031182   1.000000
  402       -2.959770   1.000000
  403       -2.959738   1.000000
  404       -2.959665   1.000000
  405       -2.959598   1.000000
  406       -2.959464   1.000000
  407       -2.959311   1.000000
  408       -2.948174   1.000000
  409       -2.947979   1.000000
  410       -2.947910   1.000000
  411       -2.947853   1.000000
  412       -2.947695   1.000000
  413       -2.947588   1.000000
  414       -2.931845   1.000000
  415       -2.931798   1.000000
  416       -2.931774   1.000000
  417       -2.931753   1.000000
  418       -2.931709   1.000000
  419       -2.931667   1.000000
  420       -2.909367   1.000000
  421       -2.909279   1.000000
  422       -2.909222   1.000000
  423       -2.909076   1.000000
  424       -2.909002   1.000000
  425       -2.908945   1.000000
  426       -2.887714   1.000000
  427       -2.887653   1.000000
  428       -2.887586   1.000000
  429       -2.887571   1.000000
  430       -2.887520   1.000000
  431       -2.887445   1.000000
  432       -2.887385   1.000000
  433       -2.887354   1.000000
  434       -2.887310   1.000000
  435       -2.887282   1.000000
  436       -2.887222   1.000000
  437       -2.887183   1.000000
  438       -2.885055   1.000000
  439       -2.885018   1.000000
  440       -2.884987   1.000000
  441       -2.884961   1.000000
  442       -2.884894   1.000000
  443       -2.884864   1.000000
  444       -2.824352   1.000000
  445       -2.824313   1.000000
  446       -2.824298   1.000000
  447       -2.820981   1.000000
  448       -2.820920   1.000000
  449       -2.820900   1.000000
  450       -2.820862   1.000000
  451       -2.820791   1.000000
  452       -2.820743   1.000000
  453       -2.814730   1.000000
  454       -2.814679   1.000000
  455       -2.814663   1.000000
  456       -2.814564   1.000000
  457       -2.814489   1.000000
  458       -2.814445   1.000000
  459       -2.814410   1.000000
  460       -2.814336   1.000000
  461       -2.814311   1.000000
  462       -2.814292   1.000000
  463       -2.814168   1.000000
  464       -2.814143   1.000000
  465       -2.763218   1.000000
  466       -2.763162   1.000000
  467       -2.762728   1.000000
  468       -2.762673   1.000000
  469       -2.730290   1.000000
  470       -2.730178   1.000000
  471       -2.730140   1.000000
  472       -2.730064   1.000000
  473       -2.729868   1.000000
  474       -2.729779   1.000000
  475       -2.727205   1.000000
  476       -2.727160   1.000000
  477       -2.727107   1.000000
  478       -2.726884   1.000000
  479       -2.726780   1.000000
  480       -2.726681   1.000000
  481       -2.722183   1.000000
  482       -2.721982   1.000000
  483       -2.721908   1.000000
  484       -2.721794   1.000000
  485       -2.721611   1.000000
  486       -2.721599   1.000000
  487       -2.707043   1.000000
  488       -2.706933   1.000000
  489       -2.706889   1.000000
  490       -2.706834   1.000000
  491       -2.706789   1.000000
  492       -2.706725   1.000000
  493       -2.706716   1.000000
  494       -2.706686   1.000000
  495       -2.706658   1.000000
  496       -2.706622   1.000000
  497       -2.706561   1.000000
  498       -2.706450   1.000000
  499       -2.699817   1.000000
  500       -2.699761   1.000000
  501       -2.670863   1.000000
  502       -2.670757   1.000000
  503       -2.670595   1.000000
  504       -2.670493   1.000000
  505       -2.670370   1.000000
  506       -2.670302   1.000000
  507       -2.636727   1.000000
  508       -2.636704   1.000000
  509       -2.636664   1.000000
  510       -2.636628   1.000000
  511       -2.636597   1.000000
  512       -2.636570   1.000000
  513       -2.632502   1.000000
  514       -2.603120   1.000000
  515       -2.603119   1.000000
  516       -2.602085   1.000000
  517       -2.602064   1.000000
  518       -2.597157   1.000000
  519       -2.597090   1.000000
  520       -2.597027   1.000000
  521       -2.596932   1.000000
  522       -2.596727   1.000000
  523       -2.596651   1.000000
  524       -2.591533   1.000000
  525       -2.545192   1.000000
  526       -2.545109   1.000000
  527       -2.545088   1.000000
  528       -2.545057   1.000000
  529       -2.544962   1.000000
  530       -2.544941   1.000000
  531       -2.544876   1.000000
  532       -2.544824   1.000000
  533       -2.544789   1.000000
  534       -2.544709   1.000000
  535       -2.544665   1.000000
  536       -2.544585   1.000000
  537       -2.534094   1.000000
  538       -2.534025   1.000000
  539       -2.533930   1.000000
  540       -2.533902   1.000000
  541       -2.533700   1.000000
  542       -2.533535   1.000000
  543       -2.532087   1.000000
  544       -2.532075   1.000000
  545       -2.531940   1.000000
  546       -2.507160   1.000000
  547       -2.507113   1.000000
  548       -2.507092   1.000000
  549       -2.496710   1.000000
  550       -2.496653   1.000000
  551       -2.496602   1.000000
  552       -2.496535   1.000000
  553       -2.496485   1.000000
  554       -2.496377   1.000000
  555       -2.478822   1.000000
  556       -2.478780   1.000000
  557       -2.478757   1.000000
  558       -2.478710   1.000000
  559       -2.478594   1.000000
  560       -2.478447   1.000000
  561       -2.467723   1.000000
  562       -2.467705   1.000000
  563       -2.467688   1.000000
  564       -2.467601   1.000000
  565       -2.467559   1.000000
  566       -2.467527   1.000000
  567       -2.467465   1.000000
  568       -2.467437   1.000000
  569       -2.467386   1.000000
  570       -2.467319   1.000000
  571       -2.467299   1.000000
  572       -2.467214   1.000000
  573       -2.463476   1.000000
  574       -2.463252   1.000000
  575       -2.442817   1.000000
  576       -2.442672   1.000000
  577       -2.421820   1.000000
  578       -2.421756   1.000000
  579       -2.421677   1.000000
  580       -2.421605   1.000000
  581       -2.421530   1.000000
  582       -2.421509   1.000000
  583       -2.421333   1.000000
  584       -2.421295   1.000000
  585       -2.421232   1.000000
  586       -2.421168   1.000000
  587       -2.421039   1.000000
  588       -2.420857   1.000000
  589       -2.396500   1.000000
  590       -2.396471   1.000000
  591       -2.396418   1.000000
  592       -2.396265   1.000000
  593       -2.396230   1.000000
  594       -2.396176   1.000000
  595       -2.391551   1.000000
  596       -2.378612   1.000000
  597       -2.378602   1.000000
  598       -2.378429   1.000000
  599       -2.377158   1.000000
  600       -2.377041   1.000000
  601       -2.376988   1.000000
  602       -2.376646   1.000000
  603       -2.376631   1.000000
  604       -2.376554   1.000000
  605       -2.372624   1.000000
  606       -2.372496   1.000000
  607       -2.372337   1.000000
  608       -2.372252   1.000000
  609       -2.372048   1.000000
  610       -2.371970   1.000000
  611       -2.366668   1.000000
  612       -2.366448   1.000000
  613       -2.308548   1.000000
  614       -2.308346   1.000000
  615       -2.308329   1.000000
  616       -2.308125   1.000000
  617       -2.308040   1.000000
  618       -2.307921   1.000000
  619       -2.307605   1.000000
  620       -2.300611   1.000000
  621       -2.300446   1.000000
  622       -2.300023   1.000000
  623       -2.300001   1.000000
  624       -2.299966   1.000000
  625       -2.275003   1.000000
  626       -2.274957   1.000000
  627       -2.274763   1.000000
  628       -2.274719   1.000000
  629       -2.274621   1.000000
  630       -2.274573   1.000000
  631       -2.273389   1.000000
  632       -2.273229   1.000000
  633       -2.273119   1.000000
  634       -2.273010   1.000000
  635       -2.272725   1.000000
  636       -2.272656   1.000000
  637       -2.253165   1.000000
  638       -2.253093   1.000000
  639       -2.253056   1.000000
  640       -2.249231   1.000000
  641       -2.249212   1.000000
  642       -2.249172   1.000000
  643       -2.240246   1.000000
  644       -2.240031   1.000000
  645       -2.219229   1.000000
  646       -2.219144   1.000000
  647       -2.219067   1.000000
  648       -2.219018   1.000000
  649       -2.218975   1.000000
  650       -2.218945   1.000000
  651       -2.218889   1.000000
  652       -2.218865   1.000000
  653       -2.218782   1.000000
  654       -2.218739   1.000000
  655       -2.218674   1.000000
  656       -2.218659   1.000000
  657       -2.208083   1.000000
  658       -2.207966   1.000000
  659       -2.207827   1.000000
  660       -2.207783   1.000000
  661       -2.207665   1.000000
  662       -2.207617   1.000000
  663       -2.205726   1.000000
  664       -2.205672   1.000000
  665       -2.205607   1.000000
  666       -2.205575   1.000000
  667       -2.205401   1.000000
  668       -2.205353   1.000000
  669       -2.200807   1.000000
  670       -2.200804   1.000000
  671       -2.200362   1.000000
  672       -2.200308   1.000000
  673       -2.165331   1.000000
  674       -2.165260   1.000000
  675       -2.165169   1.000000
  676       -2.165118   1.000000
  677       -2.164977   1.000000
  678       -2.164902   1.000000
  679       -2.155150   1.000000
  680       -2.154997   1.000000
  681       -2.154907   1.000000
  682       -2.154724   1.000000
  683       -2.154663   1.000000
  684       -2.154445   1.000000
  685       -2.142414   1.000000
  686       -2.112435   1.000000
  687       -2.112297   1.000000
  688       -2.112185   1.000000
  689       -2.112056   1.000000
  690       -2.112009   1.000000
  691       -2.111981   1.000000
  692       -2.111906   1.000000
  693       -2.111835   1.000000
  694       -2.111804   1.000000
  695       -2.111711   1.000000
  696       -2.111699   1.000000
  697       -2.111628   1.000000
  698       -2.109694   1.000000
  699       -2.109503   1.000000
  700       -2.102366   1.000000
  701       -2.102299   1.000000
  702       -2.102259   1.000000
  703       -2.102117   1.000000
  704       -2.101904   1.000000
  705       -2.101817   1.000000
  706       -2.101187   1.000000
  707       -2.101026   1.000000
  708       -2.100404   1.000000
  709       -2.100359   1.000000
  710       -2.100239   1.000000
  711       -2.100042   1.000000
  712       -2.099823   1.000000
  713       -2.099708   1.000000
  714       -2.099596   1.000000
  715       -2.099559   1.000000
  716       -2.099413   1.000000
  717       -2.099409   1.000000
  718       -2.081679   1.000000
  719       -2.081329   1.000000
  720       -2.081246   1.000000
  721       -2.081194   1.000000
  722       -2.081073   1.000000
  723       -2.080990   1.000000
  724       -2.025579   1.000000
  725       -2.025538   1.000000
  726       -2.025457   1.000000
  727       -2.025437   1.000000
  728       -2.025418   1.000000
  729       -2.025350   1.000000
  730       -2.021015   1.000000
  731       -2.020990   1.000000
  732       -2.020913   1.000000
  733       -2.020869   1.000000
  734       -2.020749   1.000000
  735       -2.020745   1.000000
  736       -2.020684   1.000000
  737       -2.020641   1.000000
  738       -2.020603   1.000000
  739       -2.020541   1.000000
  740       -2.020498   1.000000
  741       -2.020423   1.000000
  742       -1.985697   1.000000
  743       -1.985397   1.000000
  744       -1.985361   1.000000
  745       -1.985229   1.000000
  746       -1.985162   1.000000
  747       -1.985000   1.000000
  748       -1.979240   1.000000
  749       -1.979111   1.000000
  750       -1.979048   1.000000
  751       -1.979020   1.000000
  752       -1.978964   1.000000
  753       -1.978820   1.000000
  754       -1.928747   1.000000
  755       -1.928620   1.000000
  756       -1.928567   1.000000
  757       -1.928460   1.000000
  758       -1.928417   1.000000
  759       -1.928360   1.000000
  760       -1.922371   1.000000
  761       -1.922323   1.000000
  762       -1.922235   1.000000
  763       -1.922194   1.000000
  764       -1.922154   1.000000
  765       -1.922114   1.000000
  766       -1.922100   1.000000
  767       -1.922042   1.000000
  768       -1.922027   1.000000
  769       -1.921985   1.000000
  770       -1.921913   1.000000
  771       -1.921882   1.000000
  772       -1.921162   1.000000
  773       -1.921072   1.000000
  774       -1.921025   1.000000
  775       -1.920836   1.000000
  776       -1.920799   1.000000
  777       -1.920706   1.000000
  778       -1.891457   1.000000
  779       -1.891407   1.000000
  780       -1.891397   1.000000
  781       -1.884024   1.000000
  782       -1.883767   1.000000
  783       -1.883724   1.000000
  784       -1.883637   1.000000
  785       -1.883450   1.000000
  786       -1.883382   1.000000
  787       -1.863228   1.000000
  788       -1.863185   1.000000
  789       -1.863036   1.000000
  790       -1.862913   1.000000
  791       -1.862865   1.000000
  792       -1.862684   1.000000
  793       -1.839797   1.000000
  794       -1.839743   1.000000
  795       -1.839602   1.000000
  796       -1.839439   1.000000
  797       -1.839424   1.000000
  798       -1.839190   1.000000
  799       -1.829795   1.000000
  800       -1.829638   1.000000
  801       -1.829564   1.000000
  802       -1.829518   1.000000
  803       -1.829456   1.000000
  804       -1.829438   1.000000
  805       -1.801965   1.000000
  806       -1.801816   1.000000
  807       -1.801733   1.000000
  808       -1.801719   1.000000
  809       -1.801611   1.000000
  810       -1.801531   1.000000
  811       -1.801474   1.000000
  812       -1.801460   1.000000
  813       -1.801350   1.000000
  814       -1.801328   1.000000
  815       -1.801279   1.000000
  816       -1.801115   1.000000
  817       -1.761276   1.000000
  818       -1.761153   1.000000
  819       -1.761095   1.000000
  820       -1.761052   1.000000
  821       -1.761031   1.000000
  822       -1.760983   1.000000
  823       -1.760963   1.000000
  824       -1.760906   1.000000
  825       -1.760829   1.000000
  826       -1.760730   1.000000
  827       -1.760701   1.000000
  828       -1.760663   1.000000
  829       -1.754776   1.000000
  830       -1.754744   1.000000
  831       -1.754399   1.000000
  832       -1.754361   1.000000
  833       -1.754226   1.000000
  834       -1.754081   1.000000
  835       -1.752435   1.000000
  836       -1.752425   1.000000
  837       -1.752321   1.000000
  838       -1.751972   1.000000
  839       -1.751921   1.000000
  840       -1.751840   1.000000
  841       -1.746946   1.000000
  842       -1.746763   1.000000
  843       -1.746662   1.000000
  844       -1.746639   1.000000
  845       -1.746450   1.000000
  846       -1.746281   1.000000
  847       -1.732145   1.000000
  848       -1.732046   1.000000
  849       -1.731942   1.000000
  850       -1.731923   1.000000
  851       -1.731853   1.000000
  852       -1.731375   1.000000
  853       -1.718430   1.000000
  854       -1.718372   1.000000
  855       -1.718320   1.000000
  856       -1.690376   1.000000
  857       -1.690234   1.000000
  858       -1.690153   1.000000
  859       -1.690119   1.000000
  860       -1.690087   1.000000
  861       -1.690025   1.000000
  862       -1.675682   1.000000
  863       -1.675644   1.000000
  864       -1.675616   1.000000
  865       -1.674157   1.000000
  866       -1.674045   1.000000
  867       -1.673957   1.000000
  868       -1.673846   1.000000
  869       -1.673804   1.000000
  870       -1.673588   1.000000
  871       -1.625021   1.000000
  872       -1.624939   1.000000
  873       -1.624906   1.000000
  874       -1.624827   1.000000
  875       -1.624802   1.000000
  876       -1.624778   1.000000
  877       -1.624743   1.000000
  878       -1.624700   1.000000
  879       -1.624633   1.000000
  880       -1.624604   1.000000
  881       -1.624548   1.000000
  882       -1.624471   1.000000
  883       -1.610060   1.000000
  884       -1.610038   1.000000
  885       -1.609875   1.000000
  886       -1.609822   1.000000
  887       -1.609716   1.000000
  888       -1.608389   1.000000
  889       -1.578767   1.000000
  890       -1.576096   1.000000
  891       -1.575925   1.000000
  892       -1.575849   1.000000
  893       -1.575692   1.000000
  894       -1.575672   1.000000
  895       -1.575473   1.000000
  896       -1.507015   1.000000
  897       -1.506870   1.000000
  898       -1.506817   1.000000
  899       -1.506621   1.000000
  900       -1.506603   1.000000
  901       -1.506501   1.000000