       N       E                     dE             d eps       ncg     rms          rms(c)
DAV:   1     0.181903904273E+05    0.18190E+05   -0.91688E+05 12240   0.112E+03
DAV:   2    -0.166244450956E+03   -0.18357E+05   -0.17378E+05 12828   0.399E+02
DAV:   3    -0.140558502054E+04   -0.12393E+04   -0.10216E+04 14004   0.103E+02
DAV:   4    -0.157287212070E+04   -0.16729E+03   -0.14851E+03 21840   0.380E+01
DAV:   5    -0.157901606643E+04   -0.61439E+01   -0.58154E+01 20184   0.703E+00    0.146E+02
DAV:   6    -0.184573019188E+04   -0.26671E+03   -0.32077E+03 13596   0.139E+02    0.246E+02
DAV:   7    -0.192266010254E+04   -0.76930E+02   -0.13533E+03 13200   0.147E+02    0.198E+02
DAV:   8    -0.153428246303E+04    0.38838E+03   -0.52657E+02 15768   0.655E+01    0.170E+02
DAV:   9    -0.146724436810E+04    0.67038E+02   -0.34394E+02 13812   0.762E+01    0.159E+02
DAV:  10    -0.238600376153E+04   -0.91876E+03   -0.42160E+02 13788   0.119E+02    0.294E+02
DAV:  11    -0.162661423696E+04    0.75939E+03   -0.27105E+02 14952   0.742E+01    0.231E+02
DAV:  12    -0.143454766793E+04    0.19207E+03   -0.20340E+02 13956   0.457E+01    0.140E+02
DAV:  13    -0.143233856737E+04    0.22091E+01   -0.11853E+02 14736   0.510E+01    0.181E+02
DAV:  14    -0.134066763629E+04    0.91671E+02   -0.67576E+01 13656   0.332E+01    0.972E+01
DAV:  15    -0.133115790182E+04    0.95097E+01   -0.49470E+01 14412   0.282E+01    0.860E+01
DAV:  16    -0.133556164670E+04   -0.44037E+01   -0.29978E+01 13200   0.272E+01    0.870E+01
DAV:  17    -0.133227201935E+04    0.32896E+01   -0.13441E+01 13560   0.112E+01    0.850E+01
DAV:  18    -0.133114395689E+04    0.11281E+01   -0.69998E+00 12996   0.843E+00    0.846E+01
DAV:  19    -0.132312945924E+04    0.80145E+01   -0.56834E+00 13128   0.101E+01    0.673E+01
DAV:  20    -0.131878482590E+04    0.43446E+01   -0.36494E+00 13248   0.777E+00    0.569E+01
DAV:  21    -0.131699811758E+04    0.17867E+01   -0.35110E+00 13320   0.846E+00    0.563E+01
DAV:  22    -0.131383790255E+04    0.31602E+01   -0.33667E+00 13296   0.830E+00    0.501E+01
DAV:  23    -0.131168415955E+04    0.21537E+01   -0.27991E+00 13296   0.721E+00    0.484E+01
DAV:  24    -0.130939072483E+04    0.22934E+01   -0.23105E+00 13248   0.559E+00    0.394E+01
DAV:  25    -0.130751817675E+04    0.18725E+01   -0.13416E+00 13332   0.482E+00    0.302E+01
DAV:  26    -0.130649347247E+04    0.10247E+01   -0.88908E-01 13224   0.383E+00    0.244E+01
DAV:  27    -0.130588597228E+04    0.60750E+00   -0.59012E-01 13200   0.309E+00    0.210E+01
DAV:  28    -0.130554269672E+04    0.34328E+00   -0.38934E-01 13200   0.261E+00    0.192E+01
DAV:  29    -0.130543080188E+04    0.11189E+00   -0.26934E-01 13428   0.210E+00    0.194E+01
DAV:  30    -0.130521381598E+04    0.21699E+00   -0.26466E-01 13200   0.199E+00    0.183E+01
DAV:  31    -0.130498006212E+04    0.23375E+00   -0.22295E-01 13224   0.201E+00    0.165E+01
DAV:  32    -0.130511770867E+04   -0.13765E+00   -0.36915E-01 13368   0.267E+00    0.188E+01
DAV:  33    -0.130518357558E+04   -0.65867E-01   -0.63905E-01 13392   0.336E+00    0.203E+01
DAV:  34    -0.130485877708E+04    0.32480E+00   -0.74249E-01 13356   0.352E+00    0.189E+01
DAV:  35    -0.130463820162E+04    0.22058E+00   -0.44727E-01 13248   0.255E+00    0.179E+01
DAV:  36    -0.130449789172E+04    0.14031E+00   -0.26344E-01 13272   0.177E+00    0.167E+01
DAV:  37    -0.130435618085E+04    0.14171E+00   -0.16448E-01 13332   0.148E+00    0.154E+01
DAV:  38    -0.130421710612E+04    0.13907E+00   -0.12989E-01 13272   0.129E+00    0.141E+01
DAV:  39    -0.130406251049E+04    0.15460E+00   -0.90750E-02 13296   0.113E+00    0.120E+01
DAV:  40    -0.130400789848E+04    0.54612E-01   -0.52149E-02 13368   0.873E-01    0.113E+01
DAV:  41    -0.130395538251E+04    0.52516E-01   -0.57635E-02 13440   0.983E-01    0.106E+01
DAV:  42    -0.130386268673E+04    0.92696E-01   -0.60486E-02 13380   0.993E-01    0.897E+00
DAV:  43    -0.130380539946E+04    0.57287E-01   -0.40177E-02 13296   0.812E-01    0.787E+00
DAV:  44    -0.130379170406E+04    0.13695E-01   -0.40197E-02 13392   0.755E-01    0.772E+00
DAV:  45    -0.130376292691E+04    0.28777E-01   -0.67755E-02 13416   0.990E-01    0.713E+00
DAV:  46    -0.130370650642E+04    0.56420E-01   -0.72456E-02 13368   0.105E+00    0.577E+00
DAV:  47    -0.130366519985E+04    0.41307E-01   -0.42920E-02 13296   0.743E-01    0.418E+00
DAV:  48    -0.130366435182E+04    0.84803E-03   -0.21236E-02 13632   0.438E-01    0.417E+00
DAV:  49    -0.130367002884E+04   -0.56770E-02   -0.13927E-02 12972   0.444E-01    0.437E+00
DAV:  50    -0.130366601268E+04    0.40162E-02   -0.12514E-02 12972   0.439E-01    0.418E+00
DAV:  51    -0.130367256370E+04   -0.65510E-02   -0.37085E-02 20184   0.704E-01    0.375E+00
DAV:  52    -0.130367324557E+04   -0.68187E-03   -0.38308E-02 14580   0.730E-01    0.379E+00
DAV:  53    -0.130366027571E+04    0.12970E-01   -0.28348E-02 14172   0.675E-01    0.332E+00
DAV:  54    -0.130365442977E+04    0.58459E-02   -0.94573E-03 13728   0.402E-01    0.304E+00
DAV:  55    -0.130364803127E+04    0.63985E-02   -0.57362E-03 13500   0.296E-01    0.229E+00
DAV:  56    -0.130364046325E+04    0.75680E-02   -0.62950E-03 13416   0.307E-01    0.105E+00
DAV:  57    -0.130364014166E+04    0.32159E-03   -0.29748E-03 13404   0.216E-01    0.947E-01
DAV:  58    -0.130364020496E+04   -0.63302E-04   -0.21422E-03 13344   0.188E-01    0.868E-01
DAV:  59    -0.130363932560E+04    0.87936E-03   -0.13901E-03 13332   0.164E-01    0.606E-01
DAV:  60    -0.130363977891E+04   -0.45331E-03   -0.10980E-03 14160   0.140E-01
   1 F= -.13036398E+04 E0= -.13029450E+04  d E =-.138948E+01
