 254 254   0   0
  0.3019211E+02  0.1718057E-08  0.1718057E-08  0.3000000E-08  0.5000000E-15
  1.000000000000000E-004
  CAR 
 NiAl                                    
      5.53903953    -24.34188914  301      1.82259806      1.00000000
    -24.342  0.0000E+00  0.0000E+00
    -24.242  0.0000E+00  0.0000E+00
    -24.143  0.0000E+00  0.0000E+00
    -24.043  0.0000E+00  0.0000E+00
    -23.943  0.0000E+00  0.0000E+00
    -23.844  0.0000E+00  0.0000E+00
    -23.744  0.0000E+00  0.0000E+00
    -23.645  0.0000E+00  0.0000E+00
    -23.545  0.0000E+00  0.0000E+00
    -23.445  0.0000E+00  0.0000E+00
    -23.346  0.0000E+00  0.0000E+00
    -23.246  0.1093E-11  0.1089E-12
    -23.147  0.3995E-04  0.3979E-05
    -23.047  0.7290E+00  0.7261E-01
    -22.947  0.1627E+02  0.1693E+01
    -22.848  0.3079E+01  0.2000E+01
    -22.748  0.1240E-02  0.2000E+01
    -22.649  0.2819E-09  0.2000E+01
    -22.549  0.0000E+00  0.2000E+01
    -22.449  0.0000E+00  0.2000E+01
    -22.350  0.0000E+00  0.2000E+01
    -22.250  0.0000E+00  0.2000E+01
    -22.151  0.0000E+00  0.2000E+01
    -22.051  0.0000E+00  0.2000E+01
    -21.951  0.0000E+00  0.2000E+01
    -21.852  0.0000E+00  0.2000E+01
    -21.752  0.0000E+00  0.2000E+01
    -21.653  0.0000E+00  0.2000E+01
    -21.553  0.0000E+00  0.2000E+01
    -21.453  0.0000E+00  0.2000E+01
    -21.354  0.0000E+00  0.2000E+01
    -21.254  0.0000E+00  0.2000E+01
    -21.155  0.0000E+00  0.2000E+01
    -21.055  0.0000E+00  0.2000E+01
    -20.955  0.0000E+00  0.2000E+01
    -20.856  0.0000E+00  0.2000E+01
    -20.756  0.0000E+00  0.2000E+01
    -20.657  0.0000E+00  0.2000E+01
    -20.557  0.0000E+00  0.2000E+01
    -20.457  0.0000E+00  0.2000E+01
    -20.358  0.0000E+00  0.2000E+01
    -20.258  0.0000E+00  0.2000E+01
    -20.159  0.0000E+00  0.2000E+01
    -20.059  0.0000E+00  0.2000E+01
    -19.959  0.0000E+00  0.2000E+01
    -19.860  0.0000E+00  0.2000E+01
    -19.760  0.0000E+00  0.2000E+01
    -19.661  0.0000E+00  0.2000E+01
    -19.561  0.0000E+00  0.2000E+01
    -19.461  0.0000E+00  0.2000E+01
    -19.362  0.0000E+00  0.2000E+01
    -19.262  0.0000E+00  0.2000E+01
    -19.163  0.0000E+00  0.2000E+01
    -19.063  0.0000E+00  0.2000E+01
    -18.963  0.0000E+00  0.2000E+01
    -18.864  0.0000E+00  0.2000E+01
    -18.764  0.0000E+00  0.2000E+01
    -18.665  0.0000E+00  0.2000E+01
    -18.565  0.0000E+00  0.2000E+01
    -18.465  0.0000E+00  0.2000E+01
    -18.366  0.0000E+00  0.2000E+01
    -18.266  0.0000E+00  0.2000E+01
    -18.166  0.0000E+00  0.2000E+01
    -18.067  0.0000E+00  0.2000E+01
    -17.967  0.0000E+00  0.2000E+01
    -17.868  0.0000E+00  0.2000E+01
    -17.768  0.0000E+00  0.2000E+01
    -17.668  0.0000E+00  0.2000E+01
    -17.569  0.0000E+00  0.2000E+01
    -17.469  0.0000E+00  0.2000E+01
    -17.370  0.0000E+00  0.2000E+01
    -17.270  0.0000E+00  0.2000E+01
    -17.170  0.0000E+00  0.2000E+01
    -17.071  0.0000E+00  0.2000E+01
    -16.971  0.0000E+00  0.2000E+01
    -16.872  0.0000E+00  0.2000E+01
    -16.772  0.0000E+00  0.2000E+01
    -16.672  0.0000E+00  0.2000E+01
    -16.573  0.0000E+00  0.2000E+01
    -16.473  0.0000E+00  0.2000E+01
    -16.374  0.0000E+00  0.2000E+01
    -16.274  0.0000E+00  0.2000E+01
    -16.174  0.0000E+00  0.2000E+01
    -16.075  0.0000E+00  0.2000E+01
    -15.975  0.0000E+00  0.2000E+01
    -15.876  0.0000E+00  0.2000E+01
    -15.776  0.0000E+00  0.2000E+01
    -15.676  0.0000E+00  0.2000E+01
    -15.577  0.0000E+00  0.2000E+01
    -15.477  0.0000E+00  0.2000E+01
    -15.378  0.0000E+00  0.2000E+01
    -15.278  0.0000E+00  0.2000E+01
    -15.178  0.0000E+00  0.2000E+01
    -15.079  0.0000E+00  0.2000E+01
    -14.979  0.0000E+00  0.2000E+01
    -14.880  0.0000E+00  0.2000E+01
    -14.780  0.0000E+00  0.2000E+01
    -14.680  0.0000E+00  0.2000E+01
    -14.581  0.0000E+00  0.2000E+01
    -14.481  0.0000E+00  0.2000E+01
    -14.382  0.0000E+00  0.2000E+01
    -14.282  0.0000E+00  0.2000E+01
    -14.182  0.0000E+00  0.2000E+01
    -14.083  0.0000E+00  0.2000E+01
    -13.983  0.0000E+00  0.2000E+01
    -13.884  0.0000E+00  0.2000E+01
    -13.784  0.0000E+00  0.2000E+01
    -13.684  0.0000E+00  0.2000E+01
    -13.585  0.0000E+00  0.2000E+01
    -13.485  0.0000E+00  0.2000E+01
    -13.386  0.0000E+00  0.2000E+01
    -13.286  0.0000E+00  0.2000E+01
    -13.186  0.0000E+00  0.2000E+01
    -13.087  0.0000E+00  0.2000E+01
    -12.987  0.0000E+00  0.2000E+01
    -12.888  0.0000E+00  0.2000E+01
    -12.788  0.0000E+00  0.2000E+01
    -12.688  0.0000E+00  0.2000E+01
    -12.589  0.0000E+00  0.2000E+01
    -12.489  0.0000E+00  0.2000E+01
    -12.390  0.0000E+00  0.2000E+01
    -12.290  0.0000E+00  0.2000E+01
    -12.190  0.0000E+00  0.2000E+01
    -12.091  0.0000E+00  0.2000E+01
    -11.991  0.0000E+00  0.2000E+01
    -11.892  0.0000E+00  0.2000E+01
    -11.792  0.0000E+00  0.2000E+01
    -11.692  0.0000E+00  0.2000E+01
    -11.593  0.0000E+00  0.2000E+01
    -11.493  0.0000E+00  0.2000E+01
    -11.393  0.0000E+00  0.2000E+01
    -11.294  0.0000E+00  0.2000E+01
    -11.194  0.0000E+00  0.2000E+01
    -11.095  0.0000E+00  0.2000E+01
    -10.995  0.0000E+00  0.2000E+01
    -10.895  0.0000E+00  0.2000E+01
    -10.796  0.0000E+00  0.2000E+01
    -10.696  0.0000E+00  0.2000E+01
    -10.597  0.0000E+00  0.2000E+01
    -10.497  0.0000E+00  0.2000E+01
    -10.397  0.0000E+00  0.2000E+01
    -10.298  0.0000E+00  0.2000E+01
    -10.198  0.0000E+00  0.2000E+01
    -10.099  0.0000E+00  0.2000E+01
     -9.999  0.0000E+00  0.2000E+01
     -9.899  0.0000E+00  0.2000E+01
     -9.800  0.0000E+00  0.2000E+01
     -9.700  0.0000E+00  0.2000E+01
     -9.601  0.0000E+00  0.2000E+01
     -9.501  0.0000E+00  0.2000E+01
     -9.401  0.0000E+00  0.2000E+01
     -9.302  0.1386E-07  0.2000E+01
     -9.202  0.6483E-02  0.2001E+01
     -9.103  0.2113E+01  0.2211E+01
     -9.003  0.3417E+01  0.2551E+01
     -8.903  0.2248E+02  0.4790E+01
     -8.804  0.7319E+01  0.5519E+01
     -8.704  0.4141E+01  0.5932E+01
     -8.605  0.1884E+02  0.7808E+01
     -8.505  0.4171E+02  0.1196E+02
     -8.405  0.2297E+02  0.1425E+02
     -8.306  0.8654E+01  0.1511E+02
     -8.206  0.2451E+02  0.1755E+02
     -8.107  0.1211E+02  0.1876E+02
     -8.007  0.3092E+02  0.2184E+02
     -7.907  0.8041E+02  0.2985E+02
     -7.808  0.2658E+02  0.3250E+02
     -7.708  0.9400E-01  0.3251E+02
     -7.609  0.3409E+02  0.3590E+02
     -7.509  0.8480E+02  0.4435E+02
     -7.409  0.2171E+02  0.4651E+02
     -7.310  0.1188E+02  0.4769E+02
     -7.210  0.2915E+02  0.5060E+02
     -7.111  0.2994E+02  0.5358E+02
     -7.011  0.3631E+02  0.5720E+02
     -6.911  0.8895E+02  0.6605E+02
     -6.812  0.3627E+02  0.6967E+02
     -6.712  0.4989E+02  0.7464E+02
     -6.613  0.4831E+02  0.7945E+02
     -6.513  0.7582E+02  0.8700E+02
     -6.413  0.2830E+02  0.8982E+02
     -6.314  0.2072E+02  0.9188E+02
     -6.214  0.3769E+01  0.9226E+02
     -6.115  0.6127E+02  0.9836E+02
     -6.015  0.1064E+03  0.1090E+03
     -5.915  0.1030E+03  0.1192E+03
     -5.816  0.2741E+02  0.1219E+03
     -5.716  0.4259E+02  0.1262E+03
     -5.617  0.7976E+02  0.1341E+03
     -5.517  0.8180E+02  0.1423E+03
     -5.417  0.2745E+02  0.1450E+03
     -5.318  0.2187E+02  0.1472E+03
     -5.218  0.7123E+02  0.1543E+03
     -5.118  0.4721E+02  0.1590E+03
     -5.019  0.8060E+02  0.1670E+03
     -4.919  0.8096E+02  0.1751E+03
     -4.820  0.1320E+02  0.1764E+03
     -4.720  0.5168E+02  0.1815E+03
     -4.620  0.1173E+03  0.1932E+03
     -4.521  0.6653E+02  0.1999E+03
     -4.421  0.6218E+02  0.2060E+03
     -4.322  0.3471E+02  0.2095E+03
     -4.222  0.6910E+02  0.2164E+03
     -4.122  0.1213E+03  0.2285E+03
     -4.023  0.9290E+02  0.2377E+03
     -3.923  0.6239E+02  0.2439E+03
     -3.824  0.4595E+02  0.2485E+03
     -3.724  0.7696E+02  0.2562E+03
     -3.624  0.9459E+02  0.2656E+03
     -3.525  0.4764E+02  0.2703E+03
     -3.425  0.6259E+02  0.2766E+03
     -3.326  0.9481E+01  0.2775E+03
     -3.226  0.3567E+02  0.2811E+03
     -3.126  0.9554E+02  0.2906E+03
     -3.027  0.1015E+03  0.3007E+03
     -2.927  0.8337E+02  0.3090E+03
     -2.828  0.1228E+03  0.3212E+03
     -2.728  0.1682E+03  0.3380E+03
     -2.628  0.1143E+03  0.3494E+03
     -2.529  0.1254E+01  0.3495E+03
     -2.429  0.1426E+02  0.3509E+03
     -2.330  0.6756E+02  0.3577E+03
     -2.230  0.1358E+03  0.3712E+03
     -2.130  0.6452E+02  0.3776E+03
     -2.031  0.1022E+03  0.3878E+03
     -1.931  0.3680E+02  0.3915E+03
     -1.832  0.9478E+02  0.4009E+03
     -1.732  0.1506E+03  0.4159E+03
     -1.632  0.6326E+02  0.4222E+03
     -1.533  0.5583E+02  0.4278E+03
     -1.433  0.7930E+02  0.4357E+03
     -1.334  0.8128E+02  0.4438E+03
     -1.234  0.1723E+03  0.4609E+03
     -1.134  0.1078E+03  0.4717E+03
     -1.035  0.7194E+02  0.4788E+03
     -0.935  0.7467E+02  0.4863E+03
     -0.836  0.1107E+03  0.4973E+03
     -0.736  0.1082E+03  0.5081E+03
     -0.636  0.6926E+02  0.5150E+03
     -0.537  0.3062E+02  0.5180E+03
     -0.437  0.1113E+03  0.5291E+03
     -0.338  0.2080E+03  0.5498E+03
     -0.238  0.7834E+02  0.5576E+03
     -0.138  0.1294E+03  0.5705E+03
     -0.039  0.4183E+02  0.5747E+03
      0.061  0.4135E+02  0.5788E+03
      0.160  0.1150E+03  0.5902E+03
      0.260  0.8731E+02  0.5989E+03
      0.360  0.8049E+02  0.6070E+03
      0.459  0.7485E+02  0.6144E+03
      0.559  0.1523E+03  0.6296E+03
      0.658  0.6698E+02  0.6362E+03
      0.758  0.5223E+02  0.6415E+03
      0.858  0.4819E+02  0.6463E+03
      0.957  0.9750E+02  0.6560E+03
      1.057  0.2613E+03  0.6820E+03
      1.157  0.1215E+03  0.6941E+03
      1.256  0.8046E+02  0.7021E+03
      1.356  0.6744E+02  0.7088E+03
      1.455  0.8237E+02  0.7170E+03
      1.555  0.1080E+03  0.7278E+03
      1.655  0.1623E+03  0.7439E+03
      1.754  0.1684E+03  0.7607E+03
      1.854  0.6166E+02  0.7669E+03
      1.953  0.4984E+02  0.7718E+03
      2.053  0.1868E+03  0.7904E+03
      2.153  0.7859E+02  0.7983E+03
      2.252  0.7776E+02  0.8060E+03
      2.352  0.5592E+02  0.8116E+03
      2.451  0.1022E+03  0.8218E+03
      2.551  0.9112E+02  0.8308E+03
      2.651  0.1325E+03  0.8440E+03
      2.750  0.8823E+02  0.8528E+03
      2.850  0.7617E+02  0.8604E+03
      2.949  0.2045E+03  0.8808E+03
      3.049  0.2643E+03  0.9071E+03
      3.149  0.8016E+02  0.9151E+03
      3.248  0.7041E+02  0.9221E+03
      3.348  0.1089E+03  0.9329E+03
      3.447  0.1520E+03  0.9481E+03
      3.547  0.1174E+03  0.9598E+03
      3.647  0.7486E+02  0.9672E+03
      3.746  0.1327E+03  0.9804E+03
      3.846  0.7654E+02  0.9881E+03
      3.945  0.1090E+03  0.9989E+03
      4.045  0.1749E+03  0.1016E+04
      4.145  0.1267E+03  0.1029E+04
      4.244  0.3002E+02  0.1032E+04
      4.344  0.4389E+00  0.1032E+04
      4.443  0.1797E-04  0.1032E+04
      4.543  0.4358E-12  0.1032E+04
      4.643  0.0000E+00  0.1032E+04
      4.742  0.0000E+00  0.1032E+04
      4.842  0.0000E+00  0.1032E+04
      4.941  0.0000E+00  0.1032E+04
      5.041  0.0000E+00  0.1032E+04
      5.141  0.0000E+00  0.1032E+04
      5.240  0.0000E+00  0.1032E+04
      5.340  0.0000E+00  0.1032E+04
      5.439  0.0000E+00  0.1032E+04
      5.539  0.0000E+00  0.1032E+04
