 vasp.5.4.4.18Apr17-6-g9f103f2a35 (build May 02 2017 15:33:50) complex          
  
 executed on Intel-16.0.3.210-OMP date 2018.08.08  21:36:29
 running on    6 total cores
 distrk:  each k-point on    6 cores,    1 groups
 distr:  one band on NCORES_PER_BAND=   1 cores,    6 groups


--------------------------------------------------------------------------------------------------------


 INCAR:
 POTCAR:    PAW Al_GW 19Mar2012                   
 POTCAR:    PAW_PBE N 08Apr2002                   

 ----------------------------------------------------------------------------- 
|                                                                             |
|           W    W    AA    RRRRR   N    N  II  N    N   GGGG   !!!           |
|           W    W   A  A   R    R  NN   N  II  NN   N  G    G  !!!           |
|           W    W  A    A  R    R  N N  N  II  N N  N  G       !!!           |
|           W WW W  AAAAAA  RRRRR   N  N N  II  N  N N  G  GGG   !            |
|           WW  WW  A    A  R   R   N   NN  II  N   NN  G    G                |
|           W    W  A    A  R    R  N    N  II  N    N   GGGG   !!!           |
|                                                                             |
|      For optimal performance we recommend to set                            |
|        NCORE= 4 - approx SQRT( number of cores)                             |
|      NCORE specifies how many cores store one orbital (NPAR=cpu/NCORE).     |
|      This setting can  greatly improve the performance of VASP for DFT.     |
|      The default,   NCORE=1            might be grossly inefficient         |
|      on modern multi-core architectures or massively parallel machines.     |
|      Do your own testing !!!!                                               |
|      Unfortunately you need to use the default for GW and RPA calculations. |
|      (for HF NCORE is supported but not extensively tested yet)             |
|                                                                             |
 ----------------------------------------------------------------------------- 

 POTCAR:    PAW Al_GW 19Mar2012                   
   VRHFIN =Al: s2p1                                                             
   LEXCH  = PE                                                                  
   EATOM  =    53.5387 eV,    3.9350 Ry                                         
                                                                                
   TITEL  = PAW Al_GW 19Mar2012                                                 
   LULTRA =        F    use ultrasoft PP ?                                      
   IUNSCR =        1    unscreen: 0-lin 1-nonlin 2-no                           
   RPACOR =    1.500    partial core radius                                     
   POMASS =   26.982; ZVAL   =    3.000    mass and valenz                      
   RCORE  =    2.000    outmost cutoff radius                                   
   RWIGS  =    2.000; RWIGS  =    1.058    wigner-seitz radius (au A)           
   ENMAX  =  240.300; ENMIN  =  180.225 eV                                      
   ICORE  =        3    local potential                                         
   LCOR   =        T    correct aug charges                                     
   LPAW   =        T    paw PP                                                  
   EAUG   =  482.059                                                            
   DEXC   =    0.000                                                            
   RMAX   =    2.051    core radius for proj-oper                               
   RAUG   =    1.300    factor for augmentation sphere                          
   RDEP   =    2.096    radius for radial grids                                 
   RDEPT  =    1.856    core radius for aug-charge                              
                                                                                
   Atomic configuration                                                         
    7 entries                                                                   
     n  l   j            E        occ.                                          
     1  0  0.50     -1511.1048   2.0000                                         
     2  0  0.50      -108.1629   2.0000                                         
     2  1  1.50       -69.6402   6.0000                                         
     3  0  0.50        -7.7528   2.0000                                         
     3  1  1.50        -2.7121   1.0000                                         
     3  2  2.50        -2.7212   0.0000                                         
     4  3  2.50        -2.7212   0.0000                                         
   Description                                                                  
     l       E           TYP  RCUT    TYP  RCUT                                 
     0     -7.7528455     23  1.900                                             
     0     68.0291300     23  1.900                                             
     1     -2.7120682     23  1.900                                             
     1     68.0291300     23  1.900                                             
     2     -1.3605826     23  1.900                                             
     2     81.6349560     23  1.900                                             
     3     74.8320430     23  2.000                                             
  local pseudopotential read in
  partial core-charges read in
  partial kinetic energy density read in
  kinetic energy density of atom read in
  atomic valenz-charges read in
  non local Contribution for L=           0  read in
    real space projection operators read in
  non local Contribution for L=           0  read in
    real space projection operators read in
  non local Contribution for L=           1  read in
    real space projection operators read in
  non local Contribution for L=           1  read in
    real space projection operators read in
  non local Contribution for L=           2  read in
    real space projection operators read in
  non local Contribution for L=           2  read in
    real space projection operators read in
    PAW grid and wavefunctions read in
 
   number of l-projection  operators is LMAX  =           6
   number of lm-projection operators is LMMAX =          18
 
 POTCAR:    PAW_PBE N 08Apr2002                   
   VRHFIN =N: s2p3                                                              
   LEXCH  = PE                                                                  
   EATOM  =   264.5486 eV,   19.4438 Ry                                         
                                                                                
   TITEL  = PAW_PBE N 08Apr2002                                                 
   LULTRA =        F    use ultrasoft PP ?                                      
   IUNSCR =        1    unscreen: 0-lin 1-nonlin 2-no                           
   RPACOR =    1.200    partial core radius                                     
   POMASS =   14.001; ZVAL   =    5.000    mass and valenz                      
   RCORE  =    1.500    outmost cutoff radius                                   
   RWIGS  =    1.400; RWIGS  =    0.741    wigner-seitz radius (au A)           
   ENMAX  =  400.000; ENMIN  =  300.000 eV                                      
   ICORE  =        2    local potential                                         
   LCOR   =        T    correct aug charges                                     
   LPAW   =        T    paw PP                                                  
   EAUG   =  627.112                                                            
   DEXC   =    0.000                                                            
   RMAX   =    1.529    core radius for proj-oper                               
   RAUG   =    1.300    factor for augmentation sphere                          
   RDEP   =    1.514    radius for radial grids                                 
   RDEPT  =    1.338    core radius for aug-charge                              
                                                                                
   Atomic configuration                                                         
    4 entries                                                                   
     n  l   j            E        occ.                                          
     1  0  0.50      -384.7179   2.0000                                         
     2  0  0.50       -18.5828   2.0000                                         
     2  1  0.50        -7.0898   3.0000                                         
     3  2  1.50        -6.8029   0.0000                                         
   Description                                                                  
     l       E           TYP  RCUT    TYP  RCUT                                 
     0    -18.5828119     23  1.200                                             
     0    -13.5018863     23  1.200                                             
     1     -7.0897853     23  1.500                                             
     1      9.5240782     23  1.500                                             
     2     -6.8029130      7  1.500                                             
  local pseudopotential read in
  partial core-charges read in
  partial kinetic energy density read in
  atomic valenz-charges read in
  non local Contribution for L=           0  read in
    real space projection operators read in
  non local Contribution for L=           0  read in
    real space projection operators read in
  non local Contribution for L=           1  read in
    real space projection operators read in
  non local Contribution for L=           1  read in
    real space projection operators read in
    PAW grid and wavefunctions read in
 
   number of l-projection  operators is LMAX  =           4
   number of lm-projection operators is LMMAX =           8
 
 Optimization of the real space projectors (new method)

 maximal supplied QI-value         = 18.90
 optimisation between [QCUT,QGAM] = [  8.69, 17.57] = [ 21.16, 86.49] Ry 
 Optimized for a Real-space Cutoff    1.59 Angstroem

   l    n(q)    QCUT    max X(q) W(low)/X(q) W(high)/X(q)  e(spline) 
   0      8     8.693    11.519    0.12E-03    0.31E-04    0.21E-06
   0      8     8.693     5.834    0.89E-04    0.32E-04    0.16E-06
   1      8     8.693    10.132    0.25E-03    0.39E-03    0.25E-06
   1      8     8.693     3.004    0.16E-03    0.27E-03    0.22E-06
   2      7     8.693     3.169    0.39E-03    0.93E-03    0.44E-06
   2      7     8.693     1.605    0.70E-04    0.91E-04    0.19E-06
 Optimization of the real space projectors (new method)

 maximal supplied QI-value         = 25.13
 optimisation between [QCUT,QGAM] = [  8.80, 17.59] = [ 21.67, 86.68] Ry 
 Optimized for a Real-space Cutoff    2.14 Angstroem

   l    n(q)    QCUT    max X(q) W(low)/X(q) W(high)/X(q)  e(spline) 
   0     11     8.797    79.467    0.70E-04    0.19E-04    0.19E-05
   0     11     8.797    66.151    0.68E-04    0.18E-04    0.19E-05
   1     11     8.797     6.738    0.26E-03    0.11E-02    0.73E-05
   1     11     8.797     5.013    0.25E-03    0.11E-02    0.72E-05
  PAW Al_GW 19Mar2012                   :
 energy of atom  1       EATOM=  -53.5387
 kinetic energy error for atom=    0.0011 (will be added to EATOM!!)
  PAW_PBE N 08Apr2002                   :
 energy of atom  2       EATOM= -264.5486
 kinetic energy error for atom=    0.6882 (will be added to EATOM!!)
 
 
 POSCAR: New structure                           
  positions in cartesian coordinates
  No initial velocities read in
 exchange correlation table for  LEXCH =        8
   RHO(1)=    0.500       N(1)  =     2000
   RHO(2)=  100.500       N(2)  =     4000
 


--------------------------------------------------------------------------------------------------------


 ion  position               nearest neighbor table
   1  0.444  0.444  0.079-
   2  0.444  0.778  0.079-
   3  0.444  0.111  0.079-
   4  0.778  0.444  0.079-
   5  0.778  0.778  0.079-
   6  0.778  0.111  0.079-
   7  0.111  0.444  0.079-
   8  0.111  0.778  0.079-
   9  0.111  0.111  0.079-
  10  0.556  0.556  0.157-
  11  0.556  0.889  0.157-
  12  0.556  0.222  0.157-
  13  0.889  0.556  0.157-
  14  0.889  0.889  0.157-
  15  0.889  0.222  0.157-
  16  0.222  0.556  0.157-
  17  0.222  0.889  0.157-
  18  0.222  0.222  0.157-
  19  0.667  0.667  0.234-
  20  0.667  0.000  0.234-
  21  0.667  0.333  0.234-
  22  0.000  0.667  0.234-
  23  0.000  0.000  0.234-
  24  0.000  0.333  0.234-
  25  0.333  0.667  0.234-
  26  0.333  0.000  0.234-
  27  0.333  0.333  0.234-
  28  0.778  0.778  0.312-
  29  0.778  0.111  0.312-
  30  0.778  0.444  0.312-
  31  0.111  0.778  0.312-
  32  0.111  0.111  0.312-
  33  0.111  0.444  0.312-
  34  0.444  0.778  0.312-
  35  0.444  0.111  0.312-
  36  0.444  0.444  0.312-
  37  0.889  0.889  0.390-
  38  0.889  0.222  0.390-
  39  0.889  0.556  0.390-
  40  0.222  0.889  0.390-
  41  0.222  0.222  0.390-
  42  0.222  0.556  0.390-
  43  0.556  0.889  0.390-
  44  0.556  0.222  0.390-
  45  0.556  0.556  0.390-
  46  0.000  0.000  0.466-
  47  0.000  0.333  0.466-
  48  0.000  0.667  0.466-
  49  0.333  0.000  0.466-
  50  0.333  0.333  0.466-
  51  0.333  0.667  0.466-
  52  0.667  0.000  0.466-
  53  0.667  0.333  0.466-
  54  0.667  0.667  0.466-
  55  0.111  0.111  0.545-
  56  0.111  0.444  0.545-
  57  0.111  0.778  0.545-
  58  0.444  0.111  0.545-
  59  0.444  0.444  0.545-
  60  0.444  0.778  0.545-
  61  0.778  0.111  0.545-
  62  0.778  0.444  0.545-
  63  0.778  0.778  0.545-
  64  0.278  0.278  0.079-
  65  0.278  0.611  0.079-
  66  0.278  0.944  0.079-
  67  0.611  0.278  0.079-
  68  0.611  0.611  0.079-
  69  0.611  0.944  0.079-
  70  0.944  0.278  0.079-
  71  0.944  0.611  0.079-
  72  0.944  0.944  0.079-
  73  0.389  0.389  0.157-
  74  0.389  0.722  0.157-
  75  0.389  0.056  0.157-
  76  0.722  0.389  0.157-
  77  0.722  0.722  0.157-
  78  0.722  0.056  0.157-
  79  0.056  0.389  0.157-
  80  0.056  0.722  0.157-
  81  0.056  0.056  0.157-
  82  0.500  0.500  0.234-
  83  0.500  0.833  0.234-
  84  0.500  0.167  0.234-
  85  0.833  0.500  0.234-
  86  0.833  0.833  0.234-
  87  0.833  0.167  0.234-
  88  0.167  0.500  0.234-
  89  0.167  0.833  0.234-
  90  0.167  0.167  0.234-
  91  0.611  0.611  0.312-
  92  0.611  0.944  0.312-
  93  0.611  0.278  0.312-
  94  0.944  0.611  0.312-
  95  0.944  0.944  0.312-
  96  0.944  0.278  0.312-
  97  0.278  0.611  0.312-
  98  0.278  0.944  0.312-
  99  0.278  0.278  0.312-
 100  0.722  0.722  0.390-
 101  0.722  0.056  0.390-
 102  0.722  0.389  0.390-
 103  0.056  0.722  0.390-
 104  0.056  0.056  0.390-
 105  0.056  0.389  0.390-
 106  0.389  0.722  0.390-
 107  0.389  0.056  0.390-
 108  0.389  0.389  0.390-
 109  0.833  0.833  0.466-
 110  0.833  0.167  0.466-
 111  0.833  0.500  0.466-
 112  0.167  0.833  0.466-
 113  0.167  0.167  0.466-
 114  0.167  0.500  0.466-
 115  0.500  0.833  0.466-
 116  0.500  0.167  0.466-
 117  0.500  0.500  0.466-
 118  0.944  0.944  0.545-
 119  0.944  0.278  0.545-
 120  0.944  0.611  0.545-
 121  0.278  0.944  0.545-
 122  0.278  0.278  0.545-
 123  0.278  0.611  0.545-
 124  0.611  0.944  0.545-
 125  0.611  0.278  0.545-
 126  0.611  0.611  0.545-
 127  0.278  0.444  0.079-
 128  0.278  0.778  0.079-
 129  0.278  0.111  0.079-
 130  0.611  0.444  0.079-
 131  0.611  0.778  0.079-
 132  0.611  0.111  0.079-
 133  0.944  0.444  0.079-
 134  0.944  0.778  0.079-
 135  0.944  0.111  0.079-
 136  0.389  0.556  0.157-
 137  0.389  0.889  0.157-
 138  0.389  0.222  0.157-
 139  0.722  0.556  0.157-
 140  0.722  0.889  0.157-
 141  0.722  0.222  0.157-
 142  0.056  0.556  0.157-
 143  0.056  0.889  0.157-
 144  0.056  0.222  0.157-
 145  0.500  0.667  0.234-
 146  0.500  0.000  0.234-
 147  0.500  0.333  0.234-
 148  0.833  0.667  0.234-
 149  0.833  0.000  0.234-
 150  0.833  0.333  0.234-
 151  0.167  0.667  0.234-
 152  0.167  0.000  0.234-
 153  0.167  0.333  0.234-
 154  0.611  0.778  0.312-
 155  0.611  0.111  0.312-
 156  0.611  0.444  0.312-
 157  0.944  0.778  0.312-
 158  0.944  0.111  0.312-
 159  0.944  0.444  0.312-
 160  0.278  0.778  0.312-
 161  0.278  0.111  0.312-
 162  0.278  0.444  0.312-
 163  0.722  0.889  0.390-
 164  0.722  0.222  0.390-
 165  0.722  0.556  0.390-
 166  0.056  0.889  0.390-
 167  0.056  0.222  0.390-
 168  0.056  0.556  0.390-
 169  0.389  0.889  0.390-
 170  0.389  0.222  0.390-
 171  0.389  0.556  0.390-
 172  0.833  0.000  0.466-
 173  0.833  0.333  0.466-
 174  0.833  0.667  0.466-
 175  0.167  0.000  0.466-
 176  0.167  0.333  0.466-
 177  0.167  0.667  0.466-
 178  0.500  0.000  0.466-
 179  0.500  0.333  0.466-
 180  0.500  0.667  0.466-
 181  0.944  0.111  0.545-
 182  0.944  0.444  0.545-
 183  0.944  0.778  0.545-
 184  0.278  0.111  0.545-
 185  0.278  0.444  0.545-
 186  0.278  0.778  0.545-
 187  0.611  0.111  0.545-
 188  0.611  0.444  0.545-
 189  0.611  0.778  0.545-
 190  0.444  0.278  0.079-
 191  0.444  0.611  0.079-
 192  0.444  0.944  0.079-
 193  0.778  0.278  0.079-
 194  0.778  0.611  0.079-
 195  0.778  0.944  0.079-
 196  0.111  0.278  0.079-
 197  0.111  0.611  0.079-
 198  0.111  0.944  0.079-
 199  0.556  0.389  0.157-
 200  0.556  0.722  0.157-
 201  0.556  0.056  0.157-
 202  0.889  0.389  0.157-
 203  0.889  0.722  0.157-
 204  0.889  0.056  0.157-
 205  0.222  0.389  0.157-
 206  0.222  0.722  0.157-
 207  0.222  0.056  0.157-
 208  0.667  0.500  0.234-
 209  0.667  0.833  0.234-
 210  0.667  0.167  0.234-
 211  1.000  0.500  0.234-
 212  1.000  0.833  0.234-
 213  1.000  0.167  0.234-
 214  0.333  0.500  0.234-
 215  0.333  0.833  0.234-
 216  0.333  0.167  0.234-
 217  0.778  0.611  0.312-
 218  0.778  0.944  0.312-
 219  0.778  0.278  0.312-
 220  0.111  0.611  0.312-
 221  0.111  0.944  0.312-
 222  0.111  0.278  0.312-
 223  0.444  0.611  0.312-
 224  0.444  0.944  0.312-
 225  0.444  0.278  0.312-
 226  0.889  0.722  0.390-
 227  0.889  0.056  0.390-
 228  0.889  0.389  0.390-
 229  0.222  0.722  0.390-
 230  0.222  0.056  0.390-
 231  0.222  0.389  0.390-
 232  0.556  0.722  0.390-
 233  0.556  0.056  0.390-
 234  0.556  0.389  0.390-
 235  1.000  0.833  0.466-
 236  1.000  0.167  0.466-
 237  1.000  0.500  0.466-
 238  0.333  0.833  0.466-
 239  0.333  0.167  0.466-
 240  0.333  0.500  0.466-
 241  0.667  0.833  0.466-
 242  0.667  0.167  0.466-
 243  0.667  0.500  0.466-
 244  0.111  0.944  0.545-
 245  0.111  0.278  0.545-
 246  0.111  0.611  0.545-
 247  0.444  0.944  0.545-
 248  0.444  0.278  0.545-
 249  0.444  0.611  0.545-
 250  0.778  0.944  0.545-
 251  0.778  0.278  0.545-
 252  0.778  0.611  0.545-
 253  0.343  0.481  0.635- 254 1.10
 254  0.380  0.407  0.635- 253 1.10
 
  LATTYP: Found a hexagonal cell.
 ALAT       =    17.1805734625
 C/A-ratio  =     1.7461582447
  
  Lattice vectors:
  
 A1 = (   0.0000000000,  -8.5902867312,  14.8788130701)
 A2 = (   0.0000000000,  17.1805734625,   0.0000000000)
 A3 = ( -30.0000000000,   0.0000000000,   0.0000000000)


Analysis of symmetry for initial positions (statically):
=====================================================================
 Subroutine PRICEL returns:
 Original cell was already a primitive cell.
 

 Routine SETGRP: Setting up the symmetry group for a 
 hexagonal supercell.


 Subroutine GETGRP returns: Found  2 space group operations
 (whereof  1 operations were pure point group operations)
 out of a pool of 24 trial point group operations.


The static configuration has the point symmetry C_1 .
 The point group associated with its full space group is C_1h.


Analysis of symmetry for dynamics (positions and initial velocities):
=====================================================================
 Subroutine PRICEL returns:
 Original cell was already a primitive cell.
 

 Routine SETGRP: Setting up the symmetry group for a 
 hexagonal supercell.


 Subroutine GETGRP returns: Found  2 space group operations
 (whereof  1 operations were pure point group operations)
 out of a pool of 24 trial point group operations.


The dynamic configuration has the point symmetry C_1 .
 The point group associated with its full space group is C_1h.


 Subroutine INISYM returns: Found  2 space group operations
 (whereof  1 operations are pure point group operations),
 and found     1 'primitive' translations

 
 
 KPOINTS: Automatic generation                    

Automatic generation of k-mesh.
Space group operators:
 irot       det(A)        alpha          n_x          n_y          n_z        tau_x        tau_y        tau_z
    1     1.000000     0.000000     1.000000     0.000000     0.000000     0.000000     0.000000     0.000000
    2    -1.000000   180.000000     0.000000     1.000000     0.000000    -0.833333     0.000000     0.000000
 
 Subroutine IBZKPT returns following result:
 ===========================================
 
 Found      3 irreducible k-points:
 
 Following reciprocal coordinates:
            Coordinates               Weight
  0.000000  0.000000  0.000000      1.000000
  0.500000  0.000000  0.000000      2.000000
  0.000000  0.500000  0.000000      1.000000
 
 Following cartesian coordinates:
            Coordinates               Weight
  0.000000  0.000000  0.000000      1.000000
  0.000000 -0.029103  0.016802      2.000000
  0.000000  0.000000 -0.033605      1.000000
 


--------------------------------------------------------------------------------------------------------




 Dimension of arrays:
   k-points           NKPTS =      3   k-points in BZ     NKDIM =      3   number of bands    NBANDS=    516
   number of dos      NEDOS =    301   number of ions     NIONS =    254
   non local maximal  LDIM  =      6   non local SUM 2l+1 LMDIM =     18
   total plane-waves  NPLWV = 819200
   max r-space proj   IRMAX =   4449   max aug-charges    IRDMAX=   4357
   dimension x,y,z NGX =    80 NGY =   80 NGZ =  128
   dimension x,y,z NGXF=   160 NGYF=  160 NGZF=  256
   support grid    NGXF=   160 NGYF=  160 NGZF=  256
   ions per type =             252   2
   NGX,Y,Z   is equivalent  to a cutoff of   7.74,  7.74,  7.09 a.u.
   NGXF,Y,Z  is equivalent  to a cutoff of  15.48, 15.48, 14.19 a.u.

 SYSTEM =  NiAl                                    
 POSCAR =  New structure                           

 Startparameter for this run:
   NWRITE =      2    write-flag & timer
   PREC   = normal    normal or accurate (medium, high low for compatibility)
   ISTART =      0    job   : 0-new  1-cont  2-samecut
   ICHARG =      2    charge: 1-file 2-atom 10-const
   ISPIN  =      1    spin polarized calculation?
   LNONCOLLINEAR =      F non collinear calculations
   LSORBIT =      F    spin-orbit coupling
   INIWAV =      1    electr: 0-lowe 1-rand  2-diag
   LASPH  =      F    aspherical Exc in radial PAW
   METAGGA=      F    non-selfconsistent MetaGGA calc.

 Electronic Relaxation 1
   ENCUT  =  300.0 eV  22.05 Ry    4.70 a.u.  24.26 24.26 42.37*2*pi/ulx,y,z
   ENINI  =  300.0     initial cutoff
   ENAUG  =  627.1 eV  augmentation charge cutoff
   NELM   =     60;   NELMIN=  6; NELMDL= -5     # of ELM steps 
   EDIFF  = 0.5E-05   stopping-criterion for ELM
   LREAL  =      T    real-space projection
   NLSPLINE    = F    spline interpolate recip. space projectors
   LCOMPAT=      F    compatible to vasp.4.4
   GGA_COMPAT  = T    GGA compatible to vasp.4.4-vasp.4.6
   LMAXPAW     = -100 max onsite density
   LMAXMIX     =    2 max onsite mixed and CHGCAR
   VOSKOWN=      0    Vosko Wilk Nusair interpolation
   ROPT   =   -0.00050  -0.00050
 Ionic relaxation
   EDIFFG = 0.5E-04   stopping-criterion for IOM
   NSW    =      0    number of steps for IOM
   NBLOCK =      1;   KBLOCK =      1    inner block; outer block 
   IBRION =     -1    ionic relax: 0-MD 1-quasi-New 2-CG
   NFREE  =      0    steps in history (QN), initial steepest desc. (CG)
   ISIF   =      0    stress and relaxation
   IWAVPR =     10    prediction:  0-non 1-charg 2-wave 3-comb
   ISYM   =      2    0-nonsym 1-usesym 2-fastsym
   LCORR  =      T    Harris-Foulkes like correction to forces

   POTIM  = 0.5000    time-step for ionic-motion
   TEIN   =    0.0    initial temperature
   TEBEG  =    0.0;   TEEND  =   0.0 temperature during run
   SMASS  =  -3.00    Nose mass-parameter (am)
   estimated Nose-frequenzy (Omega)   =  0.10E-29 period in steps =****** mass=  -0.675E-26a.u.
   SCALEE = 1.0000    scale energy and forces
   NPACO  =    256;   APACO  = 16.0  distance and # of slots for P.C.
   PSTRESS=    0.0 pullay stress

  Mass of Ions in am
   POMASS =  26.98 14.00
  Ionic Valenz
   ZVAL   =   3.00  5.00
  Atomic Wigner-Seitz radii
   RWIGS  =  -1.00 -1.00
  virtual crystal weights 
   VCA    =   1.00  1.00
   NELECT =     766.0000    total number of electrons
   NUPDOWN=      -1.0000    fix difference up-down

 DOS related values:
   EMIN   =  10.00;   EMAX   =-10.00  energy-range for DOS
   EFERMI =   0.00
   ISMEAR =     0;   SIGMA  =   0.05  broadening in eV -4-tet -1-fermi 0-gaus

 Electronic relaxation 2 (details)
   IALGO  =     38    algorithm
   LDIAG  =      T    sub-space diagonalisation (order eigenvalues)
   LSUBROT=      F    optimize rotation matrix (better conditioning)
   TURBO    =      0    0=normal 1=particle mesh
   IRESTART =      0    0=no restart 2=restart with 2 vectors
   NREBOOT  =      0    no. of reboots
   NMIN     =      0    reboot dimension
   EREF     =   0.00    reference energy to select bands
   IMIX   =      4    mixing-type and parameters
     AMIX     =   0.40;   BMIX     =  1.00
     AMIX_MAG =   1.60;   BMIX_MAG =  1.00
     AMIN     =   0.10
     WC   =   100.;   INIMIX=   1;  MIXPRE=   1;  MAXMIX= -45

 Intra band minimization:
   WEIMIN = 0.0000     energy-eigenvalue tresh-hold
   EBREAK =  0.24E-08  absolut break condition
   DEPER  =   0.30     relativ break condition  

   TIME   =   0.40     timestep for ELM

  volume/ion in A,a.u.               =      30.19       203.75
  Fermi-wavevector in a.u.,A,eV,Ry     =   0.759583  1.435404  7.850108  0.576967
  Thomas-Fermi vector in A             =   1.858410
 
 Write flags
   LWAVE        =      F    write WAVECAR
   LDOWNSAMPLE  =      F    k-point downsampling of WAVECAR
   LCHARG       =      F    write CHGCAR
   LVTOT        =      F    write LOCPOT, total local potential
   LVHAR        =      F    write LOCPOT, Hartree potential only
   LELF         =      F    write electronic localiz. function (ELF)
   LORBIT       =      0    0 simple, 1 ext, 2 COOP (PROOUT), +10 PAW based schemes


 Dipole corrections
   LMONO  =      F    monopole corrections only (constant potential shift)
   LDIPOL =      F    correct potential (dipole corrections)
   IDIPOL =      0    1-x, 2-y, 3-z, 4-all directions 
   EPSILON=  1.0000000 bulk dielectric constant

 Exchange correlation treatment:
   GGA     =    --    GGA type
   LEXCH   =     8    internal setting for exchange type
   VOSKOWN=      0    Vosko Wilk Nusair interpolation
   LHFCALC =     F    Hartree Fock is set to
   LHFONE  =     F    Hartree Fock one center treatment
   AEXX    =    0.0000 exact exchange contribution

 Linear response parameters
   LEPSILON=     F    determine dielectric tensor
   LRPA    =     F    only Hartree local field effects (RPA)
   LNABLA  =     F    use nabla operator in PAW spheres
   LVEL    =     F    velocity operator in full k-point grid
   LINTERFAST=   F  fast interpolation
   KINTER  =     0    interpolate to denser k-point grid
   CSHIFT  =0.1000    complex shift for real part using Kramers Kronig
   OMEGAMAX=  -1.0    maximum frequency
   DEG_THRESHOLD= 0.2000000E-02 threshold for treating states as degnerate
   RTIME   =   -0.100 relaxation time in fs
  (WPLASMAI=    0.000 imaginary part of plasma frequency in eV, 0.658/RTIME)
   DFIELD  = 0.0000000 0.0000000 0.0000000 field for delta impulse in time
 
 Orbital magnetization related:
   ORBITALMAG=     F  switch on orbital magnetization
   LCHIMAG   =     F  perturbation theory with respect to B field
   DQ        =  0.001000  dq finite difference perturbation B field
   LLRAUG    =     F  two centre corrections for induced B field



--------------------------------------------------------------------------------------------------------


 Static calculation
 charge density and potential will be updated during run
 non-spin polarized calculation
 Variant of blocked Davidson
 Davidson routine will perform the subspace rotation
 perform sub-space diagonalisation
    after iterative eigenvector-optimisation
 modified Broyden-mixing scheme, WC =      100.0
 initial mixing is a Kerker type mixing with AMIX =  0.4000 and BMIX =      1.0000
 Hartree-type preconditioning will be used
 using additional bands          133
 real space projection scheme for non local part
 use partial core corrections
 calculate Harris-corrections to forces 
   (improved forces if not selfconsistent)
 use gradient corrections 
 use of overlap-Matrix (Vanderbilt PP)
 Gauss-broadening in eV      SIGMA  =   0.05


--------------------------------------------------------------------------------------------------------


  energy-cutoff  :      300.00
  volume of cell :     7668.80
      direct lattice vectors                 reciprocal lattice vectors
     0.000000000-17.180573462  0.000000000     0.000000000 -0.058205275  0.033604831
     0.000000000 -8.590286731-14.878813070     0.000000000  0.000000000 -0.067209662
    30.000000000  0.000000000  0.000000000     0.033333333  0.000000000  0.000000000

  length of vectors
    17.180573462 17.180573462 30.000000000     0.067209662  0.067209662  0.033333333


 
 k-points in units of 2pi/SCALE and weight: Automatic generation                    
   0.00000000  0.00000000  0.00000000       0.250
   0.00000000 -0.02910264  0.01680242       0.500
   0.00000000  0.00000000 -0.03360483       0.250
 
 k-points in reciprocal lattice and weights: Automatic generation                    
   0.00000000  0.00000000  0.00000000       0.250
   0.50000000  0.00000000  0.00000000       0.500
   0.00000000  0.50000000  0.00000000       0.250
 
 position of ions in fractional coordinates (direct lattice) 
   0.44444456  0.44444473  0.07873467
   0.44444419  0.77777777  0.07873467
   0.44444468  0.11111101  0.07873467
   0.77777744  0.44444473  0.07873467
   0.77777765  0.77777777  0.07873467
   0.77777756  0.11111101  0.07873467
   0.11111110  0.44444473  0.07873467
   0.11111131  0.77777777  0.07873467
   0.11111122  0.11111101  0.07873467
   0.55555520  0.55555574  0.15702600
   0.55555541  0.88888878  0.15702600
   0.55555591  0.22222203  0.15702600
   0.88888866  0.55555574  0.15702600
   0.88888887  0.88888878  0.15702600
   0.88888878  0.22222203  0.15702600
   0.22222232  0.55555574  0.15702600
   0.22222253  0.88888878  0.15702600
   0.22222245  0.22222203  0.15702600
   0.66666642  0.66666675  0.23375733
   0.66666692  0.00000000  0.23375733
   0.66666655  0.33333304  0.23375733
   0.00000008  0.66666675  0.23375733
   0.00000000  0.00000000  0.23375733
   0.00000021  0.33333304  0.23375733
   0.33333354  0.66666675  0.23375733
   0.33333346  0.00000000  0.23375733
   0.33333367  0.33333304  0.23375733
   0.77777765  0.77777777  0.31173067
   0.77777756  0.11111101  0.31173067
   0.77777744  0.44444473  0.31173067
   0.11111131  0.77777777  0.31173067
   0.11111122  0.11111101  0.31173067
   0.11111110  0.44444473  0.31173067
   0.44444419  0.77777777  0.31173067
   0.44444468  0.11111101  0.31173067
   0.44444456  0.44444473  0.31173067
   0.88888887  0.88888878  0.38970400
   0.88888878  0.22222203  0.38970400
   0.88888866  0.55555574  0.38970400
   0.22222253  0.88888878  0.38970400
   0.22222245  0.22222203  0.38970400
   0.22222232  0.55555574  0.38970400
   0.55555541  0.88888878  0.38970400
   0.55555591  0.22222203  0.38970400
   0.55555520  0.55555574  0.38970400
   0.00000000  0.00000000  0.46643533
   0.00000021  0.33333304  0.46643533
   0.00000008  0.66666675  0.46643533
   0.33333346  0.00000000  0.46643533
   0.33333367  0.33333304  0.46643533
   0.33333354  0.66666675  0.46643533
   0.66666692  0.00000000  0.46643533
   0.66666655  0.33333304  0.46643533
   0.66666642  0.66666675  0.46643533
   0.11111122  0.11111101  0.54472667
   0.11111110  0.44444473  0.54472667
   0.11111131  0.77777777  0.54472667
   0.44444468  0.11111101  0.54472667
   0.44444456  0.44444473  0.54472667
   0.44444419  0.77777777  0.54472667
   0.77777756  0.11111101  0.54472667
   0.77777744  0.44444473  0.54472667
   0.77777765  0.77777777  0.54472667
   0.27777777  0.27777753  0.07873467
   0.27777764  0.61111125  0.07873467
   0.27777785  0.94444429  0.07873467
   0.61111123  0.27777753  0.07873467
   0.61111110  0.61111125  0.07873467
   0.61111131  0.94444429  0.07873467
   0.94444469  0.27777753  0.07873467
   0.94444456  0.61111125  0.07873467
   0.94444477  0.94444429  0.07873467
   0.38888865  0.38888922  0.15702600
   0.38888886  0.72222226  0.15702600
   0.38888878  0.05555551  0.15702600
   0.72222211  0.38888922  0.15702600
   0.72222232  0.72222226  0.15702600
   0.72222224  0.05555551  0.15702600
   0.05555519  0.38888922  0.15702600
   0.05555540  0.72222226  0.15702600
   0.05555532  0.05555551  0.15702600
   0.49999988  0.50000023  0.23375733
   0.50000009  0.83333327  0.23375733
   0.50000000  0.16666652  0.23375733
   0.83333334  0.50000023  0.23375733
   0.83333355  0.83333327  0.23375733
   0.83333346  0.16666652  0.23375733
   0.16666642  0.50000023  0.23375733
   0.16666663  0.83333327  0.23375733
   0.16666654  0.16666652  0.23375733
   0.61111110  0.61111125  0.31173067
   0.61111131  0.94444429  0.31173067
   0.61111123  0.27777753  0.31173067
   0.94444456  0.61111125  0.31173067
   0.94444477  0.94444429  0.31173067
   0.94444469  0.27777753  0.31173067
   0.27777764  0.61111125  0.31173067
   0.27777785  0.94444429  0.31173067
   0.27777777  0.27777753  0.31173067
   0.72222232  0.72222226  0.38970400
   0.72222224  0.05555551  0.38970400
   0.72222211  0.38888922  0.38970400
   0.05555540  0.72222226  0.38970400
   0.05555532  0.05555551  0.38970400
   0.05555519  0.38888922  0.38970400
   0.38888886  0.72222226  0.38970400
   0.38888878  0.05555551  0.38970400
   0.38888865  0.38888922  0.38970400
   0.83333355  0.83333327  0.46643533
   0.83333346  0.16666652  0.46643533
   0.83333334  0.50000023  0.46643533
   0.16666663  0.83333327  0.46643533
   0.16666654  0.16666652  0.46643533
   0.16666642  0.50000023  0.46643533
   0.50000009  0.83333327  0.46643533
   0.50000000  0.16666652  0.46643533
   0.49999988  0.50000023  0.46643533
   0.94444477  0.94444429  0.54472667
   0.94444469  0.27777753  0.54472667
   0.94444456  0.61111125  0.54472667
   0.27777785  0.94444429  0.54472667
   0.27777777  0.27777753  0.54472667
   0.27777764  0.61111125  0.54472667
   0.61111131  0.94444429  0.54472667
   0.61111123  0.27777753  0.54472667
   0.61111110  0.61111125  0.54472667
   0.27777783  0.44444473  0.07873467
   0.27777804  0.77777777  0.07873467
   0.27777795  0.11111101  0.07873467
   0.61111071  0.44444473  0.07873467
   0.61111092  0.77777777  0.07873467
   0.61111141  0.11111101  0.07873467
   0.94444417  0.44444473  0.07873467
   0.94444438  0.77777777  0.07873467
   0.94444429  0.11111101  0.07873467
   0.38888905  0.55555574  0.15702600
   0.38888868  0.88888878  0.15702600
   0.38888918  0.22222203  0.15702600
   0.72222193  0.55555574  0.15702600
   0.72222214  0.88888878  0.15702600
   0.72222205  0.22222203  0.15702600
   0.05555559  0.55555574  0.15702600
   0.05555580  0.88888878  0.15702600
   0.05555572  0.22222203  0.15702600
   0.49999969  0.66666675  0.23375733
   0.50000019  0.00000000  0.23375733
   0.50000040  0.33333304  0.23375733
   0.83333315  0.66666675  0.23375733
   0.83333307  0.00000000  0.23375733
   0.83333328  0.33333304  0.23375733
   0.16666681  0.66666675  0.23375733
   0.16666673  0.00000000  0.23375733
   0.16666694  0.33333304  0.23375733
   0.61111092  0.77777777  0.31173067
   0.61111141  0.11111101  0.31173067
   0.61111071  0.44444473  0.31173067
   0.94444438  0.77777777  0.31173067
   0.94444429  0.11111101  0.31173067
   0.94444417  0.44444473  0.31173067
   0.27777804  0.77777777  0.31173067
   0.27777795  0.11111101  0.31173067
   0.27777783  0.44444473  0.31173067
   0.72222214  0.88888878  0.38970400
   0.72222205  0.22222203  0.38970400
   0.72222193  0.55555574  0.38970400
   0.05555580  0.88888878  0.38970400
   0.05555572  0.22222203  0.38970400
   0.05555559  0.55555574  0.38970400
   0.38888868  0.88888878  0.38970400
   0.38888918  0.22222203  0.38970400
   0.38888905  0.55555574  0.38970400
   0.83333307  0.00000000  0.46643533
   0.83333328  0.33333304  0.46643533
   0.83333315  0.66666675  0.46643533
   0.16666673  0.00000000  0.46643533
   0.16666694  0.33333304  0.46643533
   0.16666681  0.66666675  0.46643533
   0.50000019  0.00000000  0.46643533
   0.50000040  0.33333304  0.46643533
   0.49999969  0.66666675  0.46643533
   0.94444429  0.11111101  0.54472667
   0.94444417  0.44444473  0.54472667
   0.94444438  0.77777777  0.54472667
   0.27777795  0.11111101  0.54472667
   0.27777783  0.44444473  0.54472667
   0.27777804  0.77777777  0.54472667
   0.61111141  0.11111101  0.54472667
   0.61111071  0.44444473  0.54472667
   0.61111092  0.77777777  0.54472667
   0.44444450  0.27777753  0.07873467
   0.44444437  0.61111125  0.07873467
   0.44444458  0.94444429  0.07873467
   0.77777796  0.27777753  0.07873467
   0.77777783  0.61111125  0.07873467
   0.77777804  0.94444429  0.07873467
   0.11111104  0.27777753  0.07873467
   0.11111091  0.61111125  0.07873467
   0.11111112  0.94444429  0.07873467
   0.55555538  0.38888922  0.15702600
   0.55555559  0.72222226  0.15702600
   0.55555551  0.05555551  0.15702600
   0.88888884  0.38888922  0.15702600
   0.88888905  0.72222226  0.15702600
   0.88888897  0.05555551  0.15702600
   0.22222192  0.38888922  0.15702600
   0.22222213  0.72222226  0.15702600
   0.22222205  0.05555551  0.15702600
   0.66666661  0.50000023  0.23375733
   0.66666682  0.83333327  0.23375733
   0.66666673  0.16666652  0.23375733
   0.99999969  0.50000023  0.23375733
   0.99999990  0.83333327  0.23375733
   0.99999981  0.16666652  0.23375733
   0.33333315  0.50000023  0.23375733
   0.33333336  0.83333327  0.23375733
   0.33333327  0.16666652  0.23375733
   0.77777783  0.61111125  0.31173067
   0.77777804  0.94444429  0.31173067
   0.77777796  0.27777753  0.31173067
   0.11111091  0.61111125  0.31173067
   0.11111112  0.94444429  0.31173067
   0.11111104  0.27777753  0.31173067
   0.44444437  0.61111125  0.31173067
   0.44444458  0.94444429  0.31173067
   0.44444450  0.27777753  0.31173067
   0.88888905  0.72222226  0.38970400
   0.88888897  0.05555551  0.38970400
   0.88888884  0.38888922  0.38970400
   0.22222213  0.72222226  0.38970400
   0.22222205  0.05555551  0.38970400
   0.22222192  0.38888922  0.38970400
   0.55555559  0.72222226  0.38970400
   0.55555551  0.05555551  0.38970400
   0.55555538  0.38888922  0.38970400
   0.99999990  0.83333327  0.46643533
   0.99999981  0.16666652  0.46643533
   0.99999969  0.50000023  0.46643533
   0.33333336  0.83333327  0.46643533
   0.33333327  0.16666652  0.46643533
   0.33333315  0.50000023  0.46643533
   0.66666682  0.83333327  0.46643533
   0.66666673  0.16666652  0.46643533
   0.66666661  0.50000023  0.46643533
   0.11111112  0.94444429  0.54472667
   0.11111104  0.27777753  0.54472667
   0.11111091  0.61111125  0.54472667
   0.44444458  0.94444429  0.54472667
   0.44444450  0.27777753  0.54472667
   0.44444437  0.61111125  0.54472667
   0.77777804  0.94444429  0.54472667
   0.77777796  0.27777753  0.54472667
   0.77777783  0.61111125  0.54472667
   0.34272267  0.48122118  0.63466667
   0.37958737  0.40749218  0.63466667
 
 position of ions in cartesian coordinates  (Angst):
   2.36204000-11.45372000 -6.61281000
   2.36204000-14.31714000-11.57241000
   2.36204000 -8.59029000 -1.65320000
   2.36204000-17.18057000 -6.61281000
   2.36204000-20.04400000-11.57241000
   2.36204000-14.31714000 -1.65320000
   2.36204000 -5.72686000 -6.61281000
   2.36204000 -8.59029000-11.57241000
   2.36204000 -2.86343000 -1.65320000
   4.71078000-14.31714000 -8.26601000
   4.71078000-17.18057000-13.22561000
   4.71078000-11.45372000 -3.30640000
   4.71078000-20.04400000 -8.26601000
   4.71078000-22.90743000-13.22561000
   4.71078000-17.18057000 -3.30640000
   4.71078000 -8.59029000 -8.26601000
   4.71078000-11.45372000-13.22561000
   4.71078000 -5.72686000 -3.30640000
   7.01272000-17.18057000 -9.91921000
   7.01272000-11.45372000  0.00000000
   7.01272000-14.31714000 -4.95960000
   7.01272000 -5.72686000 -9.91921000
   7.01272000  0.00000000  0.00000000
   7.01272000 -2.86343000 -4.95960000
   7.01272000-11.45372000 -9.91921000
   7.01272000 -5.72686000  0.00000000
   7.01272000 -8.59029000 -4.95960000
   9.35192000-20.04400000-11.57241000
   9.35192000-14.31714000 -1.65320000
   9.35192000-17.18057000 -6.61281000
   9.35192000 -8.59029000-11.57241000
   9.35192000 -2.86343000 -1.65320000
   9.35192000 -5.72686000 -6.61281000
   9.35192000-14.31714000-11.57241000
   9.35192000 -8.59029000 -1.65320000
   9.35192000-11.45372000 -6.61281000
  11.69112000-22.90743000-13.22561000
  11.69112000-17.18057000 -3.30640000
  11.69112000-20.04400000 -8.26601000
  11.69112000-11.45372000-13.22561000
  11.69112000 -5.72686000 -3.30640000
  11.69112000 -8.59029000 -8.26601000
  11.69112000-17.18057000-13.22561000
  11.69112000-11.45372000 -3.30640000
  11.69112000-14.31714000 -8.26601000
  13.99306000  0.00000000  0.00000000
  13.99306000 -2.86343000 -4.95960000
  13.99306000 -5.72686000 -9.91921000
  13.99306000 -5.72686000  0.00000000
  13.99306000 -8.59029000 -4.95960000
  13.99306000-11.45372000 -9.91921000
  13.99306000-11.45372000  0.00000000
  13.99306000-14.31714000 -4.95960000
  13.99306000-17.18057000 -9.91921000
  16.34180000 -2.86343000 -1.65320000
  16.34180000 -5.72686000 -6.61281000
  16.34180000 -8.59029000-11.57241000
  16.34180000 -8.59029000 -1.65320000
  16.34180000-11.45372000 -6.61281000
  16.34180000-14.31714000-11.57241000
  16.34180000-14.31714000 -1.65320000
  16.34180000-17.18057000 -6.61281000
  16.34180000-20.04400000-11.57241000
   2.36204000 -7.15857000 -4.13300000
   2.36204000-10.02200000 -9.09261000
   2.36204000-12.88543000-14.05221000
   2.36204000-12.88543000 -4.13300000
   2.36204000-15.74886000 -9.09261000
   2.36204000-18.61229000-14.05221000
   2.36204000-18.61229000 -4.13300000
   2.36204000-21.47572000 -9.09261000
   2.36204000-24.33915000-14.05221000
   4.71078000-10.02200000 -5.78621000
   4.71078000-12.88543000-10.74581000
   4.71078000 -7.15857000 -0.82660000
   4.71078000-15.74886000 -5.78621000
   4.71078000-18.61229000-10.74581000
   4.71078000-12.88543000 -0.82660000
   4.71078000 -4.29514000 -5.78621000
   4.71078000 -7.15857000-10.74581000
   4.71078000 -1.43171000 -0.82660000
   7.01272000-12.88543000 -7.43941000
   7.01272000-15.74886000-12.39901000
   7.01272000-10.02200000 -2.47980000
   7.01272000-18.61229000 -7.43941000
   7.01272000-21.47572000-12.39901000
   7.01272000-15.74886000 -2.47980000
   7.01272000 -7.15857000 -7.43941000
   7.01272000-10.02200000-12.39901000
   7.01272000 -4.29514000 -2.47980000
   9.35192000-15.74886000 -9.09261000
   9.35192000-18.61229000-14.05221000
   9.35192000-12.88543000 -4.13300000
   9.35192000-21.47572000 -9.09261000
   9.35192000-24.33915000-14.05221000
   9.35192000-18.61229000 -4.13300000
   9.35192000-10.02200000 -9.09261000
   9.35192000-12.88543000-14.05221000
   9.35192000 -7.15857000 -4.13300000
  11.69112000-18.61229000-10.74581000
  11.69112000-12.88543000 -0.82660000
  11.69112000-15.74886000 -5.78621000
  11.69112000 -7.15857000-10.74581000
  11.69112000 -1.43171000 -0.82660000
  11.69112000 -4.29514000 -5.78621000
  11.69112000-12.88543000-10.74581000
  11.69112000 -7.15857000 -0.82660000
  11.69112000-10.02200000 -5.78621000
  13.99306000-21.47572000-12.39901000
  13.99306000-15.74886000 -2.47980000
  13.99306000-18.61229000 -7.43941000
  13.99306000-10.02200000-12.39901000
  13.99306000 -4.29514000 -2.47980000
  13.99306000 -7.15857000 -7.43941000
  13.99306000-15.74886000-12.39901000
  13.99306000-10.02200000 -2.47980000
  13.99306000-12.88543000 -7.43941000
  16.34180000-24.33915000-14.05221000
  16.34180000-18.61229000 -4.13300000
  16.34180000-21.47572000 -9.09261000
  16.34180000-12.88543000-14.05221000
  16.34180000 -7.15857000 -4.13300000
  16.34180000-10.02200000 -9.09261000
  16.34180000-18.61229000-14.05221000
  16.34180000-12.88543000 -4.13300000
  16.34180000-15.74886000 -9.09261000
   2.36204000 -8.59029000 -6.61281000
   2.36204000-11.45372000-11.57241000
   2.36204000 -5.72686000 -1.65320000
   2.36204000-14.31714000 -6.61281000
   2.36204000-17.18057000-11.57241000
   2.36204000-11.45372000 -1.65320000
   2.36204000-20.04400000 -6.61281000
   2.36204000-22.90743000-11.57241000
   2.36204000-17.18057000 -1.65320000
   4.71078000-11.45372000 -8.26601000
   4.71078000-14.31714000-13.22561000
   4.71078000 -8.59029000 -3.30640000
   4.71078000-17.18057000 -8.26601000
   4.71078000-20.04400000-13.22561000
   4.71078000-14.31714000 -3.30640000
   4.71078000 -5.72686000 -8.26601000
   4.71078000 -8.59029000-13.22561000
   4.71078000 -2.86343000 -3.30640000
   7.01272000-14.31714000 -9.91921000
   7.01272000 -8.59029000  0.00000000
   7.01272000-11.45372000 -4.95960000
   7.01272000-20.04400000 -9.91921000
   7.01272000-14.31714000  0.00000000
   7.01272000-17.18057000 -4.95960000
   7.01272000 -8.59029000 -9.91921000
   7.01272000 -2.86343000  0.00000000
   7.01272000 -5.72686000 -4.95960000
   9.35192000-17.18057000-11.57241000
   9.35192000-11.45372000 -1.65320000
   9.35192000-14.31714000 -6.61281000
   9.35192000-22.90743000-11.57241000
   9.35192000-17.18057000 -1.65320000
   9.35192000-20.04400000 -6.61281000
   9.35192000-11.45372000-11.57241000
   9.35192000 -5.72686000 -1.65320000
   9.35192000 -8.59029000 -6.61281000
  11.69112000-20.04400000-13.22561000
  11.69112000-14.31714000 -3.30640000
  11.69112000-17.18057000 -8.26601000
  11.69112000 -8.59029000-13.22561000
  11.69112000 -2.86343000 -3.30640000
  11.69112000 -5.72686000 -8.26601000
  11.69112000-14.31714000-13.22561000
  11.69112000 -8.59029000 -3.30640000
  11.69112000-11.45372000 -8.26601000
  13.99306000-14.31714000  0.00000000
  13.99306000-17.18057000 -4.95960000
  13.99306000-20.04400000 -9.91921000
  13.99306000 -2.86343000  0.00000000
  13.99306000 -5.72686000 -4.95960000
  13.99306000 -8.59029000 -9.91921000
  13.99306000 -8.59029000  0.00000000
  13.99306000-11.45372000 -4.95960000
  13.99306000-14.31714000 -9.91921000
  16.34180000-17.18057000 -1.65320000
  16.34180000-20.04400000 -6.61281000
  16.34180000-22.90743000-11.57241000
  16.34180000 -5.72686000 -1.65320000
  16.34180000 -8.59029000 -6.61281000
  16.34180000-11.45372000-11.57241000
  16.34180000-11.45372000 -1.65320000
  16.34180000-14.31714000 -6.61281000
  16.34180000-17.18057000-11.57241000
   2.36204000-10.02200000 -4.13300000
   2.36204000-12.88543000 -9.09261000
   2.36204000-15.74886000-14.05221000
   2.36204000-15.74886000 -4.13300000
   2.36204000-18.61229000 -9.09261000
   2.36204000-21.47572000-14.05221000
   2.36204000 -4.29514000 -4.13300000
   2.36204000 -7.15857000 -9.09261000
   2.36204000-10.02200000-14.05221000
   4.71078000-12.88543000 -5.78621000
   4.71078000-15.74886000-10.74581000
   4.71078000-10.02200000 -0.82660000
   4.71078000-18.61229000 -5.78621000
   4.71078000-21.47572000-10.74581000
   4.71078000-15.74886000 -0.82660000
   4.71078000 -7.15857000 -5.78621000
   4.71078000-10.02200000-10.74581000
   4.71078000 -4.29514000 -0.82660000
   7.01272000-15.74886000 -7.43941000
   7.01272000-18.61229000-12.39901000
   7.01272000-12.88543000 -2.47980000
   7.01272000-21.47571346 -7.43941000
   7.01272000-24.33914346-12.39901000
   7.01272000-18.61228346 -2.47980000
   7.01272000-10.02200000 -7.43941000
   7.01272000-12.88543000-12.39901000
   7.01272000 -7.15857000 -2.47980000
   9.35192000-18.61229000 -9.09261000
   9.35192000-21.47572000-14.05221000
   9.35192000-15.74886000 -4.13300000
   9.35192000 -7.15857000 -9.09261000
   9.35192000-10.02200000-14.05221000
   9.35192000 -4.29514000 -4.13300000
   9.35192000-12.88543000 -9.09261000
   9.35192000-15.74886000-14.05221000
   9.35192000-10.02200000 -4.13300000
  11.69112000-21.47572000-10.74581000
  11.69112000-15.74886000 -0.82660000
  11.69112000-18.61229000 -5.78621000
  11.69112000-10.02200000-10.74581000
  11.69112000 -4.29514000 -0.82660000
  11.69112000 -7.15857000 -5.78621000
  11.69112000-15.74886000-10.74581000
  11.69112000-10.02200000 -0.82660000
  11.69112000-12.88543000 -5.78621000
  13.99306000-24.33914346-12.39901000
  13.99306000-18.61228346 -2.47980000
  13.99306000-21.47571346 -7.43941000
  13.99306000-12.88543000-12.39901000
  13.99306000 -7.15857000 -2.47980000
  13.99306000-10.02200000 -7.43941000
  13.99306000-18.61229000-12.39901000
  13.99306000-12.88543000 -2.47980000
  13.99306000-15.74886000 -7.43941000
  16.34180000-10.02200000-14.05221000
  16.34180000 -4.29514000 -4.13300000
  16.34180000 -7.15857000 -9.09261000
  16.34180000-15.74886000-14.05221000
  16.34180000-10.02200000 -4.13300000
  16.34180000-12.88543000 -9.09261000
  16.34180000-21.47572000-14.05221000
  16.34180000-15.74886000 -4.13300000
  16.34180000-18.61229000 -9.09261000
  19.04000000-10.02200000 -7.16000000
  19.04000000-10.02200333 -6.06300000
 


--------------------------------------------------------------------------------------------------------


 k-point  1 :   0.0000 0.0000 0.0000  plane waves:   90499
 k-point  2 :   0.5000 0.0000 0.0000  plane waves:   90530
 k-point  3 :   0.0000 0.5000 0.0000  plane waves:   90530

 maximum and minimum number of plane-waves per node :     90530    90499

 maximum number of plane-waves:     90530
 maximum index in each direction: 
   IXMAX=   24   IYMAX=   24   IZMAX=   42
   IXMIN=  -24   IYMIN=  -24   IZMIN=  -42


 serial   3D FFT for wavefunctions
 parallel 3D FFT for charge:
    minimum data exchange during FFTs selected (reduces bandwidth)


 total amount of memory used by VASP MPI-rank0   652124. kBytes
=======================================================================

   base      :      30000. kBytes
   nonlr-proj:      89903. kBytes
   fftplans  :      40601. kBytes
   grid      :      95147. kBytes
   one-center:       3950. kBytes
   wavefun   :     392523. kBytes
 
     INWAV:  cpu time    0.0000: real time    0.0001
 Broyden mixing: mesh for mixing (old mesh)
   NGX = 49   NGY = 49   NGZ = 85
  (NGX  =160   NGY  =160   NGZ  =256)
  gives a total of 204085 points

 initial charge density was supplied:
 charge density of overlapping atoms calculated
 number of electron     766.0000000 magnetization 
 keeping initial charge density in first step


--------------------------------------------------------------------------------------------------------


 Maximum index for non-local projection operator         4271
 Maximum index for augmentation-charges          758 (set IRDMAX)


--------------------------------------------------------------------------------------------------------


 First call to EWALD:  gamma=   0.090
 Maximum number of real-space cells 3x 3x 2
 Maximum number of reciprocal cells 2x 2x 4

    FEWALD:  cpu time    0.0356: real time    0.0356


----------------------------------------- Iteration    1(   1)  ---------------------------------------


    POTLOK:  cpu time    0.9063: real time    0.9390
    SETDIJ:  cpu time    0.1117: real time    0.1142
     EDDAV:  cpu time   19.2422: real time   22.0860
       DOS:  cpu time    0.0219: real time    0.0220
    --------------------------------------------
      LOOP:  cpu time   20.2845: real time   23.1737

 eigenvalue-minimisations  :  3144
 total energy-change (2. order) : 0.2133292E+04  (-0.1842069E+05)
 number of electron     766.0000000 magnetization 
 augmentation part      766.0000000 magnetization 

 Free energy of the ion-electron system (eV)
  ---------------------------------------------------
  alpha Z        PSCENC =       505.22967617
  Ewald energy   TEWEN  =     87595.51252453
  -Hartree energ DENC   =   -101653.19108562
  -exchange      EXHF   =         0.00000000
  -V(xc)+E(xc)   XCENC  =     -6605.33752603
  PAW double counting   =     17092.30507181    -9042.14386232
  entropy T*S    EENTRO =        -0.06786518
  eigenvalues    EBANDS =       221.78280989
  atomic energy  EATOM  =     14019.20197576
  Solvation  Ediel_sol  =         0.00000000
  ---------------------------------------------------
  free energy    TOTEN  =      2133.29171901 eV

  energy without entropy =     2133.35958418  energy(sigma->0) =     2133.32565160


--------------------------------------------------------------------------------------------------------




----------------------------------------- Iteration    1(   2)  ---------------------------------------


     EDDAV:  cpu time   24.0207: real time   27.2720
       DOS:  cpu time    0.0013: real time    0.0013
    --------------------------------------------
      LOOP:  cpu time   24.0233: real time   27.2763

 eigenvalue-minimisations  :  4224
 total energy-change (2. order) :-0.2877205E+04  (-0.2712267E+04)
 number of electron     766.0000000 magnetization 
 augmentation part      766.0000000 magnetization 

 Free energy of the ion-electron system (eV)
  ---------------------------------------------------
  alpha Z        PSCENC =       505.22967617
  Ewald energy   TEWEN  =     87595.51252453
  -Hartree energ DENC   =   -101653.19108562
  -exchange      EXHF   =         0.00000000
  -V(xc)+E(xc)   XCENC  =     -6605.33752603
  PAW double counting   =     17092.30507181    -9042.14386232
  entropy T*S    EENTRO =        -0.10887237
  eigenvalues    EBANDS =     -2655.38115787
  atomic energy  EATOM  =     14019.20197576
  Solvation  Ediel_sol  =         0.00000000
  ---------------------------------------------------
  free energy    TOTEN  =      -743.91325594 eV

  energy without entropy =     -743.80438357  energy(sigma->0) =     -743.85881976


--------------------------------------------------------------------------------------------------------




----------------------------------------- Iteration    1(   3)  ---------------------------------------


     EDDAV:  cpu time   25.9362: real time   29.4946
       DOS:  cpu time    0.0052: real time    0.0052
    --------------------------------------------
      LOOP:  cpu time   25.9428: real time   29.5028

 eigenvalue-minimisations  :  4668
 total energy-change (2. order) :-0.2117848E+03  (-0.2036532E+03)
 number of electron     766.0000000 magnetization 
 augmentation part      766.0000000 magnetization 

 Free energy of the ion-electron system (eV)
  ---------------------------------------------------
  alpha Z        PSCENC =       505.22967617
  Ewald energy   TEWEN  =     87595.51252453
  -Hartree energ DENC   =   -101653.19108562
  -exchange      EXHF   =         0.00000000
  -V(xc)+E(xc)   XCENC  =     -6605.33752603
  PAW double counting   =     17092.30507181    -9042.14386232
  entropy T*S    EENTRO =        -0.23033925
  eigenvalues    EBANDS =     -2867.04448979
  atomic energy  EATOM  =     14019.20197576
  Solvation  Ediel_sol  =         0.00000000
  ---------------------------------------------------
  free energy    TOTEN  =      -955.69805475 eV

  energy without entropy =     -955.46771549  energy(sigma->0) =     -955.58288512


--------------------------------------------------------------------------------------------------------




----------------------------------------- Iteration    1(   4)  ---------------------------------------


     EDDAV:  cpu time   24.6339: real time   27.9473
       DOS:  cpu time    0.0013: real time    0.0013
    --------------------------------------------
      LOOP:  cpu time   24.6366: real time   27.9513

 eigenvalue-minimisations  :  4332
 total energy-change (2. order) :-0.7555390E+01  (-0.7376022E+01)
 number of electron     766.0000000 magnetization 
 augmentation part      766.0000000 magnetization 

 Free energy of the ion-electron system (eV)
  ---------------------------------------------------
  alpha Z        PSCENC =       505.22967617
  Ewald energy   TEWEN  =     87595.51252453
  -Hartree energ DENC   =   -101653.19108562
  -exchange      EXHF   =         0.00000000
  -V(xc)+E(xc)   XCENC  =     -6605.33752603
  PAW double counting   =     17092.30507181    -9042.14386232
  entropy T*S    EENTRO =        -0.25856885
  eigenvalues    EBANDS =     -2874.57165019
  atomic energy  EATOM  =     14019.20197576
  Solvation  Ediel_sol  =         0.00000000
  ---------------------------------------------------
  free energy    TOTEN  =      -963.25344474 eV

  energy without entropy =     -962.99487590  energy(sigma->0) =     -963.12416032


--------------------------------------------------------------------------------------------------------




----------------------------------------- Iteration    1(   5)  ---------------------------------------


     EDDAV:  cpu time   26.5536: real time   30.2107
       DOS:  cpu time    0.0020: real time    0.0020
    CHARGE:  cpu time    1.9855: real time    2.0435
    MIXING:  cpu time    0.0273: real time    0.0273
    --------------------------------------------
      LOOP:  cpu time   28.5699: real time   32.2864

 eigenvalue-minimisations  :  4800
 total energy-change (2. order) :-0.3561342E+00  (-0.3545167E+00)
 number of electron     765.9999985 magnetization 
 augmentation part       -9.9031917 magnetization 

 Broyden mixing:
  rms(total) = 0.19598E+01    rms(broyden)= 0.19581E+01
  rms(prec ) = 0.26904E+01
  weight for this iteration     100.00

 Free energy of the ion-electron system (eV)
  ---------------------------------------------------
  alpha Z        PSCENC =       505.22967617
  Ewald energy   TEWEN  =     87595.51252453
  -Hartree energ DENC   =   -101653.19108562
  -exchange      EXHF   =         0.00000000
  -V(xc)+E(xc)   XCENC  =     -6605.33752603
  PAW double counting   =     17092.30507181    -9042.14386232
  entropy T*S    EENTRO =        -0.26026329
  eigenvalues    EBANDS =     -2874.92608997
  atomic energy  EATOM  =     14019.20197576
  Solvation  Ediel_sol  =         0.00000000
  ---------------------------------------------------
  free energy    TOTEN  =      -963.60957896 eV

  energy without entropy =     -963.34931567  energy(sigma->0) =     -963.47944732


--------------------------------------------------------------------------------------------------------




----------------------------------------- Iteration    1(   6)  ---------------------------------------


    POTLOK:  cpu time    0.8886: real time    0.8885
    SETDIJ:  cpu time    0.1161: real time    0.1161
     EDDAV:  cpu time   23.0683: real time   26.2917
       DOS:  cpu time    0.0022: real time    0.0022
    CHARGE:  cpu time    1.9834: real time    2.0229
    MIXING:  cpu time    0.0316: real time    0.0319
    --------------------------------------------
      LOOP:  cpu time   26.0922: real time   29.3564

 eigenvalue-minimisations  :  3972
 total energy-change (2. order) :-0.1491758E+02  (-0.1907445E+02)
 number of electron     765.9999987 magnetization 
 augmentation part       -9.8661212 magnetization 

 Broyden mixing:
  rms(total) = 0.19050E+01    rms(broyden)= 0.19049E+01
  rms(prec ) = 0.42162E+01
  weight for this iteration     100.00

 eigenvalues of (default mixing * dielectric matrix)
  average eigenvalue GAMMA=   0.7950
  0.7950

 Free energy of the ion-electron system (eV)
  ---------------------------------------------------
  alpha Z        PSCENC =       505.22967617
  Ewald energy   TEWEN  =     87595.51252453
  -Hartree energ DENC   =   -102581.25431837
  -exchange      EXHF   =         0.00000000
  -V(xc)+E(xc)   XCENC  =     -6595.07131918
  PAW double counting   =     19104.94826565   -11056.22831914
  entropy T*S    EENTRO =        -0.15048255
  eigenvalues    EBANDS =     -1970.71516407
  atomic energy  EATOM  =     14019.20197576
  Solvation  Ediel_sol  =         0.00000000
  ---------------------------------------------------
  free energy    TOTEN  =      -978.52716121 eV

  energy without entropy =     -978.37667865  energy(sigma->0) =     -978.45191993


--------------------------------------------------------------------------------------------------------




----------------------------------------- Iteration    1(   7)  ---------------------------------------


    POTLOK:  cpu time    0.8938: real time    0.8937
    SETDIJ:  cpu time    0.1152: real time    0.1152
     EDDAV:  cpu time   23.2443: real time   26.4367
       DOS:  cpu time    0.0181: real time    0.0184
    CHARGE:  cpu time    1.9888: real time    2.0282
    MIXING:  cpu time    0.0310: real time    0.0310
    --------------------------------------------
      LOOP:  cpu time   26.2931: real time   29.5266

 eigenvalue-minimisations  :  4008
 total energy-change (2. order) : 0.4039851E+02  (-0.1331513E+02)
 number of electron     765.9999987 magnetization 
 augmentation part       -9.9094237 magnetization 

 Broyden mixing:
  rms(total) = 0.10169E+01    rms(broyden)= 0.10169E+01
  rms(prec ) = 0.12909E+01
  weight for this iteration     100.00

 eigenvalues of (default mixing * dielectric matrix)
  average eigenvalue GAMMA=   1.1982
  2.0840  0.3124

 Free energy of the ion-electron system (eV)
  ---------------------------------------------------
  alpha Z        PSCENC =       505.22967617
  Ewald energy   TEWEN  =     87595.51252453
  -Hartree energ DENC   =   -102053.49680840
  -exchange      EXHF   =         0.00000000
  -V(xc)+E(xc)   XCENC  =     -6592.89888732
  PAW double counting   =     19506.46485018   -11457.89153930
  entropy T*S    EENTRO =        -0.04809590
  eigenvalues    EBANDS =     -2460.20235093
  atomic energy  EATOM  =     14019.20197576
  Solvation  Ediel_sol  =         0.00000000
  ---------------------------------------------------
  free energy    TOTEN  =      -938.12865522 eV

  energy without entropy =     -938.08055932  energy(sigma->0) =     -938.10460727


--------------------------------------------------------------------------------------------------------




----------------------------------------- Iteration    1(   8)  ---------------------------------------


    POTLOK:  cpu time    0.8999: real time    0.8999
    SETDIJ:  cpu time    0.1127: real time    0.1127
     EDDAV:  cpu time   22.5576: real time   25.6362
       DOS:  cpu time    0.0012: real time    0.0012
    CHARGE:  cpu time    2.0040: real time    2.0437
    MIXING:  cpu time    0.0329: real time    0.0329
    --------------------------------------------
      LOOP:  cpu time   25.6103: real time   28.7295

 eigenvalue-minimisations  :  3840
 total energy-change (2. order) : 0.4863284E+00  (-0.4685026E+01)
 number of electron     765.9999986 magnetization 
 augmentation part      -10.0800764 magnetization 

 Broyden mixing:
  rms(total) = 0.47625E+00    rms(broyden)= 0.47624E+00
  rms(prec ) = 0.63429E+00
  weight for this iteration     100.00

 eigenvalues of (default mixing * dielectric matrix)
  average eigenvalue GAMMA=   1.1566
  2.4790  0.6963  0.2945

 Free energy of the ion-electron system (eV)
  ---------------------------------------------------
  alpha Z        PSCENC =       505.22967617
  Ewald energy   TEWEN  =     87595.51252453
  -Hartree energ DENC   =   -102230.17547928
  -exchange      EXHF   =         0.00000000
  -V(xc)+E(xc)   XCENC  =     -6583.14326455
  PAW double counting   =     21149.55900488   -13101.94386843
  entropy T*S    EENTRO =        -0.05634498
  eigenvalues    EBANDS =     -2291.82655089
  atomic energy  EATOM  =     14019.20197576
  Solvation  Ediel_sol  =         0.00000000
  ---------------------------------------------------
  free energy    TOTEN  =      -937.64232679 eV

  energy without entropy =     -937.58598182  energy(sigma->0) =     -937.61415430


--------------------------------------------------------------------------------------------------------




----------------------------------------- Iteration    1(   9)  ---------------------------------------


    POTLOK:  cpu time    0.8960: real time    0.8960
    SETDIJ:  cpu time    0.1156: real time    0.1157
     EDDAV:  cpu time   22.1045: real time   25.2313
       DOS:  cpu time    0.0019: real time    0.0019
    CHARGE:  cpu time    1.9549: real time    1.9938
    MIXING:  cpu time    0.0365: real time    0.0365
    --------------------------------------------
      LOOP:  cpu time   25.1128: real time   30.6892

 eigenvalue-minimisations  :  3756
 total energy-change (2. order) : 0.5915405E+00  (-0.4557901E+00)
 number of electron     765.9999989 magnetization 
 augmentation part      -10.1245945 magnetization 

 Broyden mixing:
  rms(total) = 0.30335E+00    rms(broyden)= 0.30335E+00
  rms(prec ) = 0.10552E+01
  weight for this iteration     100.00

 eigenvalues of (default mixing * dielectric matrix)
  average eigenvalue GAMMA=   0.9920
  2.4799  0.7278  0.2990  0.4611

 Free energy of the ion-electron system (eV)
  ---------------------------------------------------
  alpha Z        PSCENC =       505.22967617
  Ewald energy   TEWEN  =     87595.51252453
  -Hartree energ DENC   =   -102397.55171549
  -exchange      EXHF   =         0.00000000
  -V(xc)+E(xc)   XCENC  =     -6575.77427556
  PAW double counting   =     22358.28539655   -14311.64743053
  entropy T*S    EENTRO =        -0.05589319
  eigenvalues    EBANDS =     -2130.25104455
  atomic energy  EATOM  =     14019.20197576
  Solvation  Ediel_sol  =         0.00000000
  ---------------------------------------------------
  free energy    TOTEN  =      -937.05078632 eV

  energy without entropy =     -936.99489313  energy(sigma->0) =     -937.02283972


--------------------------------------------------------------------------------------------------------




----------------------------------------- Iteration    1(  10)  ---------------------------------------


    POTLOK:  cpu time    0.9006: real time    0.9005
    SETDIJ:  cpu time    0.1122: real time    0.1122
     EDDAV:  cpu time   22.6909: real time   25.8421
       DOS:  cpu time    0.0015: real time    0.0015
    CHARGE:  cpu time    1.9464: real time    1.9854
    MIXING:  cpu time    0.0337: real time    0.0337
    --------------------------------------------
      LOOP:  cpu time   25.6871: real time   28.8784

 eigenvalue-minimisations  :  3888
 total energy-change (2. order) : 0.1499838E+01  (-0.1070791E+00)
 number of electron     765.9999987 magnetization 
 augmentation part      -10.1420389 magnetization 

 Broyden mixing:
  rms(total) = 0.11893E+00    rms(broyden)= 0.11893E+00
  rms(prec ) = 0.22263E+00
  weight for this iteration     100.00

 eigenvalues of (default mixing * dielectric matrix)
  average eigenvalue GAMMA=   1.0253
  2.4005  1.6206  0.6680  0.2969  0.1407

 Free energy of the ion-electron system (eV)
  ---------------------------------------------------
  alpha Z        PSCENC =       505.22967617
  Ewald energy   TEWEN  =     87595.51252453
  -Hartree energ DENC   =   -102409.55800161
  -exchange      EXHF   =         0.00000000
  -V(xc)+E(xc)   XCENC  =     -6575.32923458
  PAW double counting   =     22419.13486748   -14372.57556178
  entropy T*S    EENTRO =        -0.05385379
  eigenvalues    EBANDS =     -2117.11334049
  atomic energy  EATOM  =     14019.20197576
  Solvation  Ediel_sol  =         0.00000000
  ---------------------------------------------------
  free energy    TOTEN  =      -935.55094830 eV

  energy without entropy =     -935.49709451  energy(sigma->0) =     -935.52402141


--------------------------------------------------------------------------------------------------------




----------------------------------------- Iteration    1(  11)  ---------------------------------------


    POTLOK:  cpu time    0.9066: real time    0.9066
    SETDIJ:  cpu time    0.1135: real time    0.1135
     EDDAV:  cpu time   23.3322: real time   26.5975
       DOS:  cpu time    0.0012: real time    0.0012
    CHARGE:  cpu time    1.9358: real time    1.9748
    MIXING:  cpu time    0.0368: real time    0.0371
    --------------------------------------------
      LOOP:  cpu time   26.3281: real time   29.6337

 eigenvalue-minimisations  :  4032
 total energy-change (2. order) : 0.1402542E+00  (-0.1483861E+00)
 number of electron     765.9999987 magnetization 
 augmentation part      -10.1537082 magnetization 

 Broyden mixing:
  rms(total) = 0.65902E-01    rms(broyden)= 0.65897E-01
  rms(prec ) = 0.93260E-01
  weight for this iteration     100.00

 eigenvalues of (default mixing * dielectric matrix)
  average eigenvalue GAMMA=   1.0772
  2.2163  2.2163  0.7970  0.7970  0.2963  0.1405

 Free energy of the ion-electron system (eV)
  ---------------------------------------------------
  alpha Z        PSCENC =       505.22967617
  Ewald energy   TEWEN  =     87595.51252453
  -Hartree energ DENC   =   -102472.94640439
  -exchange      EXHF   =         0.00000000
  -V(xc)+E(xc)   XCENC  =     -6574.40645167
  PAW double counting   =     22451.89078968   -14405.70030096
  entropy T*S    EENTRO =        -0.05416247
  eigenvalues    EBANDS =     -2054.13834070
  atomic energy  EATOM  =     14019.20197576
  Solvation  Ediel_sol  =         0.00000000
  ---------------------------------------------------
  free energy    TOTEN  =      -935.41069406 eV

  energy without entropy =     -935.35653160  energy(sigma->0) =     -935.38361283


--------------------------------------------------------------------------------------------------------




----------------------------------------- Iteration    1(  12)  ---------------------------------------


    POTLOK:  cpu time    0.9090: real time    0.9090
    SETDIJ:  cpu time    0.1131: real time    0.1131
     EDDAV:  cpu time   24.7528: real time   28.1748
       DOS:  cpu time    0.0201: real time    0.0201
    CHARGE:  cpu time    1.9420: real time    1.9805
    MIXING:  cpu time    0.0376: real time    0.0376
    --------------------------------------------
      LOOP:  cpu time   27.7766: real time   31.2380

 eigenvalue-minimisations  :  4344
 total energy-change (2. order) : 0.2794050E-01  (-0.2232575E-01)
 number of electron     765.9999987 magnetization 
 augmentation part      -10.1550963 magnetization 

 Broyden mixing:
  rms(total) = 0.46640E-01    rms(broyden)= 0.46617E-01
  rms(prec ) = 0.66166E-01
  weight for this iteration     100.00

 eigenvalues of (default mixing * dielectric matrix)
  average eigenvalue GAMMA=   1.0492
  2.2093  2.2093  0.9189  0.9189  0.6508  0.2965  0.1405

 Free energy of the ion-electron system (eV)
  ---------------------------------------------------
  alpha Z        PSCENC =       505.22967617
  Ewald energy   TEWEN  =     87595.51252453
  -Hartree energ DENC   =   -102506.74173924
  -exchange      EXHF   =         0.00000000
  -V(xc)+E(xc)   XCENC  =     -6573.96017149
  PAW double counting   =     22456.15291870   -14410.13935212
  entropy T*S    EENTRO =        -0.05455918
  eigenvalues    EBANDS =     -2020.58402668
  atomic energy  EATOM  =     14019.20197576
  Solvation  Ediel_sol  =         0.00000000
  ---------------------------------------------------
  free energy    TOTEN  =      -935.38275356 eV

  energy without entropy =     -935.32819438  energy(sigma->0) =     -935.35547397


--------------------------------------------------------------------------------------------------------




----------------------------------------- Iteration    1(  13)  ---------------------------------------


    POTLOK:  cpu time    0.9083: real time    0.9083
    SETDIJ:  cpu time    0.1137: real time    0.1137
     EDDAV:  cpu time   23.5544: real time   26.8426
       DOS:  cpu time    0.0020: real time    0.0021
    CHARGE:  cpu time    1.9412: real time    1.9801
    MIXING:  cpu time    0.0401: real time    0.0401
    --------------------------------------------
      LOOP:  cpu time   26.5617: real time   29.8899

 eigenvalue-minimisations  :  4068
 total energy-change (2. order) : 0.2306346E-01  (-0.6241855E-02)
 number of electron     765.9999987 magnetization 
 augmentation part      -10.1540207 magnetization 

 Broyden mixing:
  rms(total) = 0.27935E-01    rms(broyden)= 0.27930E-01
  rms(prec ) = 0.45577E-01
  weight for this iteration     100.00

 eigenvalues of (default mixing * dielectric matrix)
  average eigenvalue GAMMA=   1.1858
  2.6104  2.6104  1.2050  1.2050  0.2964  0.7095  0.7095  0.1405

 Free energy of the ion-electron system (eV)
  ---------------------------------------------------
  alpha Z        PSCENC =       505.22967617
  Ewald energy   TEWEN  =     87595.51252453
  -Hartree energ DENC   =   -102539.61794157
  -exchange      EXHF   =         0.00000000
  -V(xc)+E(xc)   XCENC  =     -6573.48335902
  PAW double counting   =     22467.13413218   -14421.25906343
  entropy T*S    EENTRO =        -0.05452079
  eigenvalues    EBANDS =     -1988.02311392
  atomic energy  EATOM  =     14019.20197576
  Solvation  Ediel_sol  =         0.00000000
  ---------------------------------------------------
  free energy    TOTEN  =      -935.35969010 eV

  energy without entropy =     -935.30516931  energy(sigma->0) =     -935.33242971


--------------------------------------------------------------------------------------------------------




----------------------------------------- Iteration    1(  14)  ---------------------------------------


    POTLOK:  cpu time    0.9117: real time    0.9118
    SETDIJ:  cpu time    0.1175: real time    0.1175
     EDDAV:  cpu time   22.6161: real time   25.7351
       DOS:  cpu time    0.0147: real time    0.0147
    CHARGE:  cpu time    1.9602: real time    1.9989
    MIXING:  cpu time    0.0429: real time    0.0429
    --------------------------------------------
      LOOP:  cpu time   25.6650: real time   28.8240

 eigenvalue-minimisations  :  3852
 total energy-change (2. order) : 0.5309210E-02  (-0.2708567E-02)
 number of electron     765.9999987 magnetization 
 augmentation part      -10.1533516 magnetization 

 Broyden mixing:
  rms(total) = 0.16866E-01    rms(broyden)= 0.16864E-01
  rms(prec ) = 0.30439E-01
  weight for this iteration     100.00

 eigenvalues of (default mixing * dielectric matrix)
  average eigenvalue GAMMA=   1.1805
  3.0332  2.5777  1.2281  1.2281  0.2964  0.1405  0.8078  0.7629  0.5497

 Free energy of the ion-electron system (eV)
  ---------------------------------------------------
  alpha Z        PSCENC =       505.22967617
  Ewald energy   TEWEN  =     87595.51252453
  -Hartree energ DENC   =   -102567.71086589
  -exchange      EXHF   =         0.00000000
  -V(xc)+E(xc)   XCENC  =     -6573.12798086
  PAW double counting   =     22472.67071362   -14426.84863824
  entropy T*S    EENTRO =        -0.05485766
  eigenvalues    EBANDS =     -1960.22692832
  atomic energy  EATOM  =     14019.20197576
  Solvation  Ediel_sol  =         0.00000000
  ---------------------------------------------------
  free energy    TOTEN  =      -935.35438089 eV

  energy without entropy =     -935.29952323  energy(sigma->0) =     -935.32695206


--------------------------------------------------------------------------------------------------------




----------------------------------------- Iteration    1(  15)  ---------------------------------------


    POTLOK:  cpu time    0.9107: real time    0.9106
    SETDIJ:  cpu time    0.1136: real time    0.1136
     EDDAV:  cpu time   22.1981: real time   25.2473
       DOS:  cpu time    0.0022: real time    0.0022
    CHARGE:  cpu time    1.9542: real time    1.9927
    MIXING:  cpu time    0.0457: real time    0.0457
    --------------------------------------------
      LOOP:  cpu time   25.2264: real time   28.3152

 eigenvalue-minimisations  :  3780
 total energy-change (2. order) :-0.1381478E-02  (-0.1151609E-02)
 number of electron     765.9999987 magnetization 
 augmentation part      -10.1527909 magnetization 

 Broyden mixing:
  rms(total) = 0.12719E-01    rms(broyden)= 0.12717E-01
  rms(prec ) = 0.18691E-01
  weight for this iteration     100.00

 eigenvalues of (default mixing * dielectric matrix)
  average eigenvalue GAMMA=   1.2565
  3.2530  2.6995  1.5755  1.5755  0.9182  0.9182  0.7082  0.2964  0.1405  0.4794

 Free energy of the ion-electron system (eV)
  ---------------------------------------------------
  alpha Z        PSCENC =       505.22967617
  Ewald energy   TEWEN  =     87595.51252453
  -Hartree energ DENC   =   -102587.73271982
  -exchange      EXHF   =         0.00000000
  -V(xc)+E(xc)   XCENC  =     -6572.94059700
  PAW double counting   =     22470.87254056   -14425.05599178
  entropy T*S    EENTRO =        -0.05484909
  eigenvalues    EBANDS =     -1940.38832170
  atomic energy  EATOM  =     14019.20197576
  Solvation  Ediel_sol  =         0.00000000
  ---------------------------------------------------
  free energy    TOTEN  =      -935.35576237 eV

  energy without entropy =     -935.30091328  energy(sigma->0) =     -935.32833782


--------------------------------------------------------------------------------------------------------




----------------------------------------- Iteration    1(  16)  ---------------------------------------


    POTLOK:  cpu time    0.9176: real time    0.9177
    SETDIJ:  cpu time    0.1124: real time    0.1124
     EDDAV:  cpu time   22.9767: real time   26.0918
       DOS:  cpu time    0.0012: real time    0.0012
    CHARGE:  cpu time    1.9571: real time    1.9956
    MIXING:  cpu time    0.0487: real time    0.0487
    --------------------------------------------
      LOOP:  cpu time   26.0156: real time   29.1707

 eigenvalue-minimisations  :  3960
 total energy-change (2. order) :-0.7976879E-02  (-0.4071553E-03)
 number of electron     765.9999987 magnetization 
 augmentation part      -10.1521165 magnetization 

 Broyden mixing:
  rms(total) = 0.83389E-02    rms(broyden)= 0.83386E-02
  rms(prec ) = 0.13053E-01
  weight for this iteration     100.00

 eigenvalues of (default mixing * dielectric matrix)
  average eigenvalue GAMMA=   1.4460
  4.9250  2.8419  2.3495  1.2613  1.2613  0.2964  0.1405  0.9196  0.7351  0.6935
  0.4817

 Free energy of the ion-electron system (eV)
  ---------------------------------------------------
  alpha Z        PSCENC =       505.22967617
  Ewald energy   TEWEN  =     87595.51252453
  -Hartree energ DENC   =   -102601.09927500
  -exchange      EXHF   =         0.00000000
  -V(xc)+E(xc)   XCENC  =     -6572.90769168
  PAW double counting   =     22463.17573522   -14417.31481418
  entropy T*S    EENTRO =        -0.05494856
  eigenvalues    EBANDS =     -1927.10692151
  atomic energy  EATOM  =     14019.20197576
  Solvation  Ediel_sol  =         0.00000000
  ---------------------------------------------------
  free energy    TOTEN  =      -935.36373925 eV

  energy without entropy =     -935.30879069  energy(sigma->0) =     -935.33626497


--------------------------------------------------------------------------------------------------------




----------------------------------------- Iteration    1(  17)  ---------------------------------------


    POTLOK:  cpu time    0.9241: real time    0.9241
    SETDIJ:  cpu time    0.1145: real time    0.1145
     EDDAV:  cpu time   21.7112: real time   24.7284
       DOS:  cpu time    0.0013: real time    0.0013
    CHARGE:  cpu time    1.9540: real time    1.9923
    MIXING:  cpu time    0.0527: real time    0.0527
    --------------------------------------------
[...]
     11.69112     -8.59029     -8.26601         0.000019     -0.005258      0.002276
     11.69112    -17.18057    -13.22561         0.003674     -0.000252     -0.001574
     11.69112    -11.45372     -3.30640         0.006618      0.004134     -0.007772
     11.69112    -14.31714     -8.26601        -0.000074     -0.001349     -0.000868
     13.99306      0.00000      0.00000         0.000463     -0.000317      0.001493
     13.99306     -2.86343     -4.95960        -0.002586     -0.004545      0.000992
     13.99306     -5.72686     -9.91921         0.002027      0.002436     -0.002543
     13.99306     -5.72686      0.00000        -0.001816     -0.001402     -0.002722
     13.99306     -8.59029     -4.95960        -0.033114      0.008277     -0.002593
     13.99306    -11.45372     -9.91921         0.004364      0.003627      0.008959
     13.99306    -11.45372      0.00000         0.000171     -0.000221     -0.001026
     13.99306    -14.31714     -4.95960         0.002589     -0.004648     -0.000639
     13.99306    -17.18057     -9.91921        -0.000705      0.002114      0.001000
     16.34180     -2.86343     -1.65320        -0.002083     -0.001366      0.000143
     16.34180     -5.72686     -6.61281         0.008202      0.003965     -0.002492
     16.34180     -8.59029    -11.57241         0.004917     -0.000231      0.000187
     16.34180     -8.59029     -1.65320         0.004372      0.001742      0.000600
     16.34180    -11.45372     -6.61281        -0.399955     -0.164133      0.006080
     16.34180    -14.31714    -11.57241         0.001041      0.001313      0.001894
     16.34180    -14.31714     -1.65320         0.000501      0.001507     -0.002243
     16.34180    -17.18057     -6.61281        -0.001277      0.005363     -0.000458
     16.34180    -20.04400    -11.57241        -0.001091     -0.001389     -0.000177
      2.36204     -7.15857     -4.13300         0.001047     -0.005857     -0.004535
      2.36204    -10.02200     -9.09261        -0.010242     -0.000000      0.009833
      2.36204    -12.88543    -14.05221        -0.001936     -0.001902     -0.001888
      2.36204    -12.88543     -4.13300         0.001047      0.005857     -0.004535
      2.36204    -15.74886     -9.09261         0.005296     -0.006947     -0.003905
      2.36204    -18.61229    -14.05221         0.000855     -0.000000      0.001670
      2.36204    -18.61229     -4.13300        -0.001957     -0.000000     -0.000330
      2.36204    -21.47572     -9.09261         0.005296      0.006947     -0.003905
      2.36204    -24.33915    -14.05221        -0.001936      0.001902     -0.001888
      4.71078    -10.02200     -5.78621        -0.013117     -0.000000     -0.002592
      4.71078    -12.88543    -10.74581         0.002625      0.003032     -0.000808
      4.71078     -7.15857     -0.82660        -0.001529      0.001225      0.003101
      4.71078    -15.74886     -5.78621         0.001022     -0.003300      0.001203
      4.71078    -18.61229    -10.74581        -0.000915     -0.000000      0.001723
      4.71078    -12.88543     -0.82660        -0.001529     -0.001225      0.003101
      4.71078     -4.29514     -5.78621         0.001022      0.003300      0.001203
      4.71078     -7.15857    -10.74581         0.002625     -0.003032     -0.000808
      4.71078     -1.43171     -0.82660        -0.002404     -0.000000      0.000747
      7.01272    -12.88543     -7.43941        -0.000616      0.008814      0.001490
      7.01272    -15.74886    -12.39901         0.001751     -0.001464      0.000838
      7.01272    -10.02200     -2.47980        -0.002412     -0.000000     -0.006623
      7.01272    -18.61229     -7.43941         0.001287     -0.000000      0.002027
      7.01272    -21.47572    -12.39901         0.001751      0.001464      0.000838
      7.01272    -15.74886     -2.47980         0.000637     -0.001341      0.001516
      7.01272     -7.15857     -7.43941        -0.000616     -0.008814      0.001490
      7.01272    -10.02200    -12.39901         0.001550     -0.000000     -0.000253
      7.01272     -4.29514     -2.47980         0.000637      0.001341      0.001516
      9.35192    -15.74886     -9.09261         0.002296     -0.003323      0.000358
      9.35192    -18.61229    -14.05221        -0.000841     -0.000000     -0.000504
      9.35192    -12.88543     -4.13300         0.001106      0.009441     -0.005270
      9.35192    -21.47572     -9.09261         0.002296      0.003323      0.000358
      9.35192    -24.33915    -14.05221         0.003133     -0.000223      0.000250
      9.35192    -18.61229     -4.13300         0.002782     -0.000000      0.000801
      9.35192    -10.02200     -9.09261         0.011807     -0.000000      0.006985
      9.35192    -12.88543    -14.05221         0.003133      0.000223      0.000250
      9.35192     -7.15857     -4.13300         0.001106     -0.009441     -0.005270
     11.69112    -18.61229    -10.74581         0.001491     -0.000000     -0.001820
     11.69112    -12.88543     -0.82660         0.004809     -0.000165     -0.001890
     11.69112    -15.74886     -5.78621         0.002453     -0.004910     -0.000010
     11.69112     -7.15857    -10.74581         0.001417      0.000859     -0.001886
     11.69112     -1.43171     -0.82660         0.002037     -0.000000      0.001476
     11.69112     -4.29514     -5.78621         0.002453      0.004910     -0.000010
     11.69112    -12.88543    -10.74581         0.001417     -0.000859     -0.001886
     11.69112     -7.15857     -0.82660         0.004809      0.000165     -0.001890
     11.69112    -10.02200     -5.78621        -0.023907     -0.000000      0.000136
     13.99306    -21.47572    -12.39901        -0.001409     -0.000351      0.000872
     13.99306    -15.74886     -2.47980         0.000100      0.000363     -0.001434
     13.99306    -18.61229     -7.43941        -0.002398     -0.000000     -0.000488
     13.99306    -10.02200    -12.39901         0.004025     -0.000000     -0.001589
     13.99306     -4.29514     -2.47980         0.000100     -0.000363     -0.001434
     13.99306     -7.15857     -7.43941         0.003361     -0.014405      0.010461
     13.99306    -15.74886    -12.39901        -0.001409      0.000351      0.000872
     13.99306    -10.02200     -2.47980         0.003619     -0.000000      0.001777
     13.99306    -12.88543     -7.43941         0.003361      0.014405      0.010461
     16.34180    -24.33915    -14.05221        -0.002069     -0.001889      0.000992
     16.34180    -18.61229     -4.13300        -0.002578     -0.000000      0.000332
     16.34180    -21.47572     -9.09261         0.002722     -0.001132      0.000766
     16.34180    -12.88543    -14.05221        -0.002069      0.001889      0.000992
     16.34180     -7.15857     -4.13300         0.009159     -0.001675      0.001208
     16.34180    -10.02200     -9.09261        -0.047400     -0.000000     -0.022680
     16.34180    -18.61229    -14.05221         0.001543     -0.000000     -0.002430
     16.34180    -12.88543     -4.13300         0.009159      0.001675      0.001208
     16.34180    -15.74886     -9.09261         0.002722      0.001132      0.000766
      2.36204     -8.59029     -6.61281        -0.017701     -0.008551      0.000621
      2.36204    -11.45372    -11.57241         0.002222     -0.000179     -0.000661
      2.36204     -5.72686     -1.65320        -0.000072      0.000849      0.003992
      2.36204    -14.31714     -6.61281         0.004235      0.003563      0.003732
      2.36204    -17.18057    -11.57241        -0.002710      0.000457      0.001550
      2.36204    -11.45372     -1.65320         0.005050     -0.003609      0.001269
      2.36204    -20.04400     -6.61281        -0.000894      0.004238      0.000525
      2.36204    -22.90743    -11.57241         0.001953      0.001231     -0.004655
      2.36204    -17.18057     -1.65320        -0.002034      0.000821      0.000200
      4.71078    -11.45372     -8.26601        -0.008747      0.004751      0.005976
      4.71078    -14.31714    -13.22561        -0.003591     -0.000860     -0.002106
      4.71078     -8.59029     -3.30640        -0.001442     -0.002569     -0.008100
      4.71078    -17.18057     -8.26601        -0.001391     -0.004294     -0.000419
      4.71078    -20.04400    -13.22561        -0.002901     -0.000222     -0.000004
      4.71078    -14.31714     -3.30640         0.002300     -0.001573      0.000952
      4.71078     -5.72686     -8.26601         0.005532     -0.004213      0.002770
      4.71078     -8.59029    -13.22561        -0.000775      0.000350     -0.000883
      4.71078     -2.86343     -3.30640        -0.002914     -0.000128      0.000508
      7.01272    -14.31714     -9.91921         0.002754     -0.000840     -0.001701
      7.01272     -8.59029      0.00000         0.000324     -0.000246      0.002189
      7.01272    -11.45372     -4.95960         0.003347      0.005854     -0.005041
      7.01272    -20.04400     -9.91921        -0.001596     -0.001671     -0.002467
      7.01272    -14.31714      0.00000         0.000301      0.000208      0.000567
      7.01272    -17.18057     -4.95960         0.000579     -0.001315     -0.000538
      7.01272     -8.59029     -9.91921         0.000983     -0.003653      0.007594
      7.01272     -2.86343      0.00000         0.000072      0.000641     -0.001894
      7.01272     -5.72686     -4.95960         0.001371     -0.004001     -0.001656
      9.35192    -17.18057    -11.57241         0.001087      0.000998      0.001116
      9.35192    -11.45372     -1.65320        -0.001492     -0.002036      0.000788
      9.35192    -14.31714     -6.61281        -0.001879      0.005339     -0.001693
      9.35192    -22.90743    -11.57241         0.003400     -0.000072     -0.001066
      9.35192    -17.18057     -1.65320         0.001449      0.001156     -0.001272
      9.35192    -20.04400     -6.61281         0.004441     -0.000245     -0.000373
      9.35192    -11.45372    -11.57241        -0.001647     -0.002168      0.000315
      9.35192     -5.72686     -1.65320         0.003106      0.000472      0.001634
      9.35192     -8.59029     -6.61281         0.016984      0.001295      0.000225
     11.69112    -20.04400    -13.22561         0.003674      0.000252     -0.001574
     11.69112    -14.31714     -3.30640        -0.001044     -0.002682      0.003435
     11.69112    -17.18057     -8.26601         0.000795      0.004045      0.001305
     11.69112     -8.59029    -13.22561         0.002934      0.001022      0.001853
     11.69112     -2.86343     -3.30640         0.002366     -0.003433     -0.000939
     11.69112     -5.72686     -8.26601        -0.000074      0.001349     -0.000868
     11.69112    -14.31714    -13.22561         0.000555      0.002573      0.002340
     11.69112     -8.59029     -3.30640         0.006618     -0.004134     -0.007772
     11.69112    -11.45372     -8.26601         0.000019      0.005258      0.002276
     13.99306    -14.31714      0.00000        -0.001816      0.001402     -0.002722
     13.99306    -17.18057     -4.95960        -0.002586      0.004545      0.000992
     13.99306    -20.04400     -9.91921        -0.000705     -0.002114      0.001000
     13.99306     -2.86343      0.00000         0.000463      0.000317      0.001493
     13.99306     -5.72686     -4.95960         0.002589      0.004648     -0.000639
     13.99306     -8.59029     -9.91921         0.004364     -0.003627      0.008959
     13.99306     -8.59029      0.00000         0.000171      0.000221     -0.001026
     13.99306    -11.45372     -4.95960        -0.033114     -0.008277     -0.002593
     13.99306    -14.31714     -9.91921         0.002027     -0.002436     -0.002543
     16.34180    -17.18057     -1.65320        -0.002083      0.001366      0.000143
     16.34180    -20.04400     -6.61281        -0.001277     -0.005363     -0.000458
     16.34180    -22.90743    -11.57241         0.001041     -0.001313      0.001894
     16.34180     -5.72686     -1.65320         0.000501     -0.001507     -0.002243
     16.34180     -8.59029     -6.61281        -0.399955      0.164133      0.006080
     16.34180    -11.45372    -11.57241         0.004917      0.000231      0.000187
     16.34180    -11.45372     -1.65320         0.004372     -0.001742      0.000600
     16.34180    -14.31714     -6.61281         0.008202     -0.003965     -0.002492
     16.34180    -17.18057    -11.57241        -0.001091      0.001389     -0.000177
      2.36204    -10.02200     -4.13300        -0.007893     -0.000000     -0.012931
      2.36204    -12.88543     -9.09261         0.003555      0.010705      0.003378
      2.36204    -15.74886    -14.05221        -0.002276      0.002730      0.000023
      2.36204    -15.74886     -4.13300         0.002866     -0.003952      0.002408
      2.36204    -18.61229     -9.09261        -0.002567     -0.000000     -0.000563
      2.36204    -21.47572    -14.05221        -0.002276     -0.002730      0.000023
      2.36204     -4.29514     -4.13300         0.002866      0.003952      0.002408
      2.36204     -7.15857     -9.09261         0.003555     -0.010705      0.003378
      2.36204    -10.02200    -14.05221        -0.000014     -0.000000     -0.001347
      4.71078    -12.88543     -5.78621        -0.004066      0.010318     -0.001286
      4.71078    -15.74886    -10.74581        -0.001118     -0.005113     -0.002302
      4.71078    -10.02200     -0.82660         0.005018     -0.000000      0.002593
      4.71078    -18.61229     -5.78621        -0.002404     -0.000000     -0.001237
      4.71078    -21.47572    -10.74581        -0.001118      0.005113     -0.002302
      4.71078    -15.74886     -0.82660        -0.001794     -0.000424      0.000548
      4.71078     -7.15857     -5.78621        -0.004066     -0.010318     -0.001286
      4.71078    -10.02200    -10.74581         0.000377     -0.000000      0.004752
      4.71078     -4.29514     -0.82660        -0.001794      0.000424      0.000548
      7.01272    -15.74886     -7.43941         0.000670     -0.002478     -0.001118
      7.01272    -18.61229    -12.39901         0.002497     -0.000000     -0.001689
      7.01272    -12.88543     -2.47980         0.001087     -0.000045     -0.000863
      7.01272    -21.47571     -7.43941         0.000670      0.002478     -0.001118
      7.01272    -24.33914    -12.39901        -0.000067      0.000595     -0.000996
      7.01272    -18.61228     -2.47980         0.001345     -0.000000     -0.000351
      7.01272    -10.02200     -7.43941         0.008643     -0.000000      0.001028
      7.01272    -12.88543    -12.39901        -0.000067     -0.000595     -0.000996
      7.01272     -7.15857     -2.47980         0.001087      0.000045     -0.000863
      9.35192    -18.61229     -9.09261         0.005147     -0.000000      0.000737
      9.35192    -21.47572    -14.05221         0.001812     -0.000300     -0.001349
      9.35192    -15.74886     -4.13300         0.001198     -0.004037      0.000761
      9.35192     -7.15857     -9.09261        -0.002214     -0.005614      0.004623
      9.35192    -10.02200    -14.05221         0.001080     -0.000000     -0.000346
      9.35192     -4.29514     -4.13300         0.001198      0.004037      0.000761
      9.35192    -12.88543     -9.09261        -0.002214      0.005614      0.004623
      9.35192    -15.74886    -14.05221         0.001812      0.000300     -0.001349
      9.35192    -10.02200     -4.13300         0.010334     -0.000000     -0.005958
     11.69112    -21.47572    -10.74581         0.002778     -0.001455      0.001204
     11.69112    -15.74886     -0.82660         0.001990      0.000866     -0.001532
     11.69112    -18.61229     -5.78621         0.000096     -0.000000     -0.000228
     11.69112    -10.02200    -10.74581        -0.001160     -0.000000      0.004236
     11.69112     -4.29514     -0.82660         0.001990     -0.000866     -0.001532
     11.69112     -7.15857     -5.78621         0.006583     -0.007368     -0.001374
     11.69112    -15.74886    -10.74581         0.002778      0.001455      0.001204
     11.69112    -10.02200     -0.82660         0.002342     -0.000000      0.001416
     11.69112    -12.88543     -5.78621         0.006583      0.007368     -0.001374
     13.99306    -24.33914    -12.39901         0.001572     -0.001068      0.001438
     13.99306    -18.61228     -2.47980        -0.001919     -0.000000      0.000208
     13.99306    -21.47571     -7.43941         0.003337      0.001390      0.001400
     13.99306    -12.88543    -12.39901         0.001572      0.001068      0.001438
     13.99306     -7.15857     -2.47980         0.002150      0.000562      0.004060
     13.99306    -10.02200     -7.43941        -0.080995     -0.000000     -0.002748
     13.99306    -18.61229    -12.39901        -0.000901     -0.000000     -0.000038
     13.99306    -12.88543     -2.47980         0.002150     -0.000562      0.004060
     13.99306    -15.74886     -7.43941         0.003337     -0.001390      0.001400
     16.34180    -10.02200    -14.05221         0.001351     -0.000000      0.001466
     16.34180     -4.29514     -4.13300         0.002476     -0.001823     -0.000185
     16.34180     -7.15857     -9.09261         0.005391      0.000172      0.001923
     16.34180    -15.74886    -14.05221        -0.001080     -0.001755     -0.000493
     16.34180    -10.02200     -4.13300        -0.058439     -0.000000      0.007307
     16.34180    -12.88543     -9.09261         0.005391     -0.000172      0.001923
     16.34180    -21.47572    -14.05221        -0.001080      0.001755     -0.000493
     16.34180    -15.74886     -4.13300         0.002476      0.001823     -0.000185
     16.34180    -18.61229     -9.09261        -0.002145     -0.000000     -0.000233
     19.04000    -10.02200     -7.16000         0.442082      0.000000     -4.847493
     19.04000    -10.02200     -6.06300         0.411720      0.000000      4.822808
 -----------------------------------------------------------------------------------
    total drift:                               -0.004338      0.000307     -0.002390


--------------------------------------------------------------------------------------------------------



  FREE ENERGIE OF THE ION-ELECTRON SYSTEM (eV)
  ---------------------------------------------------
  free  energy   TOTEN  =      -935.38125364 eV

  energy  without entropy=     -935.32620626  energy(sigma->0) =     -935.35372995
 


--------------------------------------------------------------------------------------------------------


    POTLOK:  cpu time    1.0416: real time    1.0505


--------------------------------------------------------------------------------------------------------


     LOOP+:  cpu time  705.8875: real time  797.5964
    4ORBIT:  cpu time    0.0000: real time    0.0000

 total amount of memory used by VASP MPI-rank0   652124. kBytes
=======================================================================

   base      :      30000. kBytes
   nonlr-proj:      89903. kBytes
   fftplans  :      40601. kBytes
   grid      :      95147. kBytes
   one-center:       3950. kBytes
   wavefun   :     392523. kBytes
 
  
  
 General timing and accounting informations for this job:
 ========================================================
  
                  Total CPU time used (sec):      723.593
                            User time (sec):       82.722
                          System time (sec):      640.871
                         Elapsed time (sec):      818.073
  
                   Maximum memory used (kb):     1002200.
                   Average memory used (kb):           0.
  
                          Minor page faults:     25792545
                          Major page faults:           35
                 Voluntary context switches:        17841
