 254 254   0   0
  0.3019211E+02  0.1718057E-08  0.1718057E-08  0.3000000E-08  0.5000000E-15
  1.000000000000000E-004
  CAR 
 NiAl                                    
      5.03281737    -15.16817816  301      1.78124351      1.00000000
    -15.168  0.0000E+00  0.0000E+00
    -15.101  0.0000E+00  0.0000E+00
    -15.034  0.0000E+00  0.0000E+00
    -14.966  0.0000E+00  0.0000E+00
    -14.899  0.0000E+00  0.0000E+00
    -14.831  0.0000E+00  0.0000E+00
    -14.764  0.0000E+00  0.0000E+00
    -14.697  0.0000E+00  0.0000E+00
    -14.629  0.0000E+00  0.0000E+00
    -14.562  0.0000E+00  0.0000E+00
    -14.495  0.6407E-10  0.4314E-11
    -14.427  0.7597E-05  0.5116E-06
    -14.360  0.2709E-01  0.1825E-02
    -14.293  0.3317E+01  0.2252E+00
    -14.225  0.1909E+02  0.1511E+01
    -14.158  0.7123E+01  0.1991E+01
    -14.091  0.1398E+00  0.2000E+01
    -14.023  0.1005E-03  0.2000E+01
    -13.956  0.2226E-08  0.2000E+01
    -13.889  0.0000E+00  0.2000E+01
    -13.821  0.0000E+00  0.2000E+01
    -13.754  0.0000E+00  0.2000E+01
    -13.687  0.0000E+00  0.2000E+01
    -13.619  0.0000E+00  0.2000E+01
    -13.552  0.0000E+00  0.2000E+01
    -13.485  0.0000E+00  0.2000E+01
    -13.417  0.0000E+00  0.2000E+01
    -13.350  0.0000E+00  0.2000E+01
    -13.283  0.0000E+00  0.2000E+01
    -13.215  0.0000E+00  0.2000E+01
    -13.148  0.0000E+00  0.2000E+01
    -13.081  0.0000E+00  0.2000E+01
    -13.013  0.0000E+00  0.2000E+01
    -12.946  0.0000E+00  0.2000E+01
    -12.879  0.0000E+00  0.2000E+01
    -12.811  0.0000E+00  0.2000E+01
    -12.744  0.0000E+00  0.2000E+01
    -12.677  0.0000E+00  0.2000E+01
    -12.609  0.0000E+00  0.2000E+01
    -12.542  0.0000E+00  0.2000E+01
    -12.475  0.0000E+00  0.2000E+01
    -12.407  0.0000E+00  0.2000E+01
    -12.340  0.0000E+00  0.2000E+01
    -12.273  0.0000E+00  0.2000E+01
    -12.205  0.0000E+00  0.2000E+01
    -12.138  0.0000E+00  0.2000E+01
    -12.071  0.0000E+00  0.2000E+01
    -12.003  0.0000E+00  0.2000E+01
    -11.936  0.0000E+00  0.2000E+01
    -11.869  0.0000E+00  0.2000E+01
    -11.801  0.0000E+00  0.2000E+01
    -11.734  0.0000E+00  0.2000E+01
    -11.667  0.0000E+00  0.2000E+01
    -11.599  0.0000E+00  0.2000E+01
    -11.532  0.0000E+00  0.2000E+01
    -11.465  0.0000E+00  0.2000E+01
    -11.397  0.0000E+00  0.2000E+01
    -11.330  0.0000E+00  0.2000E+01
    -11.263  0.0000E+00  0.2000E+01
    -11.195  0.0000E+00  0.2000E+01
    -11.128  0.0000E+00  0.2000E+01
    -11.061  0.0000E+00  0.2000E+01
    -10.993  0.0000E+00  0.2000E+01
    -10.926  0.0000E+00  0.2000E+01
    -10.859  0.0000E+00  0.2000E+01
    -10.791  0.0000E+00  0.2000E+01
    -10.724  0.0000E+00  0.2000E+01
    -10.657  0.0000E+00  0.2000E+01
    -10.589  0.0000E+00  0.2000E+01
    -10.522  0.0000E+00  0.2000E+01
    -10.455  0.0000E+00  0.2000E+01
    -10.387  0.0000E+00  0.2000E+01
    -10.320  0.0000E+00  0.2000E+01
    -10.253  0.0000E+00  0.2000E+01
    -10.185  0.0000E+00  0.2000E+01
    -10.118  0.0000E+00  0.2000E+01
    -10.051  0.0000E+00  0.2000E+01
     -9.983  0.0000E+00  0.2000E+01
     -9.916  0.0000E+00  0.2000E+01
     -9.849  0.0000E+00  0.2000E+01
     -9.781  0.0000E+00  0.2000E+01
     -9.714  0.0000E+00  0.2000E+01
     -9.647  0.0000E+00  0.2000E+01
     -9.579  0.0000E+00  0.2000E+01
     -9.512  0.0000E+00  0.2000E+01
     -9.445  0.7832E-14  0.2000E+01
     -9.377  0.6066E-08  0.2000E+01
     -9.310  0.1394E-03  0.2000E+01
     -9.243  0.1110E+00  0.2007E+01
     -9.175  0.5024E+01  0.2346E+01
     -9.108  0.2237E+02  0.3852E+01
     -9.041  0.1422E+02  0.4810E+01
     -8.973  0.2875E+02  0.6746E+01
     -8.906  0.1100E+02  0.7486E+01
     -8.839  0.1723E+01  0.7603E+01
     -8.771  0.4923E+01  0.7934E+01
     -8.704  0.8551E+01  0.8510E+01
     -8.637  0.5253E+02  0.1205E+02
     -8.569  0.2896E+02  0.1400E+02
     -8.502  0.2012E+02  0.1535E+02
     -8.435  0.2280E+02  0.1689E+02
     -8.367  0.4065E+01  0.1716E+02
     -8.300  0.2503E+02  0.1885E+02
     -8.233  0.1689E+02  0.1998E+02
     -8.165  0.1538E+02  0.2102E+02
     -8.098  0.3248E+02  0.2321E+02
     -8.030  0.2641E+02  0.2498E+02
     -7.963  0.8722E+02  0.3086E+02
     -7.896  0.2403E+02  0.3248E+02
     -7.828  0.3602E+00  0.3250E+02
     -7.761  0.3255E+00  0.3252E+02
     -7.694  0.2527E+02  0.3422E+02
     -7.626  0.1140E+03  0.4190E+02
     -7.559  0.3904E+02  0.4453E+02
     -7.492  0.2133E+02  0.4597E+02
     -7.424  0.2149E+02  0.4741E+02
     -7.357  0.8728E+01  0.4800E+02
     -7.290  0.3394E+02  0.5029E+02
     -7.222  0.1637E+02  0.5139E+02
     -7.155  0.5216E+02  0.5490E+02
     -7.088  0.3172E+02  0.5704E+02
     -7.020  0.5458E+02  0.6071E+02
     -6.953  0.1080E+03  0.6798E+02
     -6.886  0.2001E+02  0.6933E+02
     -6.818  0.5002E+02  0.7270E+02
     -6.751  0.3416E+02  0.7500E+02
     -6.684  0.5157E+02  0.7847E+02
     -6.616  0.1105E+03  0.8591E+02
     -6.549  0.2395E+02  0.8752E+02
     -6.482  0.2947E+02  0.8951E+02
     -6.414  0.7235E+01  0.8999E+02
     -6.347  0.5749E+00  0.9003E+02
     -6.280  0.4647E+01  0.9035E+02
     -6.212  0.2821E+02  0.9225E+02
     -6.145  0.1306E+03  0.1010E+03
     -6.078  0.7128E+02  0.1058E+03
     -6.010  0.9959E+02  0.1125E+03
     -5.943  0.7047E+02  0.1173E+03
     -5.876  0.1439E+02  0.1183E+03
     -5.808  0.4702E+02  0.1214E+03
     -5.741  0.4256E+02  0.1243E+03
     -5.674  0.1121E+03  0.1318E+03
     -5.606  0.8884E+02  0.1378E+03
     -5.539  0.2401E+02  0.1394E+03
     -5.472  0.2723E+02  0.1413E+03
     -5.404  0.1470E+02  0.1423E+03
     -5.337  0.8192E+02  0.1478E+03
     -5.270  0.4139E+02  0.1506E+03
     -5.202  0.4590E+02  0.1537E+03
     -5.135  0.9793E+02  0.1603E+03
     -5.068  0.6093E+02  0.1644E+03
     -5.000  0.9024E+02  0.1704E+03
     -4.933  0.2289E+02  0.1720E+03
     -4.866  0.1286E+02  0.1728E+03
     -4.798  0.5981E+02  0.1769E+03
     -4.731  0.8353E+02  0.1825E+03
     -4.664  0.1366E+03  0.1917E+03
     -4.596  0.3452E+02  0.1940E+03
     -4.529  0.6946E+02  0.1987E+03
     -4.462  0.4445E+02  0.2017E+03
     -4.394  0.2681E+02  0.2035E+03
     -4.327  0.7740E+02  0.2087E+03
     -4.260  0.6216E+02  0.2129E+03
     -4.192  0.1473E+03  0.2228E+03
     -4.125  0.9589E+02  0.2293E+03
     -4.058  0.8666E+02  0.2351E+03
     -3.990  0.4271E+02  0.2380E+03
     -3.923  0.3280E+02  0.2402E+03
     -3.856  0.9606E+02  0.2466E+03
     -3.788  0.5888E+02  0.2506E+03
     -3.721  0.9604E+02  0.2571E+03
     -3.654  0.6914E+02  0.2617E+03
     -3.586  0.4945E+02  0.2651E+03
     -3.519  0.7294E+02  0.2700E+03
     -3.452  0.2124E+02  0.2714E+03
     -3.384  0.5086E+01  0.2717E+03
     -3.317  0.3505E+02  0.2741E+03
     -3.250  0.8742E+02  0.2800E+03
     -3.182  0.8547E+02  0.2858E+03
     -3.115  0.9731E+02  0.2923E+03
     -3.048  0.1206E+03  0.3004E+03
     -2.980  0.6902E+02  0.3051E+03
     -2.913  0.1260E+03  0.3136E+03
     -2.846  0.1540E+03  0.3239E+03
     -2.778  0.1842E+03  0.3363E+03
     -2.711  0.1021E+03  0.3432E+03
     -2.644  0.4388E+01  0.3435E+03
     -2.576  0.4548E+00  0.3435E+03
     -2.509  0.1805E+02  0.3447E+03
     -2.442  0.7264E+02  0.3496E+03
     -2.374  0.9251E+02  0.3559E+03
     -2.307  0.1351E+03  0.3650E+03
     -2.240  0.7591E+02  0.3701E+03
     -2.172  0.6884E+02  0.3747E+03
     -2.105  0.1240E+03  0.3831E+03
     -2.038  0.4282E+02  0.3859E+03
     -1.970  0.6604E+02  0.3904E+03
     -1.903  0.1016E+03  0.3972E+03
     -1.836  0.1300E+03  0.4060E+03
     -1.768  0.1466E+03  0.4159E+03
     -1.701  0.5365E+02  0.4195E+03
     -1.634  0.5619E+02  0.4232E+03
     -1.566  0.6990E+02  0.4280E+03
     -1.499  0.7909E+02  0.4333E+03
     -1.432  0.6428E+02  0.4376E+03
     -1.364  0.1823E+03  0.4499E+03
     -1.297  0.1179E+03  0.4578E+03
     -1.229  0.1099E+03  0.4652E+03
     -1.162  0.1202E+03  0.4733E+03
     -1.095  0.7239E+02  0.4782E+03
     -1.027  0.8352E+02  0.4838E+03
     -0.960  0.7123E+02  0.4886E+03
     -0.893  0.1248E+03  0.4970E+03
     -0.825  0.1128E+03  0.5046E+03
     -0.758  0.8449E+02  0.5103E+03
     -0.691  0.6266E+02  0.5145E+03
     -0.623  0.3170E+02  0.5167E+03
     -0.556  0.6248E+02  0.5209E+03
     -0.489  0.1536E+03  0.5312E+03
     -0.421  0.2185E+03  0.5459E+03
     -0.354  0.8719E+02  0.5518E+03
     -0.287  0.1242E+03  0.5601E+03
     -0.219  0.1253E+03  0.5686E+03
     -0.152  0.5081E+02  0.5720E+03
     -0.085  0.3744E+02  0.5745E+03
     -0.017  0.3298E+02  0.5767E+03
      0.050  0.1255E+03  0.5852E+03
      0.117  0.7348E+02  0.5901E+03
      0.185  0.9997E+02  0.5969E+03
      0.252  0.9968E+02  0.6036E+03
      0.319  0.6777E+02  0.6082E+03
      0.387  0.7148E+02  0.6130E+03
      0.454  0.1584E+03  0.6236E+03
      0.521  0.1081E+03  0.6309E+03
      0.589  0.6228E+02  0.6351E+03
      0.656  0.7227E+02  0.6400E+03
      0.723  0.2797E+02  0.6419E+03
      0.791  0.6376E+02  0.6461E+03
      0.858  0.6924E+02  0.6508E+03
      0.925  0.1951E+03  0.6639E+03
      0.993  0.2529E+03  0.6810E+03
      1.060  0.1315E+03  0.6898E+03
      1.127  0.1080E+03  0.6971E+03
      1.195  0.7747E+02  0.7023E+03
      1.262  0.6291E+02  0.7065E+03
      1.329  0.7504E+02  0.7116E+03
      1.397  0.9435E+02  0.7180E+03
      1.464  0.9687E+02  0.7245E+03
      1.531  0.1505E+03  0.7346E+03
      1.599  0.1728E+03  0.7462E+03
      1.666  0.1718E+03  0.7578E+03
      1.733  0.8561E+02  0.7636E+03
      1.801  0.4784E+02  0.7668E+03
      1.868  0.6899E+02  0.7714E+03
      1.935  0.1548E+03  0.7819E+03
      2.003  0.1533E+03  0.7922E+03
      2.070  0.8233E+02  0.7977E+03
      2.137  0.8731E+02  0.8036E+03
      2.205  0.8310E+02  0.8092E+03
      2.272  0.6475E+02  0.8136E+03
      2.339  0.7176E+02  0.8184E+03
      2.407  0.1133E+03  0.8260E+03
      2.474  0.8386E+02  0.8317E+03
      2.541  0.1069E+03  0.8389E+03
      2.609  0.1554E+03  0.8493E+03
      2.676  0.8271E+02  0.8549E+03
      2.743  0.6955E+02  0.8596E+03
      2.811  0.8235E+02  0.8651E+03
      2.878  0.2147E+03  0.8796E+03
      2.945  0.3015E+03  0.8999E+03
      3.013  0.1796E+03  0.9120E+03
      3.080  0.8919E+02  0.9180E+03
      3.147  0.5026E+02  0.9214E+03
      3.215  0.7722E+02  0.9266E+03
      3.282  0.1250E+03  0.9350E+03
      3.349  0.1316E+03  0.9439E+03
      3.417  0.1589E+03  0.9546E+03
      3.484  0.1180E+03  0.9625E+03
      3.551  0.7333E+02  0.9674E+03
      3.619  0.9153E+02  0.9736E+03
      3.686  0.1117E+03  0.9811E+03
      3.753  0.8224E+02  0.9867E+03
      3.821  0.6021E+02  0.9907E+03
      3.888  0.1271E+03  0.9993E+03
      3.955  0.1804E+03  0.1011E+04
      4.023  0.1561E+03  0.1022E+04
      4.090  0.1041E+03  0.1029E+04
      4.157  0.4229E+02  0.1032E+04
      4.225  0.3172E+01  0.1032E+04
      4.292  0.1751E-01  0.1032E+04
      4.359  0.4050E-05  0.1032E+04
      4.427  0.3043E-10  0.1032E+04
      4.494  0.0000E+00  0.1032E+04
      4.561  0.0000E+00  0.1032E+04
      4.629  0.0000E+00  0.1032E+04
      4.696  0.0000E+00  0.1032E+04
      4.763  0.0000E+00  0.1032E+04
      4.831  0.0000E+00  0.1032E+04
      4.898  0.0000E+00  0.1032E+04
      4.965  0.0000E+00  0.1032E+04
      5.033  0.0000E+00  0.1032E+04
