 vasp.5.4.4.18Apr17-6-g9f103f2a35 (build May 02 2017 15:33:50) complex          
  
 executed on Intel-16.0.3.210-OMP date 2018.08.08  23:18:02
 running on    6 total cores
 distrk:  each k-point on    6 cores,    1 groups
 distr:  one band on NCORES_PER_BAND=   1 cores,    6 groups


--------------------------------------------------------------------------------------------------------


 INCAR:
 POTCAR:    PAW Al_GW 19Mar2012                   
 POTCAR:    PAW_PBE N 08Apr2002                   

 ----------------------------------------------------------------------------- 
|                                                                             |
|           W    W    AA    RRRRR   N    N  II  N    N   GGGG   !!!           |
|           W    W   A  A   R    R  NN   N  II  NN   N  G    G  !!!           |
|           W    W  A    A  R    R  N N  N  II  N N  N  G       !!!           |
|           W WW W  AAAAAA  RRRRR   N  N N  II  N  N N  G  GGG   !            |
|           WW  WW  A    A  R   R   N   NN  II  N   NN  G    G                |
|           W    W  A    A  R    R  N    N  II  N    N   GGGG   !!!           |
|                                                                             |
|      For optimal performance we recommend to set                            |
|        NCORE= 4 - approx SQRT( number of cores)                             |
|      NCORE specifies how many cores store one orbital (NPAR=cpu/NCORE).     |
|      This setting can  greatly improve the performance of VASP for DFT.     |
|      The default,   NCORE=1            might be grossly inefficient         |
|      on modern multi-core architectures or massively parallel machines.     |
|      Do your own testing !!!!                                               |
|      Unfortunately you need to use the default for GW and RPA calculations. |
|      (for HF NCORE is supported but not extensively tested yet)             |
|                                                                             |
 ----------------------------------------------------------------------------- 

 POTCAR:    PAW Al_GW 19Mar2012                   
   VRHFIN =Al: s2p1                                                             
   LEXCH  = PE                                                                  
   EATOM  =    53.5387 eV,    3.9350 Ry                                         
                                                                                
   TITEL  = PAW Al_GW 19Mar2012                                                 
   LULTRA =        F    use ultrasoft PP ?                                      
   IUNSCR =        1    unscreen: 0-lin 1-nonlin 2-no                           
   RPACOR =    1.500    partial core radius                                     
   POMASS =   26.982; ZVAL   =    3.000    mass and valenz                      
   RCORE  =    2.000    outmost cutoff radius                                   
   RWIGS  =    2.000; RWIGS  =    1.058    wigner-seitz radius (au A)           
   ENMAX  =  240.300; ENMIN  =  180.225 eV                                      
   ICORE  =        3    local potential                                         
   LCOR   =        T    correct aug charges                                     
   LPAW   =        T    paw PP                                                  
   EAUG   =  482.059                                                            
   DEXC   =    0.000                                                            
   RMAX   =    2.051    core radius for proj-oper                               
   RAUG   =    1.300    factor for augmentation sphere                          
   RDEP   =    2.096    radius for radial grids                                 
   RDEPT  =    1.856    core radius for aug-charge                              
                                                                                
   Atomic configuration                                                         
    7 entries                                                                   
     n  l   j            E        occ.                                          
     1  0  0.50     -1511.1048   2.0000                                         
     2  0  0.50      -108.1629   2.0000                                         
     2  1  1.50       -69.6402   6.0000                                         
     3  0  0.50        -7.7528   2.0000                                         
     3  1  1.50        -2.7121   1.0000                                         
     3  2  2.50        -2.7212   0.0000                                         
     4  3  2.50        -2.7212   0.0000                                         
   Description                                                                  
     l       E           TYP  RCUT    TYP  RCUT                                 
     0     -7.7528455     23  1.900                                             
     0     68.0291300     23  1.900                                             
     1     -2.7120682     23  1.900                                             
     1     68.0291300     23  1.900                                             
     2     -1.3605826     23  1.900                                             
     2     81.6349560     23  1.900                                             
     3     74.8320430     23  2.000                                             
  local pseudopotential read in
  partial core-charges read in
  partial kinetic energy density read in
  kinetic energy density of atom read in
  atomic valenz-charges read in
  non local Contribution for L=           0  read in
    real space projection operators read in
  non local Contribution for L=           0  read in
    real space projection operators read in
  non local Contribution for L=           1  read in
    real space projection operators read in
  non local Contribution for L=           1  read in
    real space projection operators read in
  non local Contribution for L=           2  read in
    real space projection operators read in
  non local Contribution for L=           2  read in
    real space projection operators read in
    PAW grid and wavefunctions read in
 
   number of l-projection  operators is LMAX  =           6
   number of lm-projection operators is LMMAX =          18
 
 POTCAR:    PAW_PBE N 08Apr2002                   
   VRHFIN =N: s2p3                                                              
   LEXCH  = PE                                                                  
   EATOM  =   264.5486 eV,   19.4438 Ry                                         
                                                                                
   TITEL  = PAW_PBE N 08Apr2002                                                 
   LULTRA =        F    use ultrasoft PP ?                                      
   IUNSCR =        1    unscreen: 0-lin 1-nonlin 2-no                           
   RPACOR =    1.200    partial core radius                                     
   POMASS =   14.001; ZVAL   =    5.000    mass and valenz                      
   RCORE  =    1.500    outmost cutoff radius                                   
   RWIGS  =    1.400; RWIGS  =    0.741    wigner-seitz radius (au A)           
   ENMAX  =  400.000; ENMIN  =  300.000 eV                                      
   ICORE  =        2    local potential                                         
   LCOR   =        T    correct aug charges                                     
   LPAW   =        T    paw PP                                                  
   EAUG   =  627.112                                                            
   DEXC   =    0.000                                                            
   RMAX   =    1.529    core radius for proj-oper                               
   RAUG   =    1.300    factor for augmentation sphere                          
   RDEP   =    1.514    radius for radial grids                                 
   RDEPT  =    1.338    core radius for aug-charge                              
                                                                                
   Atomic configuration                                                         
    4 entries                                                                   
     n  l   j            E        occ.                                          
     1  0  0.50      -384.7179   2.0000                                         
     2  0  0.50       -18.5828   2.0000                                         
     2  1  0.50        -7.0898   3.0000                                         
     3  2  1.50        -6.8029   0.0000                                         
   Description                                                                  
     l       E           TYP  RCUT    TYP  RCUT                                 
     0    -18.5828119     23  1.200                                             
     0    -13.5018863     23  1.200                                             
     1     -7.0897853     23  1.500                                             
     1      9.5240782     23  1.500                                             
     2     -6.8029130      7  1.500                                             
  local pseudopotential read in
  partial core-charges read in
  partial kinetic energy density read in
  atomic valenz-charges read in
  non local Contribution for L=           0  read in
    real space projection operators read in
  non local Contribution for L=           0  read in
    real space projection operators read in
  non local Contribution for L=           1  read in
    real space projection operators read in
  non local Contribution for L=           1  read in
    real space projection operators read in
    PAW grid and wavefunctions read in
 
   number of l-projection  operators is LMAX  =           4
   number of lm-projection operators is LMMAX =           8
 
 Optimization of the real space projectors (new method)

 maximal supplied QI-value         = 18.90
 optimisation between [QCUT,QGAM] = [  8.69, 17.57] = [ 21.16, 86.49] Ry 
 Optimized for a Real-space Cutoff    1.59 Angstroem

   l    n(q)    QCUT    max X(q) W(low)/X(q) W(high)/X(q)  e(spline) 
   0      8     8.693    11.519    0.12E-03    0.31E-04    0.21E-06
   0      8     8.693     5.834    0.89E-04    0.32E-04    0.16E-06
   1      8     8.693    10.132    0.25E-03    0.39E-03    0.25E-06
   1      8     8.693     3.004    0.16E-03    0.27E-03    0.22E-06
   2      7     8.693     3.169    0.39E-03    0.93E-03    0.44E-06
   2      7     8.693     1.605    0.70E-04    0.91E-04    0.19E-06
 Optimization of the real space projectors (new method)

 maximal supplied QI-value         = 25.13
 optimisation between [QCUT,QGAM] = [  8.80, 17.59] = [ 21.67, 86.68] Ry 
 Optimized for a Real-space Cutoff    2.14 Angstroem

   l    n(q)    QCUT    max X(q) W(low)/X(q) W(high)/X(q)  e(spline) 
   0     11     8.797    79.467    0.70E-04    0.19E-04    0.19E-05
   0     11     8.797    66.151    0.68E-04    0.18E-04    0.19E-05
   1     11     8.797     6.738    0.26E-03    0.11E-02    0.73E-05
   1     11     8.797     5.013    0.25E-03    0.11E-02    0.72E-05
  PAW Al_GW 19Mar2012                   :
 energy of atom  1       EATOM=  -53.5387
 kinetic energy error for atom=    0.0011 (will be added to EATOM!!)
  PAW_PBE N 08Apr2002                   :
 energy of atom  2       EATOM= -264.5486
 kinetic energy error for atom=    0.6882 (will be added to EATOM!!)
 
 
 POSCAR: New structure                           
  positions in cartesian coordinates
  No initial velocities read in
 exchange correlation table for  LEXCH =        8
   RHO(1)=    0.500       N(1)  =     2000
   RHO(2)=  100.500       N(2)  =     4000
 


--------------------------------------------------------------------------------------------------------


 ion  position               nearest neighbor table
   1  0.444  0.444  0.079-
   2  0.444  0.778  0.079-
   3  0.444  0.111  0.079-
   4  0.778  0.444  0.079-
   5  0.778  0.778  0.079-
   6  0.778  0.111  0.079-
   7  0.111  0.444  0.079-
   8  0.111  0.778  0.079-
   9  0.111  0.111  0.079-
  10  0.556  0.556  0.157-
  11  0.556  0.889  0.157-
  12  0.556  0.222  0.157-
  13  0.889  0.556  0.157-
  14  0.889  0.889  0.157-
  15  0.889  0.222  0.157-
  16  0.222  0.556  0.157-
  17  0.222  0.889  0.157-
  18  0.222  0.222  0.157-
  19  0.667  0.667  0.234-
  20  0.667  0.000  0.234-
  21  0.667  0.333  0.234-
  22  0.000  0.667  0.234-
  23  0.000  0.000  0.234-
  24  0.000  0.333  0.234-
  25  0.333  0.667  0.234-
  26  0.333  0.000  0.234-
  27  0.333  0.333  0.234-
  28  0.778  0.778  0.312-
  29  0.778  0.111  0.312-
  30  0.778  0.444  0.312-
  31  0.111  0.778  0.312-
  32  0.111  0.111  0.312-
  33  0.111  0.444  0.312-
  34  0.444  0.778  0.312-
  35  0.444  0.111  0.312-
  36  0.444  0.444  0.312-
  37  0.889  0.889  0.390-
  38  0.889  0.222  0.390-
  39  0.889  0.556  0.390-
  40  0.222  0.889  0.390-
  41  0.222  0.222  0.390-
  42  0.222  0.556  0.390-
  43  0.556  0.889  0.390-
  44  0.556  0.222  0.390-
  45  0.556  0.556  0.390-
  46  0.000  0.000  0.466-
  47  0.000  0.333  0.466-
  48  0.000  0.667  0.466-
  49  0.333  0.000  0.466-
  50  0.333  0.333  0.466-
  51  0.333  0.667  0.466-
  52  0.667  0.000  0.466-
  53  0.667  0.333  0.466-
  54  0.667  0.667  0.466-
  55  0.111  0.111  0.545-
  56  0.111  0.444  0.545-
  57  0.111  0.778  0.545-
  58  0.444  0.111  0.545-
  59  0.444  0.444  0.545-
  60  0.444  0.778  0.545-
  61  0.778  0.111  0.545-
  62  0.778  0.444  0.545-
  63  0.778  0.778  0.545-
  64  0.278  0.278  0.079-
  65  0.278  0.611  0.079-
  66  0.278  0.944  0.079-
  67  0.611  0.278  0.079-
  68  0.611  0.611  0.079-
  69  0.611  0.944  0.079-
  70  0.944  0.278  0.079-
  71  0.944  0.611  0.079-
  72  0.944  0.944  0.079-
  73  0.389  0.389  0.157-
  74  0.389  0.722  0.157-
  75  0.389  0.056  0.157-
  76  0.722  0.389  0.157-
  77  0.722  0.722  0.157-
  78  0.722  0.056  0.157-
  79  0.056  0.389  0.157-
  80  0.056  0.722  0.157-
  81  0.056  0.056  0.157-
  82  0.500  0.500  0.234-
  83  0.500  0.833  0.234-
  84  0.500  0.167  0.234-
  85  0.833  0.500  0.234-
  86  0.833  0.833  0.234-
  87  0.833  0.167  0.234-
  88  0.167  0.500  0.234-
  89  0.167  0.833  0.234-
  90  0.167  0.167  0.234-
  91  0.611  0.611  0.312-
  92  0.611  0.944  0.312-
  93  0.611  0.278  0.312-
  94  0.944  0.611  0.312-
  95  0.944  0.944  0.312-
  96  0.944  0.278  0.312-
  97  0.278  0.611  0.312-
  98  0.278  0.944  0.312-
  99  0.278  0.278  0.312-
 100  0.722  0.722  0.390-
 101  0.722  0.056  0.390-
 102  0.722  0.389  0.390-
 103  0.056  0.722  0.390-
 104  0.056  0.056  0.390-
 105  0.056  0.389  0.390-
 106  0.389  0.722  0.390-
 107  0.389  0.056  0.390-
 108  0.389  0.389  0.390-
 109  0.833  0.833  0.466-
 110  0.833  0.167  0.466-
 111  0.833  0.500  0.466-
 112  0.167  0.833  0.466-
 113  0.167  0.167  0.466-
 114  0.167  0.500  0.466-
 115  0.500  0.833  0.466-
 116  0.500  0.167  0.466-
 117  0.500  0.500  0.466-
 118  0.944  0.944  0.545-
 119  0.944  0.278  0.545-
 120  0.944  0.611  0.545-
 121  0.278  0.944  0.545-
 122  0.278  0.278  0.545-
 123  0.278  0.611  0.545-
 124  0.611  0.944  0.545-
 125  0.611  0.278  0.545-
 126  0.611  0.611  0.545-
 127  0.278  0.444  0.079-
 128  0.278  0.778  0.079-
 129  0.278  0.111  0.079-
 130  0.611  0.444  0.079-
 131  0.611  0.778  0.079-
 132  0.611  0.111  0.079-
 133  0.944  0.444  0.079-
 134  0.944  0.778  0.079-
 135  0.944  0.111  0.079-
 136  0.389  0.556  0.157-
 137  0.389  0.889  0.157-
 138  0.389  0.222  0.157-
 139  0.722  0.556  0.157-
 140  0.722  0.889  0.157-
 141  0.722  0.222  0.157-
 142  0.056  0.556  0.157-
 143  0.056  0.889  0.157-
 144  0.056  0.222  0.157-
 145  0.500  0.667  0.234-
 146  0.500  0.000  0.234-
 147  0.500  0.333  0.234-
 148  0.833  0.667  0.234-
 149  0.833  0.000  0.234-
 150  0.833  0.333  0.234-
 151  0.167  0.667  0.234-
 152  0.167  0.000  0.234-
 153  0.167  0.333  0.234-
 154  0.611  0.778  0.312-
 155  0.611  0.111  0.312-
 156  0.611  0.444  0.312-
 157  0.944  0.778  0.312-
 158  0.944  0.111  0.312-
 159  0.944  0.444  0.312-
 160  0.278  0.778  0.312-
 161  0.278  0.111  0.312-
 162  0.278  0.444  0.312-
 163  0.722  0.889  0.390-
 164  0.722  0.222  0.390-
 165  0.722  0.556  0.390-
 166  0.056  0.889  0.390-
 167  0.056  0.222  0.390-
 168  0.056  0.556  0.390-
 169  0.389  0.889  0.390-
 170  0.389  0.222  0.390-
 171  0.389  0.556  0.390-
 172  0.833  0.000  0.466-
 173  0.833  0.333  0.466-
 174  0.833  0.667  0.466-
 175  0.167  0.000  0.466-
 176  0.167  0.333  0.466-
 177  0.167  0.667  0.466-
 178  0.500  0.000  0.466-
 179  0.500  0.333  0.466-
 180  0.500  0.667  0.466-
 181  0.944  0.111  0.545-
 182  0.944  0.444  0.545-
 183  0.944  0.778  0.545-
 184  0.278  0.111  0.545-
 185  0.278  0.444  0.545-
 186  0.278  0.778  0.545-
 187  0.611  0.111  0.545-
 188  0.611  0.444  0.545-
 189  0.611  0.778  0.545-
 190  0.444  0.278  0.079-
 191  0.444  0.611  0.079-
 192  0.444  0.944  0.079-
 193  0.778  0.278  0.079-
 194  0.778  0.611  0.079-
 195  0.778  0.944  0.079-
 196  0.111  0.278  0.079-
 197  0.111  0.611  0.079-
 198  0.111  0.944  0.079-
 199  0.556  0.389  0.157-
 200  0.556  0.722  0.157-
 201  0.556  0.056  0.157-
 202  0.889  0.389  0.157-
 203  0.889  0.722  0.157-
 204  0.889  0.056  0.157-
 205  0.222  0.389  0.157-
 206  0.222  0.722  0.157-
 207  0.222  0.056  0.157-
 208  0.667  0.500  0.234-
 209  0.667  0.833  0.234-
 210  0.667  0.167  0.234-
 211  1.000  0.500  0.234-
 212  1.000  0.833  0.234-
 213  1.000  0.167  0.234-
 214  0.333  0.500  0.234-
 215  0.333  0.833  0.234-
 216  0.333  0.167  0.234-
 217  0.778  0.611  0.312-
 218  0.778  0.944  0.312-
 219  0.778  0.278  0.312-
 220  0.111  0.611  0.312-
 221  0.111  0.944  0.312-
 222  0.111  0.278  0.312-
 223  0.444  0.611  0.312-
 224  0.444  0.944  0.312-
 225  0.444  0.278  0.312-
 226  0.889  0.722  0.390-
 227  0.889  0.056  0.390-
 228  0.889  0.389  0.390-
 229  0.222  0.722  0.390-
 230  0.222  0.056  0.390-
 231  0.222  0.389  0.390-
 232  0.556  0.722  0.390-
 233  0.556  0.056  0.390-
 234  0.556  0.389  0.390-
 235  1.000  0.833  0.466-
 236  1.000  0.167  0.466-
 237  1.000  0.500  0.466-
 238  0.333  0.833  0.466-
 239  0.333  0.167  0.466-
 240  0.333  0.500  0.466-
 241  0.667  0.833  0.466-
 242  0.667  0.167  0.466-
 243  0.667  0.500  0.466-
 244  0.111  0.944  0.545-
 245  0.111  0.278  0.545-
 246  0.111  0.611  0.545-
 247  0.444  0.944  0.545-
 248  0.444  0.278  0.545-
 249  0.444  0.611  0.545-
 250  0.778  0.944  0.545-
 251  0.778  0.278  0.545-
 252  0.778  0.611  0.545-
 253  0.333  0.500  0.618- 254 1.65
 254  0.389  0.389  0.618- 253 1.65
 
  LATTYP: Found a hexagonal cell.
 ALAT       =    17.1805734625
 C/A-ratio  =     1.7461582447
  
  Lattice vectors:
  
 A1 = (   0.0000000000,  -8.5902867312,  14.8788130701)
 A2 = (   0.0000000000,  17.1805734625,   0.0000000000)
 A3 = ( -30.0000000000,   0.0000000000,   0.0000000000)


Analysis of symmetry for initial positions (statically):
=====================================================================
 Subroutine PRICEL returns:
 Original cell was already a primitive cell.
 

 Routine SETGRP: Setting up the symmetry group for a 
 hexagonal supercell.


 Subroutine GETGRP returns: Found  2 space group operations
 (whereof  1 operations were pure point group operations)
 out of a pool of 24 trial point group operations.


The static configuration has the point symmetry C_1 .
 The point group associated with its full space group is C_1h.


Analysis of symmetry for dynamics (positions and initial velocities):
=====================================================================
 Subroutine PRICEL returns:
 Original cell was already a primitive cell.
 

 Routine SETGRP: Setting up the symmetry group for a 
 hexagonal supercell.


 Subroutine GETGRP returns: Found  2 space group operations
 (whereof  1 operations were pure point group operations)
 out of a pool of 24 trial point group operations.


The dynamic configuration has the point symmetry C_1 .
 The point group associated with its full space group is C_1h.


 Subroutine INISYM returns: Found  2 space group operations
 (whereof  1 operations are pure point group operations),
 and found     1 'primitive' translations

 
 
 KPOINTS: Automatic generation                    

Automatic generation of k-mesh.
Space group operators:
 irot       det(A)        alpha          n_x          n_y          n_z        tau_x        tau_y        tau_z
    1     1.000000     0.000000     1.000000     0.000000     0.000000     0.000000     0.000000     0.000000
    2    -1.000000   180.000000     0.000000     1.000000     0.000000    -0.833333     0.000000     0.000000
 
 Subroutine IBZKPT returns following result:
 ===========================================
 
 Found      3 irreducible k-points:
 
 Following reciprocal coordinates:
            Coordinates               Weight
  0.000000  0.000000  0.000000      1.000000
  0.500000  0.000000  0.000000      2.000000
  0.000000  0.500000  0.000000      1.000000
 
 Following cartesian coordinates:
            Coordinates               Weight
  0.000000  0.000000  0.000000      1.000000
  0.000000 -0.029103  0.016802      2.000000
  0.000000  0.000000 -0.033605      1.000000
 


--------------------------------------------------------------------------------------------------------




 Dimension of arrays:
   k-points           NKPTS =      3   k-points in BZ     NKDIM =      3   number of bands    NBANDS=    516
   number of dos      NEDOS =    301   number of ions     NIONS =    254
   non local maximal  LDIM  =      6   non local SUM 2l+1 LMDIM =     18
   total plane-waves  NPLWV = 819200
   max r-space proj   IRMAX =   4449   max aug-charges    IRDMAX=   4357
   dimension x,y,z NGX =    80 NGY =   80 NGZ =  128
   dimension x,y,z NGXF=   160 NGYF=  160 NGZF=  256
   support grid    NGXF=   160 NGYF=  160 NGZF=  256
   ions per type =             252   2
   NGX,Y,Z   is equivalent  to a cutoff of   7.74,  7.74,  7.09 a.u.
   NGXF,Y,Z  is equivalent  to a cutoff of  15.48, 15.48, 14.19 a.u.

 SYSTEM =  NiAl                                    
 POSCAR =  New structure                           

 Startparameter for this run:
   NWRITE =      2    write-flag & timer
   PREC   = normal    normal or accurate (medium, high low for compatibility)
   ISTART =      0    job   : 0-new  1-cont  2-samecut
   ICHARG =      2    charge: 1-file 2-atom 10-const
   ISPIN  =      1    spin polarized calculation?
   LNONCOLLINEAR =      F non collinear calculations
   LSORBIT =      F    spin-orbit coupling
   INIWAV =      1    electr: 0-lowe 1-rand  2-diag
   LASPH  =      F    aspherical Exc in radial PAW
   METAGGA=      F    non-selfconsistent MetaGGA calc.

 Electronic Relaxation 1
   ENCUT  =  300.0 eV  22.05 Ry    4.70 a.u.  24.26 24.26 42.37*2*pi/ulx,y,z
   ENINI  =  300.0     initial cutoff
   ENAUG  =  627.1 eV  augmentation charge cutoff
   NELM   =     60;   NELMIN=  6; NELMDL= -5     # of ELM steps 
   EDIFF  = 0.5E-05   stopping-criterion for ELM
   LREAL  =      T    real-space projection
   NLSPLINE    = F    spline interpolate recip. space projectors
   LCOMPAT=      F    compatible to vasp.4.4
   GGA_COMPAT  = T    GGA compatible to vasp.4.4-vasp.4.6
   LMAXPAW     = -100 max onsite density
   LMAXMIX     =    2 max onsite mixed and CHGCAR
   VOSKOWN=      0    Vosko Wilk Nusair interpolation
   ROPT   =   -0.00050  -0.00050
 Ionic relaxation
   EDIFFG = 0.5E-04   stopping-criterion for IOM
   NSW    =      0    number of steps for IOM
   NBLOCK =      1;   KBLOCK =      1    inner block; outer block 
   IBRION =     -1    ionic relax: 0-MD 1-quasi-New 2-CG
   NFREE  =      0    steps in history (QN), initial steepest desc. (CG)
   ISIF   =      0    stress and relaxation
   IWAVPR =     10    prediction:  0-non 1-charg 2-wave 3-comb
   ISYM   =      2    0-nonsym 1-usesym 2-fastsym
   LCORR  =      T    Harris-Foulkes like correction to forces

   POTIM  = 0.5000    time-step for ionic-motion
   TEIN   =    0.0    initial temperature
   TEBEG  =    0.0;   TEEND  =   0.0 temperature during run
   SMASS  =  -3.00    Nose mass-parameter (am)
   estimated Nose-frequenzy (Omega)   =  0.10E-29 period in steps =****** mass=  -0.675E-26a.u.
   SCALEE = 1.0000    scale energy and forces
   NPACO  =    256;   APACO  = 16.0  distance and # of slots for P.C.
   PSTRESS=    0.0 pullay stress

  Mass of Ions in am
   POMASS =  26.98 14.00
  Ionic Valenz
   ZVAL   =   3.00  5.00
  Atomic Wigner-Seitz radii
   RWIGS  =  -1.00 -1.00
  virtual crystal weights 
   VCA    =   1.00  1.00
   NELECT =     766.0000    total number of electrons
   NUPDOWN=      -1.0000    fix difference up-down

 DOS related values:
   EMIN   =  10.00;   EMAX   =-10.00  energy-range for DOS
   EFERMI =   0.00
   ISMEAR =     0;   SIGMA  =   0.05  broadening in eV -4-tet -1-fermi 0-gaus

 Electronic relaxation 2 (details)
   IALGO  =     38    algorithm
   LDIAG  =      T    sub-space diagonalisation (order eigenvalues)
   LSUBROT=      F    optimize rotation matrix (better conditioning)
   TURBO    =      0    0=normal 1=particle mesh
   IRESTART =      0    0=no restart 2=restart with 2 vectors
   NREBOOT  =      0    no. of reboots
   NMIN     =      0    reboot dimension
   EREF     =   0.00    reference energy to select bands
   IMIX   =      4    mixing-type and parameters
     AMIX     =   0.40;   BMIX     =  1.00
     AMIX_MAG =   1.60;   BMIX_MAG =  1.00
     AMIN     =   0.10
     WC   =   100.;   INIMIX=   1;  MIXPRE=   1;  MAXMIX= -45

 Intra band minimization:
   WEIMIN = 0.0000     energy-eigenvalue tresh-hold
   EBREAK =  0.24E-08  absolut break condition
   DEPER  =   0.30     relativ break condition  

   TIME   =   0.40     timestep for ELM

  volume/ion in A,a.u.               =      30.19       203.75
  Fermi-wavevector in a.u.,A,eV,Ry     =   0.759583  1.435404  7.850108  0.576967
  Thomas-Fermi vector in A             =   1.858410
 
 Write flags
   LWAVE        =      F    write WAVECAR
   LDOWNSAMPLE  =      F    k-point downsampling of WAVECAR
   LCHARG       =      F    write CHGCAR
   LVTOT        =      F    write LOCPOT, total local potential
   LVHAR        =      F    write LOCPOT, Hartree potential only
   LELF         =      F    write electronic localiz. function (ELF)
   LORBIT       =      0    0 simple, 1 ext, 2 COOP (PROOUT), +10 PAW based schemes


 Dipole corrections
   LMONO  =      F    monopole corrections only (constant potential shift)
   LDIPOL =      F    correct potential (dipole corrections)
   IDIPOL =      0    1-x, 2-y, 3-z, 4-all directions 
   EPSILON=  1.0000000 bulk dielectric constant

 Exchange correlation treatment:
   GGA     =    --    GGA type
   LEXCH   =     8    internal setting for exchange type
   VOSKOWN=      0    Vosko Wilk Nusair interpolation
   LHFCALC =     F    Hartree Fock is set to
   LHFONE  =     F    Hartree Fock one center treatment
   AEXX    =    0.0000 exact exchange contribution

 Linear response parameters
   LEPSILON=     F    determine dielectric tensor
   LRPA    =     F    only Hartree local field effects (RPA)
   LNABLA  =     F    use nabla operator in PAW spheres
   LVEL    =     F    velocity operator in full k-point grid
   LINTERFAST=   F  fast interpolation
   KINTER  =     0    interpolate to denser k-point grid
   CSHIFT  =0.1000    complex shift for real part using Kramers Kronig
   OMEGAMAX=  -1.0    maximum frequency
   DEG_THRESHOLD= 0.2000000E-02 threshold for treating states as degnerate
   RTIME   =   -0.100 relaxation time in fs
  (WPLASMAI=    0.000 imaginary part of plasma frequency in eV, 0.658/RTIME)
   DFIELD  = 0.0000000 0.0000000 0.0000000 field for delta impulse in time
 
 Orbital magnetization related:
   ORBITALMAG=     F  switch on orbital magnetization
   LCHIMAG   =     F  perturbation theory with respect to B field
   DQ        =  0.001000  dq finite difference perturbation B field
   LLRAUG    =     F  two centre corrections for induced B field



--------------------------------------------------------------------------------------------------------


 Static calculation
 charge density and potential will be updated during run
 non-spin polarized calculation
 Variant of blocked Davidson
 Davidson routine will perform the subspace rotation
 perform sub-space diagonalisation
    after iterative eigenvector-optimisation
 modified Broyden-mixing scheme, WC =      100.0
 initial mixing is a Kerker type mixing with AMIX =  0.4000 and BMIX =      1.0000
 Hartree-type preconditioning will be used
 using additional bands          133
 real space projection scheme for non local part
 use partial core corrections
 calculate Harris-corrections to forces 
   (improved forces if not selfconsistent)
 use gradient corrections 
 use of overlap-Matrix (Vanderbilt PP)
 Gauss-broadening in eV      SIGMA  =   0.05


--------------------------------------------------------------------------------------------------------


  energy-cutoff  :      300.00
  volume of cell :     7668.80
      direct lattice vectors                 reciprocal lattice vectors
     0.000000000-17.180573462  0.000000000     0.000000000 -0.058205275  0.033604831
     0.000000000 -8.590286731-14.878813070     0.000000000  0.000000000 -0.067209662
    30.000000000  0.000000000  0.000000000     0.033333333  0.000000000  0.000000000

  length of vectors
    17.180573462 17.180573462 30.000000000     0.067209662  0.067209662  0.033333333


 
 k-points in units of 2pi/SCALE and weight: Automatic generation                    
   0.00000000  0.00000000  0.00000000       0.250
   0.00000000 -0.02910264  0.01680242       0.500
   0.00000000  0.00000000 -0.03360483       0.250
 
 k-points in reciprocal lattice and weights: Automatic generation                    
   0.00000000  0.00000000  0.00000000       0.250
   0.50000000  0.00000000  0.00000000       0.500
   0.00000000  0.50000000  0.00000000       0.250
 
 position of ions in fractional coordinates (direct lattice) 
   0.44444456  0.44444473  0.07873467
   0.44444419  0.77777777  0.07873467
   0.44444468  0.11111101  0.07873467
   0.77777744  0.44444473  0.07873467
   0.77777765  0.77777777  0.07873467
   0.77777756  0.11111101  0.07873467
   0.11111110  0.44444473  0.07873467
   0.11111131  0.77777777  0.07873467
   0.11111122  0.11111101  0.07873467
   0.55555520  0.55555574  0.15702600
   0.55555541  0.88888878  0.15702600
   0.55555591  0.22222203  0.15702600
   0.88888866  0.55555574  0.15702600
   0.88888887  0.88888878  0.15702600
   0.88888878  0.22222203  0.15702600
   0.22222232  0.55555574  0.15702600
   0.22222253  0.88888878  0.15702600
   0.22222245  0.22222203  0.15702600
   0.66666642  0.66666675  0.23375733
   0.66666692  0.00000000  0.23375733
   0.66666655  0.33333304  0.23375733
   0.00000008  0.66666675  0.23375733
   0.00000000  0.00000000  0.23375733
   0.00000021  0.33333304  0.23375733
   0.33333354  0.66666675  0.23375733
   0.33333346  0.00000000  0.23375733
   0.33333367  0.33333304  0.23375733
   0.77777765  0.77777777  0.31173067
   0.77777756  0.11111101  0.31173067
   0.77777744  0.44444473  0.31173067
   0.11111131  0.77777777  0.31173067
   0.11111122  0.11111101  0.31173067
   0.11111110  0.44444473  0.31173067
   0.44444419  0.77777777  0.31173067
   0.44444468  0.11111101  0.31173067
   0.44444456  0.44444473  0.31173067
   0.88888887  0.88888878  0.38970400
   0.88888878  0.22222203  0.38970400
   0.88888866  0.55555574  0.38970400
   0.22222253  0.88888878  0.38970400
   0.22222245  0.22222203  0.38970400
   0.22222232  0.55555574  0.38970400
   0.55555541  0.88888878  0.38970400
   0.55555591  0.22222203  0.38970400
   0.55555520  0.55555574  0.38970400
   0.00000000  0.00000000  0.46643533
   0.00000021  0.33333304  0.46643533
   0.00000008  0.66666675  0.46643533
   0.33333346  0.00000000  0.46643533
   0.33333367  0.33333304  0.46643533
   0.33333354  0.66666675  0.46643533
   0.66666692  0.00000000  0.46643533
   0.66666655  0.33333304  0.46643533
   0.66666642  0.66666675  0.46643533
   0.11111122  0.11111101  0.54472667
   0.11111110  0.44444473  0.54472667
   0.11111131  0.77777777  0.54472667
   0.44444468  0.11111101  0.54472667
   0.44444456  0.44444473  0.54472667
   0.44444419  0.77777777  0.54472667
   0.77777756  0.11111101  0.54472667
   0.77777744  0.44444473  0.54472667
   0.77777765  0.77777777  0.54472667
   0.27777777  0.27777753  0.07873467
   0.27777764  0.61111125  0.07873467
   0.27777785  0.94444429  0.07873467
   0.61111123  0.27777753  0.07873467
   0.61111110  0.61111125  0.07873467
   0.61111131  0.94444429  0.07873467
   0.94444469  0.27777753  0.07873467
   0.94444456  0.61111125  0.07873467
   0.94444477  0.94444429  0.07873467
   0.38888865  0.38888922  0.15702600
   0.38888886  0.72222226  0.15702600
   0.38888878  0.05555551  0.15702600
   0.72222211  0.38888922  0.15702600
   0.72222232  0.72222226  0.15702600
   0.72222224  0.05555551  0.15702600
   0.05555519  0.38888922  0.15702600
   0.05555540  0.72222226  0.15702600
   0.05555532  0.05555551  0.15702600
   0.49999988  0.50000023  0.23375733
   0.50000009  0.83333327  0.23375733
   0.50000000  0.16666652  0.23375733
   0.83333334  0.50000023  0.23375733
   0.83333355  0.83333327  0.23375733
   0.83333346  0.16666652  0.23375733
   0.16666642  0.50000023  0.23375733
   0.16666663  0.83333327  0.23375733
   0.16666654  0.16666652  0.23375733
   0.61111110  0.61111125  0.31173067
   0.61111131  0.94444429  0.31173067
   0.61111123  0.27777753  0.31173067
   0.94444456  0.61111125  0.31173067
   0.94444477  0.94444429  0.31173067
   0.94444469  0.27777753  0.31173067
   0.27777764  0.61111125  0.31173067
   0.27777785  0.94444429  0.31173067
   0.27777777  0.27777753  0.31173067
   0.72222232  0.72222226  0.38970400
   0.72222224  0.05555551  0.38970400
   0.72222211  0.38888922  0.38970400
   0.05555540  0.72222226  0.38970400
   0.05555532  0.05555551  0.38970400
   0.05555519  0.38888922  0.38970400
   0.38888886  0.72222226  0.38970400
   0.38888878  0.05555551  0.38970400
   0.38888865  0.38888922  0.38970400
   0.83333355  0.83333327  0.46643533
   0.83333346  0.16666652  0.46643533
   0.83333334  0.50000023  0.46643533
   0.16666663  0.83333327  0.46643533
   0.16666654  0.16666652  0.46643533
   0.16666642  0.50000023  0.46643533
   0.50000009  0.83333327  0.46643533
   0.50000000  0.16666652  0.46643533
   0.49999988  0.50000023  0.46643533
   0.94444477  0.94444429  0.54472667
   0.94444469  0.27777753  0.54472667
   0.94444456  0.61111125  0.54472667
   0.27777785  0.94444429  0.54472667
   0.27777777  0.27777753  0.54472667
   0.27777764  0.61111125  0.54472667
   0.61111131  0.94444429  0.54472667
   0.61111123  0.27777753  0.54472667
   0.61111110  0.61111125  0.54472667
   0.27777783  0.44444473  0.07873467
   0.27777804  0.77777777  0.07873467
   0.27777795  0.11111101  0.07873467
   0.61111071  0.44444473  0.07873467
   0.61111092  0.77777777  0.07873467
   0.61111141  0.11111101  0.07873467
   0.94444417  0.44444473  0.07873467
   0.94444438  0.77777777  0.07873467
   0.94444429  0.11111101  0.07873467
   0.38888905  0.55555574  0.15702600
   0.38888868  0.88888878  0.15702600
   0.38888918  0.22222203  0.15702600
   0.72222193  0.55555574  0.15702600
   0.72222214  0.88888878  0.15702600
   0.72222205  0.22222203  0.15702600
   0.05555559  0.55555574  0.15702600
   0.05555580  0.88888878  0.15702600
   0.05555572  0.22222203  0.15702600
   0.49999969  0.66666675  0.23375733
   0.50000019  0.00000000  0.23375733
   0.50000040  0.33333304  0.23375733
   0.83333315  0.66666675  0.23375733
   0.83333307  0.00000000  0.23375733
   0.83333328  0.33333304  0.23375733
   0.16666681  0.66666675  0.23375733
   0.16666673  0.00000000  0.23375733
   0.16666694  0.33333304  0.23375733
   0.61111092  0.77777777  0.31173067
   0.61111141  0.11111101  0.31173067
   0.61111071  0.44444473  0.31173067
   0.94444438  0.77777777  0.31173067
   0.94444429  0.11111101  0.31173067
   0.94444417  0.44444473  0.31173067
   0.27777804  0.77777777  0.31173067
   0.27777795  0.11111101  0.31173067
   0.27777783  0.44444473  0.31173067
   0.72222214  0.88888878  0.38970400
   0.72222205  0.22222203  0.38970400
   0.72222193  0.55555574  0.38970400
   0.05555580  0.88888878  0.38970400
   0.05555572  0.22222203  0.38970400
   0.05555559  0.55555574  0.38970400
   0.38888868  0.88888878  0.38970400
   0.38888918  0.22222203  0.38970400
   0.38888905  0.55555574  0.38970400
   0.83333307  0.00000000  0.46643533
   0.83333328  0.33333304  0.46643533
   0.83333315  0.66666675  0.46643533
   0.16666673  0.00000000  0.46643533
   0.16666694  0.33333304  0.46643533
   0.16666681  0.66666675  0.46643533
   0.50000019  0.00000000  0.46643533
   0.50000040  0.33333304  0.46643533
   0.49999969  0.66666675  0.46643533
   0.94444429  0.11111101  0.54472667
   0.94444417  0.44444473  0.54472667
   0.94444438  0.77777777  0.54472667
   0.27777795  0.11111101  0.54472667
   0.27777783  0.44444473  0.54472667
   0.27777804  0.77777777  0.54472667
   0.61111141  0.11111101  0.54472667
   0.61111071  0.44444473  0.54472667
   0.61111092  0.77777777  0.54472667
   0.44444450  0.27777753  0.07873467
   0.44444437  0.61111125  0.07873467
   0.44444458  0.94444429  0.07873467
   0.77777796  0.27777753  0.07873467
   0.77777783  0.61111125  0.07873467
   0.77777804  0.94444429  0.07873467
   0.11111104  0.27777753  0.07873467
   0.11111091  0.61111125  0.07873467
   0.11111112  0.94444429  0.07873467
   0.55555538  0.38888922  0.15702600
   0.55555559  0.72222226  0.15702600
   0.55555551  0.05555551  0.15702600
   0.88888884  0.38888922  0.15702600
   0.88888905  0.72222226  0.15702600
   0.88888897  0.05555551  0.15702600
   0.22222192  0.38888922  0.15702600
   0.22222213  0.72222226  0.15702600
   0.22222205  0.05555551  0.15702600
   0.66666661  0.50000023  0.23375733
   0.66666682  0.83333327  0.23375733
   0.66666673  0.16666652  0.23375733
   0.99999969  0.50000023  0.23375733
   0.99999990  0.83333327  0.23375733
   0.99999981  0.16666652  0.23375733
   0.33333315  0.50000023  0.23375733
   0.33333336  0.83333327  0.23375733
   0.33333327  0.16666652  0.23375733
   0.77777783  0.61111125  0.31173067
   0.77777804  0.94444429  0.31173067
   0.77777796  0.27777753  0.31173067
   0.11111091  0.61111125  0.31173067
   0.11111112  0.94444429  0.31173067
   0.11111104  0.27777753  0.31173067
   0.44444437  0.61111125  0.31173067
   0.44444458  0.94444429  0.31173067
   0.44444450  0.27777753  0.31173067
   0.88888905  0.72222226  0.38970400
   0.88888897  0.05555551  0.38970400
   0.88888884  0.38888922  0.38970400
   0.22222213  0.72222226  0.38970400
   0.22222205  0.05555551  0.38970400
   0.22222192  0.38888922  0.38970400
   0.55555559  0.72222226  0.38970400
   0.55555551  0.05555551  0.38970400
   0.55555538  0.38888922  0.38970400
   0.99999990  0.83333327  0.46643533
   0.99999981  0.16666652  0.46643533
   0.99999969  0.50000023  0.46643533
   0.33333336  0.83333327  0.46643533
   0.33333327  0.16666652  0.46643533
   0.33333315  0.50000023  0.46643533
   0.66666682  0.83333327  0.46643533
   0.66666673  0.16666652  0.46643533
   0.66666661  0.50000023  0.46643533
   0.11111112  0.94444429  0.54472667
   0.11111104  0.27777753  0.54472667
   0.11111091  0.61111125  0.54472667
   0.44444458  0.94444429  0.54472667
   0.44444450  0.27777753  0.54472667
   0.44444437  0.61111125  0.54472667
   0.77777804  0.94444429  0.54472667
   0.77777796  0.27777753  0.54472667
   0.77777783  0.61111125  0.54472667
   0.33333315  0.50000023  0.61800000
   0.38888907  0.38888877  0.61800000
 
 position of ions in cartesian coordinates  (Angst):
   2.36204000-11.45372000 -6.61281000
   2.36204000-14.31714000-11.57241000
   2.36204000 -8.59029000 -1.65320000
   2.36204000-17.18057000 -6.61281000
   2.36204000-20.04400000-11.57241000
   2.36204000-14.31714000 -1.65320000
   2.36204000 -5.72686000 -6.61281000
   2.36204000 -8.59029000-11.57241000
   2.36204000 -2.86343000 -1.65320000
   4.71078000-14.31714000 -8.26601000
   4.71078000-17.18057000-13.22561000
   4.71078000-11.45372000 -3.30640000
   4.71078000-20.04400000 -8.26601000
   4.71078000-22.90743000-13.22561000
   4.71078000-17.18057000 -3.30640000
   4.71078000 -8.59029000 -8.26601000
   4.71078000-11.45372000-13.22561000
   4.71078000 -5.72686000 -3.30640000
   7.01272000-17.18057000 -9.91921000
   7.01272000-11.45372000  0.00000000
   7.01272000-14.31714000 -4.95960000
   7.01272000 -5.72686000 -9.91921000
   7.01272000  0.00000000  0.00000000
   7.01272000 -2.86343000 -4.95960000
   7.01272000-11.45372000 -9.91921000
   7.01272000 -5.72686000  0.00000000
   7.01272000 -8.59029000 -4.95960000
   9.35192000-20.04400000-11.57241000
   9.35192000-14.31714000 -1.65320000
   9.35192000-17.18057000 -6.61281000
   9.35192000 -8.59029000-11.57241000
   9.35192000 -2.86343000 -1.65320000
   9.35192000 -5.72686000 -6.61281000
   9.35192000-14.31714000-11.57241000
   9.35192000 -8.59029000 -1.65320000
   9.35192000-11.45372000 -6.61281000
  11.69112000-22.90743000-13.22561000
  11.69112000-17.18057000 -3.30640000
  11.69112000-20.04400000 -8.26601000
  11.69112000-11.45372000-13.22561000
  11.69112000 -5.72686000 -3.30640000
  11.69112000 -8.59029000 -8.26601000
  11.69112000-17.18057000-13.22561000
  11.69112000-11.45372000 -3.30640000
  11.69112000-14.31714000 -8.26601000
  13.99306000  0.00000000  0.00000000
  13.99306000 -2.86343000 -4.95960000
  13.99306000 -5.72686000 -9.91921000
  13.99306000 -5.72686000  0.00000000
  13.99306000 -8.59029000 -4.95960000
  13.99306000-11.45372000 -9.91921000
  13.99306000-11.45372000  0.00000000
  13.99306000-14.31714000 -4.95960000
  13.99306000-17.18057000 -9.91921000
  16.34180000 -2.86343000 -1.65320000
  16.34180000 -5.72686000 -6.61281000
  16.34180000 -8.59029000-11.57241000
  16.34180000 -8.59029000 -1.65320000
  16.34180000-11.45372000 -6.61281000
  16.34180000-14.31714000-11.57241000
  16.34180000-14.31714000 -1.65320000
  16.34180000-17.18057000 -6.61281000
  16.34180000-20.04400000-11.57241000
   2.36204000 -7.15857000 -4.13300000
   2.36204000-10.02200000 -9.09261000
   2.36204000-12.88543000-14.05221000
   2.36204000-12.88543000 -4.13300000
   2.36204000-15.74886000 -9.09261000
   2.36204000-18.61229000-14.05221000
   2.36204000-18.61229000 -4.13300000
   2.36204000-21.47572000 -9.09261000
   2.36204000-24.33915000-14.05221000
   4.71078000-10.02200000 -5.78621000
   4.71078000-12.88543000-10.74581000
   4.71078000 -7.15857000 -0.82660000
   4.71078000-15.74886000 -5.78621000
   4.71078000-18.61229000-10.74581000
   4.71078000-12.88543000 -0.82660000
   4.71078000 -4.29514000 -5.78621000
   4.71078000 -7.15857000-10.74581000
   4.71078000 -1.43171000 -0.82660000
   7.01272000-12.88543000 -7.43941000
   7.01272000-15.74886000-12.39901000
   7.01272000-10.02200000 -2.47980000
   7.01272000-18.61229000 -7.43941000
   7.01272000-21.47572000-12.39901000
   7.01272000-15.74886000 -2.47980000
   7.01272000 -7.15857000 -7.43941000
   7.01272000-10.02200000-12.39901000
   7.01272000 -4.29514000 -2.47980000
   9.35192000-15.74886000 -9.09261000
   9.35192000-18.61229000-14.05221000
   9.35192000-12.88543000 -4.13300000
   9.35192000-21.47572000 -9.09261000
   9.35192000-24.33915000-14.05221000
   9.35192000-18.61229000 -4.13300000
   9.35192000-10.02200000 -9.09261000
   9.35192000-12.88543000-14.05221000
   9.35192000 -7.15857000 -4.13300000
  11.69112000-18.61229000-10.74581000
  11.69112000-12.88543000 -0.82660000
  11.69112000-15.74886000 -5.78621000
  11.69112000 -7.15857000-10.74581000
  11.69112000 -1.43171000 -0.82660000
  11.69112000 -4.29514000 -5.78621000
  11.69112000-12.88543000-10.74581000
  11.69112000 -7.15857000 -0.82660000
  11.69112000-10.02200000 -5.78621000
  13.99306000-21.47572000-12.39901000
  13.99306000-15.74886000 -2.47980000
  13.99306000-18.61229000 -7.43941000
  13.99306000-10.02200000-12.39901000
  13.99306000 -4.29514000 -2.47980000
  13.99306000 -7.15857000 -7.43941000
  13.99306000-15.74886000-12.39901000
  13.99306000-10.02200000 -2.47980000
  13.99306000-12.88543000 -7.43941000
  16.34180000-24.33915000-14.05221000
  16.34180000-18.61229000 -4.13300000
  16.34180000-21.47572000 -9.09261000
  16.34180000-12.88543000-14.05221000
  16.34180000 -7.15857000 -4.13300000
  16.34180000-10.02200000 -9.09261000
  16.34180000-18.61229000-14.05221000
  16.34180000-12.88543000 -4.13300000
  16.34180000-15.74886000 -9.09261000
   2.36204000 -8.59029000 -6.61281000
   2.36204000-11.45372000-11.57241000
   2.36204000 -5.72686000 -1.65320000
   2.36204000-14.31714000 -6.61281000
   2.36204000-17.18057000-11.57241000
   2.36204000-11.45372000 -1.65320000
   2.36204000-20.04400000 -6.61281000
   2.36204000-22.90743000-11.57241000
   2.36204000-17.18057000 -1.65320000
   4.71078000-11.45372000 -8.26601000
   4.71078000-14.31714000-13.22561000
   4.71078000 -8.59029000 -3.30640000
   4.71078000-17.18057000 -8.26601000
   4.71078000-20.04400000-13.22561000
   4.71078000-14.31714000 -3.30640000
   4.71078000 -5.72686000 -8.26601000
   4.71078000 -8.59029000-13.22561000
   4.71078000 -2.86343000 -3.30640000
   7.01272000-14.31714000 -9.91921000
   7.01272000 -8.59029000  0.00000000
   7.01272000-11.45372000 -4.95960000
   7.01272000-20.04400000 -9.91921000
   7.01272000-14.31714000  0.00000000
   7.01272000-17.18057000 -4.95960000
   7.01272000 -8.59029000 -9.91921000
   7.01272000 -2.86343000  0.00000000
   7.01272000 -5.72686000 -4.95960000
   9.35192000-17.18057000-11.57241000
   9.35192000-11.45372000 -1.65320000
   9.35192000-14.31714000 -6.61281000
   9.35192000-22.90743000-11.57241000
   9.35192000-17.18057000 -1.65320000
   9.35192000-20.04400000 -6.61281000
   9.35192000-11.45372000-11.57241000
   9.35192000 -5.72686000 -1.65320000
   9.35192000 -8.59029000 -6.61281000
  11.69112000-20.04400000-13.22561000
  11.69112000-14.31714000 -3.30640000
  11.69112000-17.18057000 -8.26601000
  11.69112000 -8.59029000-13.22561000
  11.69112000 -2.86343000 -3.30640000
  11.69112000 -5.72686000 -8.26601000
  11.69112000-14.31714000-13.22561000
  11.69112000 -8.59029000 -3.30640000
  11.69112000-11.45372000 -8.26601000
  13.99306000-14.31714000  0.00000000
  13.99306000-17.18057000 -4.95960000
  13.99306000-20.04400000 -9.91921000
  13.99306000 -2.86343000  0.00000000
  13.99306000 -5.72686000 -4.95960000
  13.99306000 -8.59029000 -9.91921000
  13.99306000 -8.59029000  0.00000000
  13.99306000-11.45372000 -4.95960000
  13.99306000-14.31714000 -9.91921000
  16.34180000-17.18057000 -1.65320000
  16.34180000-20.04400000 -6.61281000
  16.34180000-22.90743000-11.57241000
  16.34180000 -5.72686000 -1.65320000
  16.34180000 -8.59029000 -6.61281000
  16.34180000-11.45372000-11.57241000
  16.34180000-11.45372000 -1.65320000
  16.34180000-14.31714000 -6.61281000
  16.34180000-17.18057000-11.57241000
   2.36204000-10.02200000 -4.13300000
   2.36204000-12.88543000 -9.09261000
   2.36204000-15.74886000-14.05221000
   2.36204000-15.74886000 -4.13300000
   2.36204000-18.61229000 -9.09261000
   2.36204000-21.47572000-14.05221000
   2.36204000 -4.29514000 -4.13300000
   2.36204000 -7.15857000 -9.09261000
   2.36204000-10.02200000-14.05221000
   4.71078000-12.88543000 -5.78621000
   4.71078000-15.74886000-10.74581000
   4.71078000-10.02200000 -0.82660000
   4.71078000-18.61229000 -5.78621000
   4.71078000-21.47572000-10.74581000
   4.71078000-15.74886000 -0.82660000
   4.71078000 -7.15857000 -5.78621000
   4.71078000-10.02200000-10.74581000
   4.71078000 -4.29514000 -0.82660000
   7.01272000-15.74886000 -7.43941000
   7.01272000-18.61229000-12.39901000
   7.01272000-12.88543000 -2.47980000
   7.01272000-21.47571346 -7.43941000
   7.01272000-24.33914346-12.39901000
   7.01272000-18.61228346 -2.47980000
   7.01272000-10.02200000 -7.43941000
   7.01272000-12.88543000-12.39901000
   7.01272000 -7.15857000 -2.47980000
   9.35192000-18.61229000 -9.09261000
   9.35192000-21.47572000-14.05221000
   9.35192000-15.74886000 -4.13300000
   9.35192000 -7.15857000 -9.09261000
   9.35192000-10.02200000-14.05221000
   9.35192000 -4.29514000 -4.13300000
   9.35192000-12.88543000 -9.09261000
   9.35192000-15.74886000-14.05221000
   9.35192000-10.02200000 -4.13300000
  11.69112000-21.47572000-10.74581000
  11.69112000-15.74886000 -0.82660000
  11.69112000-18.61229000 -5.78621000
  11.69112000-10.02200000-10.74581000
  11.69112000 -4.29514000 -0.82660000
  11.69112000 -7.15857000 -5.78621000
  11.69112000-15.74886000-10.74581000
  11.69112000-10.02200000 -0.82660000
  11.69112000-12.88543000 -5.78621000
  13.99306000-24.33914346-12.39901000
  13.99306000-18.61228346 -2.47980000
  13.99306000-21.47571346 -7.43941000
  13.99306000-12.88543000-12.39901000
  13.99306000 -7.15857000 -2.47980000
  13.99306000-10.02200000 -7.43941000
  13.99306000-18.61229000-12.39901000
  13.99306000-12.88543000 -2.47980000
  13.99306000-15.74886000 -7.43941000
  16.34180000-10.02200000-14.05221000
  16.34180000 -4.29514000 -4.13300000
  16.34180000 -7.15857000 -9.09261000
  16.34180000-15.74886000-14.05221000
  16.34180000-10.02200000 -4.13300000
  16.34180000-12.88543000 -9.09261000
  16.34180000-21.47572000-14.05221000
  16.34180000-15.74886000 -4.13300000
  16.34180000-18.61229000 -9.09261000
  18.54000000-10.02200000 -7.43941000
  18.54000000-10.02200333 -5.78620333
 


--------------------------------------------------------------------------------------------------------


 k-point  1 :   0.0000 0.0000 0.0000  plane waves:   90499
 k-point  2 :   0.5000 0.0000 0.0000  plane waves:   90530
 k-point  3 :   0.0000 0.5000 0.0000  plane waves:   90530

 maximum and minimum number of plane-waves per node :     90530    90499

 maximum number of plane-waves:     90530
 maximum index in each direction: 
   IXMAX=   24   IYMAX=   24   IZMAX=   42
   IXMIN=  -24   IYMIN=  -24   IZMIN=  -42


 serial   3D FFT for wavefunctions
 parallel 3D FFT for charge:
    minimum data exchange during FFTs selected (reduces bandwidth)


 total amount of memory used by VASP MPI-rank0   652119. kBytes
=======================================================================

   base      :      30000. kBytes
   nonlr-proj:      89898. kBytes
   fftplans  :      40601. kBytes
   grid      :      95147. kBytes
   one-center:       3950. kBytes
   wavefun   :     392523. kBytes
 
     INWAV:  cpu time    0.0000: real time    0.0002
 Broyden mixing: mesh for mixing (old mesh)
   NGX = 49   NGY = 49   NGZ = 85
  (NGX  =160   NGY  =160   NGZ  =256)
  gives a total of 204085 points

 initial charge density was supplied:
 charge density of overlapping atoms calculated
 number of electron     766.0000000 magnetization 
 keeping initial charge density in first step


--------------------------------------------------------------------------------------------------------


 Maximum index for non-local projection operator         4270
 Maximum index for augmentation-charges          758 (set IRDMAX)


--------------------------------------------------------------------------------------------------------


 First call to EWALD:  gamma=   0.090
 Maximum number of real-space cells 3x 3x 2
 Maximum number of reciprocal cells 2x 2x 4

    FEWALD:  cpu time    0.0310: real time    0.0310


----------------------------------------- Iteration    1(   1)  ---------------------------------------


    POTLOK:  cpu time    0.7706: real time    0.8215
    SETDIJ:  cpu time    0.0877: real time    0.0911
     EDDAV:  cpu time   18.6924: real time   21.2404
       DOS:  cpu time    0.0013: real time    0.0069
    --------------------------------------------
      LOOP:  cpu time   19.5541: real time   22.1946

 eigenvalue-minimisations  :  3120
 total energy-change (2. order) : 0.2129446E+04  (-0.1839819E+05)
 number of electron     766.0000000 magnetization 
 augmentation part      766.0000000 magnetization 

 Free energy of the ion-electron system (eV)
  ---------------------------------------------------
  alpha Z        PSCENC =       505.22967617
  Ewald energy   TEWEN  =     87980.23376249
  -Hartree energ DENC   =   -102064.06372127
  -exchange      EXHF   =         0.00000000
  -V(xc)+E(xc)   XCENC  =     -6606.70083493
  PAW double counting   =     17092.30507181    -9042.14386232
  entropy T*S    EENTRO =        -0.06460955
  eigenvalues    EBANDS =       245.44895878
  atomic energy  EATOM  =     14019.20197576
  Solvation  Ediel_sol  =         0.00000000
  ---------------------------------------------------
  free energy    TOTEN  =      2129.44641693 eV

  energy without entropy =     2129.51102648  energy(sigma->0) =     2129.47872171


--------------------------------------------------------------------------------------------------------




----------------------------------------- Iteration    1(   2)  ---------------------------------------


     EDDAV:  cpu time   23.4711: real time   26.3134
       DOS:  cpu time    0.0020: real time    0.0020
    --------------------------------------------
      LOOP:  cpu time   23.4744: real time   26.3239

 eigenvalue-minimisations  :  4188
 total energy-change (2. order) :-0.2868291E+04  (-0.2705298E+04)
 number of electron     766.0000000 magnetization 
 augmentation part      766.0000000 magnetization 

 Free energy of the ion-electron system (eV)
  ---------------------------------------------------
  alpha Z        PSCENC =       505.22967617
  Ewald energy   TEWEN  =     87980.23376249
  -Hartree energ DENC   =   -102064.06372127
  -exchange      EXHF   =         0.00000000
  -V(xc)+E(xc)   XCENC  =     -6606.70083493
  PAW double counting   =     17092.30507181    -9042.14386232
  entropy T*S    EENTRO =        -0.12157162
  eigenvalues    EBANDS =     -2622.78498200
  atomic energy  EATOM  =     14019.20197576
  Solvation  Ediel_sol  =         0.00000000
  ---------------------------------------------------
  free energy    TOTEN  =      -738.84448592 eV

  energy without entropy =     -738.72291429  energy(sigma->0) =     -738.78370010


--------------------------------------------------------------------------------------------------------




----------------------------------------- Iteration    1(   3)  ---------------------------------------


     EDDAV:  cpu time   24.3626: real time   27.2931
       DOS:  cpu time    0.0247: real time    0.0247
    --------------------------------------------
      LOOP:  cpu time   24.3886: real time   27.3202

 eigenvalue-minimisations  :  4392
 total energy-change (2. order) :-0.2093911E+03  (-0.1997202E+03)
 number of electron     766.0000000 magnetization 
 augmentation part      766.0000000 magnetization 

 Free energy of the ion-electron system (eV)
  ---------------------------------------------------
  alpha Z        PSCENC =       505.22967617
  Ewald energy   TEWEN  =     87980.23376249
  -Hartree energ DENC   =   -102064.06372127
  -exchange      EXHF   =         0.00000000
  -V(xc)+E(xc)   XCENC  =     -6606.70083493
  PAW double counting   =     17092.30507181    -9042.14386232
  entropy T*S    EENTRO =        -0.21540318
  eigenvalues    EBANDS =     -2832.08223742
  atomic energy  EATOM  =     14019.20197576
  Solvation  Ediel_sol  =         0.00000000
  ---------------------------------------------------
  free energy    TOTEN  =      -948.23557289 eV

  energy without entropy =     -948.02016971  energy(sigma->0) =     -948.12787130


--------------------------------------------------------------------------------------------------------




----------------------------------------- Iteration    1(   4)  ---------------------------------------


     EDDAV:  cpu time   25.6886: real time   28.8202
       DOS:  cpu time    0.0022: real time    0.0022
    --------------------------------------------
      LOOP:  cpu time   25.6921: real time   28.8256

 eigenvalue-minimisations  :  4716
 total energy-change (2. order) :-0.9185360E+01  (-0.8867325E+01)
 number of electron     766.0000000 magnetization 
 augmentation part      766.0000000 magnetization 

 Free energy of the ion-electron system (eV)
  ---------------------------------------------------
  alpha Z        PSCENC =       505.22967617
  Ewald energy   TEWEN  =     87980.23376249
  -Hartree energ DENC   =   -102064.06372127
  -exchange      EXHF   =         0.00000000
  -V(xc)+E(xc)   XCENC  =     -6606.70083493
  PAW double counting   =     17092.30507181    -9042.14386232
  entropy T*S    EENTRO =        -0.23339949
  eigenvalues    EBANDS =     -2841.24960102
  atomic energy  EATOM  =     14019.20197576
  Solvation  Ediel_sol  =         0.00000000
  ---------------------------------------------------
  free energy    TOTEN  =      -957.42093281 eV

  energy without entropy =     -957.18753332  energy(sigma->0) =     -957.30423307


--------------------------------------------------------------------------------------------------------




----------------------------------------- Iteration    1(   5)  ---------------------------------------


     EDDAV:  cpu time   26.9269: real time   30.1245
       DOS:  cpu time    0.0142: real time    0.0142
    CHARGE:  cpu time    1.7265: real time    1.7786
    MIXING:  cpu time    0.0238: real time    0.0239
    --------------------------------------------
      LOOP:  cpu time   28.6929: real time   31.9449

 eigenvalue-minimisations  :  4980
 total energy-change (2. order) :-0.5191438E+00  (-0.4996976E+00)
 number of electron     765.9999998 magnetization 
 augmentation part      -10.0730332 magnetization 

 Broyden mixing:
  rms(total) = 0.18008E+01    rms(broyden)= 0.18001E+01
  rms(prec ) = 0.25576E+01
  weight for this iteration     100.00

 Free energy of the ion-electron system (eV)
  ---------------------------------------------------
  alpha Z        PSCENC =       505.22967617
  Ewald energy   TEWEN  =     87980.23376249
  -Hartree energ DENC   =   -102064.06372127
  -exchange      EXHF   =         0.00000000
  -V(xc)+E(xc)   XCENC  =     -6606.70083493
  PAW double counting   =     17092.30507181    -9042.14386232
  entropy T*S    EENTRO =        -0.23114305
  eigenvalues    EBANDS =     -2841.77100131
  atomic energy  EATOM  =     14019.20197576
  Solvation  Ediel_sol  =         0.00000000
  ---------------------------------------------------
  free energy    TOTEN  =      -957.94007666 eV

  energy without entropy =     -957.70893361  energy(sigma->0) =     -957.82450513


--------------------------------------------------------------------------------------------------------




----------------------------------------- Iteration    1(   6)  ---------------------------------------


    POTLOK:  cpu time    0.7435: real time    0.7438
    SETDIJ:  cpu time    0.0915: real time    0.0916
     EDDAV:  cpu time   25.6528: real time   28.7957
       DOS:  cpu time    0.0012: real time    0.0012
    CHARGE:  cpu time    1.7645: real time    1.7966
    MIXING:  cpu time    0.0256: real time    0.0287
    --------------------------------------------
      LOOP:  cpu time   28.2806: real time   31.4603

 eigenvalue-minimisations  :  4716
 total energy-change (2. order) :-0.1785183E+02  (-0.1862408E+02)
 number of electron     766.0000015 magnetization 
 augmentation part       -9.7624744 magnetization 

 Broyden mixing:
  rms(total) = 0.20316E+01    rms(broyden)= 0.20299E+01
  rms(prec ) = 0.43365E+01
  weight for this iteration     100.00

 eigenvalues of (default mixing * dielectric matrix)
  average eigenvalue GAMMA=   0.5682
  0.5682

 Free energy of the ion-electron system (eV)
  ---------------------------------------------------
  alpha Z        PSCENC =       505.22967617
  Ewald energy   TEWEN  =     87980.23376249
  -Hartree energ DENC   =   -102970.76462585
  -exchange      EXHF   =         0.00000000
  -V(xc)+E(xc)   XCENC  =     -6596.92735709
  PAW double counting   =     18950.56326736   -10901.63027304
  entropy T*S    EENTRO =        -0.20479367
  eigenvalues    EBANDS =     -1961.49354104
  atomic energy  EATOM  =     14019.20197576
  Solvation  Ediel_sol  =         0.00000000
  ---------------------------------------------------
  free energy    TOTEN  =      -975.79190892 eV

  energy without entropy =     -975.58711525  energy(sigma->0) =     -975.68951208


--------------------------------------------------------------------------------------------------------




----------------------------------------- Iteration    1(   7)  ---------------------------------------


    POTLOK:  cpu time    0.7491: real time    0.7495
    SETDIJ:  cpu time    0.0894: real time    0.0894
     EDDAV:  cpu time   22.5744: real time   25.3410
       DOS:  cpu time    0.0024: real time    0.0024
    CHARGE:  cpu time    1.7326: real time    1.7659
    MIXING:  cpu time    0.0262: real time    0.0262
    --------------------------------------------
      LOOP:  cpu time   25.1757: real time   27.9771

 eigenvalue-minimisations  :  3984
 total energy-change (2. order) : 0.4202337E+02  (-0.1240948E+02)
 number of electron     765.9999996 magnetization 
 augmentation part      -10.1877490 magnetization 

 Broyden mixing:
  rms(total) = 0.10550E+01    rms(broyden)= 0.10515E+01
  rms(prec ) = 0.12994E+01
  weight for this iteration     100.00

 eigenvalues of (default mixing * dielectric matrix)
  average eigenvalue GAMMA=   0.9031
  1.5661  0.2402

 Free energy of the ion-electron system (eV)
  ---------------------------------------------------
  alpha Z        PSCENC =       505.22967617
  Ewald energy   TEWEN  =     87980.23376249
  -Hartree energ DENC   =   -102466.55838133
  -exchange      EXHF   =         0.00000000
  -V(xc)+E(xc)   XCENC  =     -6594.30278683
  PAW double counting   =     19308.25414380   -11259.48129916
  entropy T*S    EENTRO =        -0.07665839
  eigenvalues    EBANDS =     -2426.26897444
  atomic energy  EATOM  =     14019.20197576
  Solvation  Ediel_sol  =         0.00000000
  ---------------------------------------------------
  free energy    TOTEN  =      -933.76854193 eV

  energy without entropy =     -933.69188355  energy(sigma->0) =     -933.73021274


--------------------------------------------------------------------------------------------------------




----------------------------------------- Iteration    1(   8)  ---------------------------------------


    POTLOK:  cpu time    0.7529: real time    0.7538
    SETDIJ:  cpu time    0.0871: real time    0.0872
     EDDAV:  cpu time   22.8160: real time   25.6935
       DOS:  cpu time    0.0016: real time    0.0016
    CHARGE:  cpu time    1.7630: real time    1.7954
    MIXING:  cpu time    0.0284: real time    0.0284
    --------------------------------------------
      LOOP:  cpu time   25.4506: real time   28.3627

 eigenvalue-minimisations  :  4056
 total energy-change (2. order) :-0.1558096E+01  (-0.3419046E+01)
 number of electron     766.0000011 magnetization 
 augmentation part       -9.9915748 magnetization 

 Broyden mixing:
  rms(total) = 0.96016E+00    rms(broyden)= 0.95659E+00
  rms(prec ) = 0.15114E+01
  weight for this iteration     100.00

 eigenvalues of (default mixing * dielectric matrix)
  average eigenvalue GAMMA=   1.0173
  2.3334  0.4632  0.2553

 Free energy of the ion-electron system (eV)
  ---------------------------------------------------
  alpha Z        PSCENC =       505.22967617
  Ewald energy   TEWEN  =     87980.23376249
  -Hartree energ DENC   =   -102563.92879495
  -exchange      EXHF   =         0.00000000
  -V(xc)+E(xc)   XCENC  =     -6587.85221774
  PAW double counting   =     20422.12954286   -12373.89942464
  entropy T*S    EENTRO =        -0.09931116
  eigenvalues    EBANDS =     -2336.34184639
  atomic energy  EATOM  =     14019.20197576
  Solvation  Ediel_sol  =         0.00000000
  ---------------------------------------------------
  free energy    TOTEN  =      -935.32663759 eV

  energy without entropy =     -935.22732643  energy(sigma->0) =     -935.27698201


--------------------------------------------------------------------------------------------------------




----------------------------------------- Iteration    1(   9)  ---------------------------------------


    POTLOK:  cpu time    0.7574: real time    0.7578
    SETDIJ:  cpu time    0.0902: real time    0.0903
     EDDAV:  cpu time   23.2647: real time   26.1450
       DOS:  cpu time    0.0215: real time    0.0215
    CHARGE:  cpu time    1.7508: real time    1.7819
    MIXING:  cpu time    0.0309: real time    0.0309
    --------------------------------------------
      LOOP:  cpu time   25.9171: real time   28.8300

 eigenvalue-minimisations  :  4140
 total energy-change (2. order) :-0.3455375E+01  (-0.5478901E+00)
 number of electron     765.9999999 magnetization 
 augmentation part      -10.3167035 magnetization 

 Broyden mixing:
  rms(total) = 0.75348E+00    rms(broyden)= 0.74917E+00
  rms(prec ) = 0.22372E+01
  weight for this iteration     100.00

 eigenvalues of (default mixing * dielectric matrix)
  average eigenvalue GAMMA=   0.8966
  2.4778  0.6424  0.2700  0.1961

 Free energy of the ion-electron system (eV)
  ---------------------------------------------------
  alpha Z        PSCENC =       505.22967617
  Ewald energy   TEWEN  =     87980.23376249
  -Hartree energ DENC   =   -102676.04331308
  -exchange      EXHF   =         0.00000000
  -V(xc)+E(xc)   XCENC  =     -6582.52619277
  PAW double counting   =     21168.54914250   -13120.88035852
  entropy T*S    EENTRO =        -0.07447277
  eigenvalues    EBANDS =     -2232.47223212
  atomic energy  EATOM  =     14019.20197576
  Solvation  Ediel_sol  =         0.00000000
  ---------------------------------------------------
  free energy    TOTEN  =      -938.78201235 eV

  energy without entropy =     -938.70753958  energy(sigma->0) =     -938.74477596


--------------------------------------------------------------------------------------------------------




----------------------------------------- Iteration    1(  10)  ---------------------------------------


    POTLOK:  cpu time    0.7514: real time    0.7515
    SETDIJ:  cpu time    0.0877: real time    0.0877
     EDDAV:  cpu time   23.1896: real time   25.9645
       DOS:  cpu time    0.0015: real time    0.0016
    CHARGE:  cpu time    1.7276: real time    1.7590
    MIXING:  cpu time    0.0302: real time    0.0302
    --------------------------------------------
      LOOP:  cpu time   25.7898: real time   28.5972

 eigenvalue-minimisations  :  4104
 total energy-change (2. order) : 0.6769670E+01  (-0.4073825E+00)
 number of electron     765.9999994 magnetization 
 augmentation part      -10.3660550 magnetization 

 Broyden mixing:
  rms(total) = 0.50787E+00    rms(broyden)= 0.50759E+00
  rms(prec ) = 0.70996E+00
  weight for this iteration     100.00

 eigenvalues of (default mixing * dielectric matrix)
  average eigenvalue GAMMA=   0.8044
  2.5133  0.7806  0.3140  0.2705  0.1434

 Free energy of the ion-electron system (eV)
  ---------------------------------------------------
  alpha Z        PSCENC =       505.22967617
  Ewald energy   TEWEN  =     87980.23376249
  -Hartree energ DENC   =   -102770.55296907
  -exchange      EXHF   =         0.00000000
  -V(xc)+E(xc)   XCENC  =     -6577.92951025
  PAW double counting   =     21824.16685018   -13777.03548014
  entropy T*S    EENTRO =        -0.04350446
  eigenvalues    EBANDS =     -2135.28314285
  atomic energy  EATOM  =     14019.20197576
  Solvation  Ediel_sol  =         0.00000000
  ---------------------------------------------------
  free energy    TOTEN  =      -932.01234218 eV

  energy without entropy =     -931.96883772  energy(sigma->0) =     -931.99058995


--------------------------------------------------------------------------------------------------------




----------------------------------------- Iteration    1(  11)  ---------------------------------------


    POTLOK:  cpu time    0.7506: real time    0.7506
    SETDIJ:  cpu time    0.0875: real time    0.0875
     EDDAV:  cpu time   22.4593: real time   25.2663
       DOS:  cpu time    0.0021: real time    0.0021
    CHARGE:  cpu time    1.7308: real time    1.7625
    MIXING:  cpu time    0.0337: real time    0.0340
    --------------------------------------------
      LOOP:  cpu time   25.0658: real time   27.9058

 eigenvalue-minimisations  :  3960
 total energy-change (2. order) : 0.9092891E+00  (-0.2862099E+00)
 number of electron     765.9999997 magnetization 
 augmentation part      -10.3689680 magnetization 

 Broyden mixing:
  rms(total) = 0.31206E+00    rms(broyden)= 0.31181E+00
  rms(prec ) = 0.37368E+00
  weight for this iteration     100.00

 eigenvalues of (default mixing * dielectric matrix)
  average eigenvalue GAMMA=   0.7610
  2.4859  0.8028  0.4315  0.4315  0.2768  0.1376

 Free energy of the ion-electron system (eV)
  ---------------------------------------------------
  alpha Z        PSCENC =       505.22967617
  Ewald energy   TEWEN  =     87980.23376249
  -Hartree energ DENC   =   -102800.77332271
  -exchange      EXHF   =         0.00000000
  -V(xc)+E(xc)   XCENC  =     -6576.82649035
  PAW double counting   =     21985.16695658   -13938.21788631
  entropy T*S    EENTRO =        -0.04194116
  eigenvalues    EBANDS =     -2105.07578358
  atomic energy  EATOM  =     14019.20197576
  Solvation  Ediel_sol  =         0.00000000
  ---------------------------------------------------
  free energy    TOTEN  =      -931.10305312 eV

  energy without entropy =     -931.06111196  energy(sigma->0) =     -931.08208254


--------------------------------------------------------------------------------------------------------




----------------------------------------- Iteration    1(  12)  ---------------------------------------


    POTLOK:  cpu time    0.7529: real time    0.7529
    SETDIJ:  cpu time    0.0878: real time    0.0878
     EDDAV:  cpu time   24.1098: real time   27.0307
       DOS:  cpu time    0.0171: real time    0.0171
    CHARGE:  cpu time    1.7435: real time    1.7753
    MIXING:  cpu time    0.0336: real time    0.0336
    --------------------------------------------
      LOOP:  cpu time   26.7464: real time   29.7001

 eigenvalue-minimisations  :  4332
 total energy-change (2. order) : 0.1195231E+00  (-0.1132985E+00)
 number of electron     766.0000001 magnetization 
 augmentation part      -10.3070699 magnetization 

 Broyden mixing:
  rms(total) = 0.10395E+00    rms(broyden)= 0.10132E+00
  rms(prec ) = 0.12121E+00
  weight for this iteration     100.00

 eigenvalues of (default mixing * dielectric matrix)
  average eigenvalue GAMMA=   0.8359
  2.4949  0.9118  0.9118  0.7471  0.3679  0.2794  0.1380

 Free energy of the ion-electron system (eV)
  ---------------------------------------------------
  alpha Z        PSCENC =       505.22967617
  Ewald energy   TEWEN  =     87980.23376249
  -Hartree energ DENC   =   -102829.91835721
  -exchange      EXHF   =         0.00000000
  -V(xc)+E(xc)   XCENC  =     -6576.75078703
  PAW double counting   =     21965.74625633   -13918.98668212
  entropy T*S    EENTRO =        -0.05360105
  eigenvalues    EBANDS =     -2075.68577333
  atomic energy  EATOM  =     14019.20197576
  Solvation  Ediel_sol  =         0.00000000
  ---------------------------------------------------
  free energy    TOTEN  =      -930.98352999 eV

  energy without entropy =     -930.92992894  energy(sigma->0) =     -930.95672946


--------------------------------------------------------------------------------------------------------




----------------------------------------- Iteration    1(  13)  ---------------------------------------


    POTLOK:  cpu time    0.7561: real time    0.7562
    SETDIJ:  cpu time    0.0884: real time    0.0884
     EDDAV:  cpu time   20.9341: real time   23.6225
       DOS:  cpu time    0.0014: real time    0.0014
    CHARGE:  cpu time    1.7547: real time    1.7859
    MIXING:  cpu time    0.0343: real time    0.0343
    --------------------------------------------
      LOOP:  cpu time   23.5706: real time   26.2912

 eigenvalue-minimisations  :  3612
 total energy-change (2. order) :-0.1728240E-01  (-0.1827629E-01)
 number of electron     766.0000000 magnetization 
 augmentation part      -10.3181865 magnetization 

 Broyden mixing:
  rms(total) = 0.92936E-01    rms(broyden)= 0.92926E-01
  rms(prec ) = 0.11794E+00
  weight for this iteration     100.00

 eigenvalues of (default mixing * dielectric matrix)
  average eigenvalue GAMMA=   0.9284
  2.4371  1.3753  1.3753  0.7731  0.6644  0.3854  0.2787  0.1379

 Free energy of the ion-electron system (eV)
  ---------------------------------------------------
  alpha Z        PSCENC =       505.22967617
  Ewald energy   TEWEN  =     87980.23376249
  -Hartree energ DENC   =   -102848.63069120
  -exchange      EXHF   =         0.00000000
  -V(xc)+E(xc)   XCENC  =     -6576.36145465
  PAW double counting   =     21980.83485364   -13934.20999086
  entropy T*S    EENTRO =        -0.04842650
  eigenvalues    EBANDS =     -2057.25051723
  atomic energy  EATOM  =     14019.20197576
  Solvation  Ediel_sol  =         0.00000000
  ---------------------------------------------------
  free energy    TOTEN  =      -931.00081239 eV

  energy without entropy =     -930.95238589  energy(sigma->0) =     -930.97659914


--------------------------------------------------------------------------------------------------------




----------------------------------------- Iteration    1(  14)  ---------------------------------------


    POTLOK:  cpu time    0.7559: real time    0.7559
    SETDIJ:  cpu time    0.0893: real time    0.0893
     EDDAV:  cpu time   20.9190: real time   23.5729
       DOS:  cpu time    0.0015: real time    0.0015
    CHARGE:  cpu time    1.7320: real time    1.7633
    MIXING:  cpu time    0.0350: real time    0.0350
    --------------------------------------------
      LOOP:  cpu time   23.5343: real time   26.2207

 eigenvalue-minimisations  :  3600
 total energy-change (2. order) : 0.2872675E-01  (-0.5904372E-02)
 number of electron     766.0000001 magnetization 
 augmentation part      -10.2989410 magnetization 

 Broyden mixing:
  rms(total) = 0.37710E-01    rms(broyden)= 0.37003E-01
  rms(prec ) = 0.59892E-01
  weight for this iteration     100.00

 eigenvalues of (default mixing * dielectric matrix)
  average eigenvalue GAMMA=   0.9776
  2.4498  2.4498  0.9439  0.9439  0.6060  0.6060  0.3824  0.2789  0.1379

 Free energy of the ion-electron system (eV)
  ---------------------------------------------------
  alpha Z        PSCENC =       505.22967617
  Ewald energy   TEWEN  =     87980.23376249
  -Hartree energ DENC   =   -102886.44063697
  -exchange      EXHF   =         0.00000000
  -V(xc)+E(xc)   XCENC  =     -6575.87858961
  PAW double counting   =     21982.20758530   -13935.80072323
  entropy T*S    EENTRO =        -0.05321725
  eigenvalues    EBANDS =     -2019.67191830
  atomic energy  EATOM  =     14019.20197576
  Solvation  Ediel_sol  =         0.00000000
  ---------------------------------------------------
  free energy    TOTEN  =      -930.97208565 eV

  energy without entropy =     -930.91886840  energy(sigma->0) =     -930.94547702


--------------------------------------------------------------------------------------------------------




----------------------------------------- Iteration    1(  15)  ---------------------------------------


    POTLOK:  cpu time    0.7551: real time    0.7551
    SETDIJ:  cpu time    0.0874: real time    0.0874
     EDDAV:  cpu time   22.6046: real time   25.4927
       DOS:  cpu time    0.0018: real time    0.0018
    CHARGE:  cpu time    1.7423: real time    1.7739
    MIXING:  cpu time    0.0400: real time    0.0400
    --------------------------------------------
      LOOP:  cpu time   25.2328: real time   28.1535

 eigenvalue-minimisations  :  3996
 total energy-change (2. order) : 0.1052370E-01  (-0.4850760E-02)
 number of electron     766.0000002 magnetization 
 augmentation part      -10.2713119 magnetization 

 Broyden mixing:
  rms(total) = 0.90862E-01    rms(broyden)= 0.90157E-01
  rms(prec ) = 0.10888E+00
  weight for this iteration     100.00

 eigenvalues of (default mixing * dielectric matrix)
  average eigenvalue GAMMA=   0.9491
  2.5030  2.5030  0.9992  0.9992  0.6164  0.6164  0.1379  0.2788  0.3785  0.4584

 Free energy of the ion-electron system (eV)
  ---------------------------------------------------
  alpha Z        PSCENC =       505.22967617
  Ewald energy   TEWEN  =     87980.23376249
  -Hartree energ DENC   =   -102923.69099118
  -exchange      EXHF   =         0.00000000
  -V(xc)+E(xc)   XCENC  =     -6575.38990107
  PAW double counting   =     21988.93372751   -13942.68648144
  entropy T*S    EENTRO =        -0.05999941
  eigenvalues    EBANDS =     -1982.73333077
  atomic energy  EATOM  =     14019.20197576
  Solvation  Ediel_sol  =         0.00000000
  ---------------------------------------------------
  free energy    TOTEN  =      -930.96156195 eV

  energy without entropy =     -930.90156254  energy(sigma->0) =     -930.93156225


--------------------------------------------------------------------------------------------------------




----------------------------------------- Iteration    1(  16)  ---------------------------------------


    POTLOK:  cpu time    0.7556: real time    0.7556
    SETDIJ:  cpu time    0.0895: real time    0.0895
     EDDAV:  cpu time   20.9677: real time   23.6057
       DOS:  cpu time    0.0015: real time    0.0015
    CHARGE:  cpu time    1.7343: real time    1.7652
    MIXING:  cpu time    0.0422: real time    0.0422
    --------------------------------------------
      LOOP:  cpu time   23.5925: real time   26.2625

 eigenvalue-minimisations  :  3612
 total energy-change (2. order) : 0.8327834E-02  (-0.1891623E-02)
 number of electron     766.0000002 magnetization 
 augmentation part      -10.2752669 magnetization 

 Broyden mixing:
  rms(total) = 0.64409E-01    rms(broyden)= 0.64382E-01
  rms(prec ) = 0.77453E-01
  weight for this iteration     100.00

 eigenvalues of (default mixing * dielectric matrix)
  average eigenvalue GAMMA=   1.0084
  2.3838  2.3838  1.5209  1.5209  0.7341  0.7341  0.1379  0.2789  0.5679  0.3785
  0.4518

 Free energy of the ion-electron system (eV)
  ---------------------------------------------------
  alpha Z        PSCENC =       505.22967617
  Ewald energy   TEWEN  =     87980.23376249
  -Hartree energ DENC   =   -102930.92919092
  -exchange      EXHF   =         0.00000000
  -V(xc)+E(xc)   XCENC  =     -6575.30423188
  PAW double counting   =     21988.36789250   -13942.11064245
  entropy T*S    EENTRO =        -0.05693625
  eigenvalues    EBANDS =     -1975.58553954
  atomic energy  EATOM  =     14019.20197576
  Solvation  Ediel_sol  =         0.00000000
  ---------------------------------------------------
  free energy    TOTEN  =      -930.95323412 eV

  energy without entropy =     -930.89629786  energy(sigma->0) =     -930.92476599


--------------------------------------------------------------------------------------------------------




----------------------------------------- Iteration    1(  17)  ---------------------------------------


    POTLOK:  cpu time    0.7592: real time    0.7592
    SETDIJ:  cpu time    0.0898: real time    0.0898
     EDDAV:  cpu time   22.8880: real time   25.7234
       DOS:  cpu time    0.0011: real time    0.0011
    CHARGE:  cpu time    1.7371: real time    1.7687
    MIXING:  cpu time    0.0438: real time    0.0438
    --------------------------------------------
[...]
     11.69112     -8.59029     -8.26601        -0.042237     -0.022172      0.000433
     11.69112    -17.18057    -13.22561         0.012642      0.013104     -0.020868
     11.69112    -11.45372     -3.30640        -0.005925      0.005501     -0.035503
     11.69112    -14.31714     -8.26601         0.001495      0.019942      0.014947
     13.99306      0.00000      0.00000         0.005158     -0.005386      0.002993
     13.99306     -2.86343     -4.95960         0.002898     -0.007740      0.004218
     13.99306     -5.72686     -9.91921         0.005937      0.005163      0.002217
     13.99306     -5.72686      0.00000         0.009257     -0.002960     -0.008253
     13.99306     -8.59029     -4.95960        -0.047257      0.002025     -0.008237
     13.99306    -11.45372     -9.91921        -0.020491      0.012317      0.034938
     13.99306    -11.45372      0.00000        -0.004222     -0.001479      0.005290
     13.99306    -14.31714     -4.95960        -0.003202      0.003123     -0.006884
     13.99306    -17.18057     -9.91921        -0.012072      0.013304      0.011968
     16.34180     -2.86343     -1.65320        -0.016609     -0.014645      0.006892
     16.34180     -5.72686     -6.61281         0.022050     -0.003840      0.000664
     16.34180     -8.59029    -11.57241         0.037204     -0.002582      0.003859
     16.34180     -8.59029     -1.65320         0.020575      0.004960     -0.016822
     16.34180    -11.45372     -6.61281         0.697114      0.197505     -0.014332
     16.34180    -14.31714    -11.57241         0.010076      0.005096     -0.000536
     16.34180    -14.31714     -1.65320         0.006541      0.001065     -0.002668
     16.34180    -17.18057     -6.61281         0.004996      0.017392     -0.001883
     16.34180    -20.04400    -11.57241        -0.006661     -0.014894     -0.010889
      2.36204     -7.15857     -4.13300        -0.005923      0.002561     -0.009941
      2.36204    -10.02200     -9.09261        -0.019121      0.000000     -0.008050
      2.36204    -12.88543    -14.05221        -0.003866      0.002056     -0.008600
      2.36204    -12.88543     -4.13300        -0.005923     -0.002561     -0.009941
      2.36204    -15.74886     -9.09261         0.015242     -0.009660     -0.016372
      2.36204    -18.61229    -14.05221         0.002387      0.000000     -0.018550
      2.36204    -18.61229     -4.13300        -0.000865      0.000000      0.002917
      2.36204    -21.47572     -9.09261         0.015242      0.009660     -0.016372
      2.36204    -24.33915    -14.05221        -0.003866     -0.002056     -0.008600
      4.71078    -10.02200     -5.78621        -0.002134      0.000000      0.004644
      4.71078    -12.88543    -10.74581         0.000649      0.010428      0.002835
      4.71078     -7.15857     -0.82660        -0.004744      0.000450     -0.001999
      4.71078    -15.74886     -5.78621        -0.002659      0.004292      0.005869
      4.71078    -18.61229    -10.74581        -0.004315      0.000000      0.003292
      4.71078    -12.88543     -0.82660        -0.004744     -0.000450     -0.001999
      4.71078     -4.29514     -5.78621        -0.002659     -0.004292      0.005869
      4.71078     -7.15857    -10.74581         0.000649     -0.010428      0.002835
      4.71078     -1.43171     -0.82660        -0.003807      0.000000     -0.006997
      7.01272    -12.88543     -7.43941         0.013803      0.007380      0.002091
      7.01272    -15.74886    -12.39901         0.006814     -0.017228      0.011848
      7.01272    -10.02200     -2.47980        -0.004200      0.000000     -0.014064
      7.01272    -18.61229     -7.43941         0.007411      0.000000      0.008135
      7.01272    -21.47572    -12.39901         0.006814      0.017228      0.011848
      7.01272    -15.74886     -2.47980         0.005705     -0.002308      0.009978
      7.01272     -7.15857     -7.43941         0.013803     -0.007380      0.002091
      7.01272    -10.02200    -12.39901         0.000923      0.000000      0.016190
      7.01272     -4.29514     -2.47980         0.005705      0.002308      0.009978
      9.35192    -15.74886     -9.09261        -0.010042     -0.003687      0.006114
      9.35192    -18.61229    -14.05221        -0.017498      0.000000     -0.001852
      9.35192    -12.88543     -4.13300         0.009260      0.023384     -0.021346
      9.35192    -21.47572     -9.09261        -0.010042      0.003687      0.006114
      9.35192    -24.33915    -14.05221         0.008380     -0.004748     -0.004835
      9.35192    -18.61229     -4.13300         0.002652      0.000000     -0.009374
      9.35192    -10.02200     -9.09261         0.015345      0.000000      0.006564
      9.35192    -12.88543    -14.05221         0.008380      0.004748     -0.004835
      9.35192     -7.15857     -4.13300         0.009260     -0.023384     -0.021346
     11.69112    -18.61229    -10.74581         0.016024      0.000000      0.011053
     11.69112    -12.88543     -0.82660         0.008525      0.013136     -0.009525
     11.69112    -15.74886     -5.78621        -0.005201      0.004551      0.002291
     11.69112     -7.15857    -10.74581        -0.002300     -0.011266      0.009533
     11.69112     -1.43171     -0.82660         0.006766      0.000000      0.001254
     11.69112     -4.29514     -5.78621        -0.005201     -0.004551      0.002291
     11.69112    -12.88543    -10.74581        -0.002300      0.011266      0.009533
     11.69112     -7.15857     -0.82660         0.008525     -0.013136     -0.009525
     11.69112    -10.02200     -5.78621        -0.078380      0.000000     -0.005662
     13.99306    -21.47572    -12.39901        -0.002179     -0.011294      0.002973
     13.99306    -15.74886     -2.47980         0.004899     -0.004405      0.000960
     13.99306    -18.61229     -7.43941        -0.001613      0.000000     -0.001100
     13.99306    -10.02200    -12.39901         0.018805      0.000000     -0.000146
     13.99306     -4.29514     -2.47980         0.004899      0.004405      0.000960
     13.99306     -7.15857     -7.43941        -0.075132     -0.009096      0.016583
     13.99306    -15.74886    -12.39901        -0.002179      0.011294      0.002973
     13.99306    -10.02200     -2.47980        -0.030615      0.000000      0.024547
     13.99306    -12.88543     -7.43941        -0.075132      0.009096      0.016583
     16.34180    -24.33915    -14.05221         0.002632     -0.004593      0.003132
     16.34180    -18.61229     -4.13300        -0.008604      0.000000     -0.009880
     16.34180    -21.47572     -9.09261         0.013427     -0.006725      0.008349
     16.34180    -12.88543    -14.05221         0.002632      0.004593      0.003132
     16.34180     -7.15857     -4.13300         0.019009      0.003858      0.005091
     16.34180    -10.02200     -9.09261         0.475526      0.000000      0.315737
     16.34180    -18.61229    -14.05221         0.004720      0.000000     -0.007212
     16.34180    -12.88543     -4.13300         0.019009     -0.003858      0.005091
     16.34180    -15.74886     -9.09261         0.013427      0.006725      0.008349
      2.36204     -8.59029     -6.61281        -0.026017      0.008840      0.006175
      2.36204    -11.45372    -11.57241        -0.005178      0.002321     -0.005875
      2.36204     -5.72686     -1.65320        -0.003521      0.006725      0.003793
      2.36204    -14.31714     -6.61281        -0.001155      0.006692      0.017587
      2.36204    -17.18057    -11.57241        -0.005790      0.012502      0.009278
      2.36204    -11.45372     -1.65320         0.007035     -0.005376      0.010153
      2.36204    -20.04400     -6.61281         0.001841      0.005969      0.005925
      2.36204    -22.90743    -11.57241         0.007613      0.001188     -0.002376
      2.36204    -17.18057     -1.65320        -0.004999      0.000291      0.002608
      4.71078    -11.45372     -8.26601        -0.001281     -0.013826      0.004324
      4.71078    -14.31714    -13.22561        -0.007189     -0.003186     -0.003262
      4.71078     -8.59029     -3.30640        -0.002003     -0.009107     -0.003826
      4.71078    -17.18057     -8.26601         0.002123     -0.013872      0.001326
      4.71078    -20.04400    -13.22561        -0.014597     -0.002593      0.004984
      4.71078    -14.31714     -3.30640        -0.001975     -0.005744     -0.001257
      4.71078     -5.72686     -8.26601         0.005674     -0.013229      0.012836
      4.71078     -8.59029    -13.22561        -0.007726     -0.005778      0.000927
      4.71078     -2.86343     -3.30640        -0.012780      0.004843      0.009673
      7.01272    -14.31714     -9.91921         0.013045      0.004202      0.004964
      7.01272     -8.59029      0.00000         0.008713     -0.007016     -0.002193
      7.01272    -11.45372     -4.95960         0.018387     -0.000109     -0.004800
      7.01272    -20.04400     -9.91921         0.006789     -0.003242     -0.016724
      7.01272    -14.31714      0.00000         0.001568      0.005307      0.000734
      7.01272    -17.18057     -4.95960         0.011006     -0.006904     -0.009457
      7.01272     -8.59029     -9.91921         0.010270     -0.004889      0.020712
      7.01272     -2.86343      0.00000        -0.003100      0.005207     -0.022152
      7.01272     -5.72686     -4.95960         0.006493     -0.025653     -0.016177
      9.35192    -17.18057    -11.57241        -0.013084      0.010582     -0.006359
      9.35192    -11.45372     -1.65320        -0.006853      0.003426     -0.007483
      9.35192    -14.31714     -6.61281         0.014532      0.032302     -0.001135
      9.35192    -22.90743    -11.57241         0.001043     -0.000267      0.000032
      9.35192    -17.18057     -1.65320        -0.000609      0.009044     -0.002915
      9.35192    -20.04400     -6.61281         0.003420      0.007402      0.002200
      9.35192    -11.45372    -11.57241        -0.007147      0.002622      0.011679
      9.35192     -5.72686     -1.65320         0.000965      0.001490     -0.001327
      9.35192     -8.59029     -6.61281         0.012804      0.016605      0.003152
     11.69112    -20.04400    -13.22561         0.012642     -0.013104     -0.020868
     11.69112    -14.31714     -3.30640        -0.005762      0.004187     -0.009750
     11.69112    -17.18057     -8.26601         0.000551      0.015522      0.005349
     11.69112     -8.59029    -13.22561         0.001748      0.003987      0.020268
     11.69112     -2.86343     -3.30640         0.000238     -0.012683     -0.011559
     11.69112     -5.72686     -8.26601         0.001495     -0.019942      0.014947
     11.69112    -14.31714    -13.22561        -0.004226      0.010655      0.007565
     11.69112     -8.59029     -3.30640        -0.005925     -0.005501     -0.035503
     11.69112    -11.45372     -8.26601        -0.042237      0.022172      0.000433
     13.99306    -14.31714      0.00000         0.009257      0.002960     -0.008253
     13.99306    -17.18057     -4.95960         0.002898      0.007740      0.004218
     13.99306    -20.04400     -9.91921        -0.012072     -0.013304      0.011968
     13.99306     -2.86343      0.00000         0.005158      0.005386      0.002993
     13.99306     -5.72686     -4.95960        -0.003202     -0.003123     -0.006884
     13.99306     -8.59029     -9.91921        -0.020491     -0.012317      0.034938
     13.99306     -8.59029      0.00000        -0.004222      0.001479      0.005290
     13.99306    -11.45372     -4.95960        -0.047257     -0.002025     -0.008237
     13.99306    -14.31714     -9.91921         0.005937     -0.005163      0.002217
     16.34180    -17.18057     -1.65320        -0.016609      0.014645      0.006892
     16.34180    -20.04400     -6.61281         0.004996     -0.017392     -0.001883
     16.34180    -22.90743    -11.57241         0.010076     -0.005096     -0.000536
     16.34180     -5.72686     -1.65320         0.006541     -0.001065     -0.002668
     16.34180     -8.59029     -6.61281         0.697114     -0.197505     -0.014332
     16.34180    -11.45372    -11.57241         0.037204      0.002582      0.003859
     16.34180    -11.45372     -1.65320         0.020575     -0.004960     -0.016822
     16.34180    -14.31714     -6.61281         0.022050      0.003840      0.000664
     16.34180    -17.18057    -11.57241        -0.006661      0.014894     -0.010889
      2.36204    -10.02200     -4.13300        -0.005763      0.000000     -0.013433
      2.36204    -12.88543     -9.09261        -0.002578      0.018631     -0.002318
      2.36204    -15.74886    -14.05221        -0.005892      0.003030     -0.002176
      2.36204    -15.74886     -4.13300        -0.001150     -0.002740      0.008040
      2.36204    -18.61229     -9.09261        -0.001782      0.000000     -0.003694
      2.36204    -21.47572    -14.05221        -0.005892     -0.003030     -0.002176
      2.36204     -4.29514     -4.13300        -0.001150      0.002740      0.008040
      2.36204     -7.15857     -9.09261        -0.002578     -0.018631     -0.002318
      2.36204    -10.02200    -14.05221        -0.008843      0.000000      0.000116
      4.71078    -12.88543     -5.78621        -0.002295      0.009852     -0.010028
      4.71078    -15.74886    -10.74581        -0.007545     -0.011506     -0.009944
      4.71078    -10.02200     -0.82660         0.007385      0.000000     -0.003528
      4.71078    -18.61229     -5.78621        -0.001319      0.000000     -0.006303
      4.71078    -21.47572    -10.74581        -0.007545      0.011506     -0.009944
      4.71078    -15.74886     -0.82660        -0.008769     -0.008922     -0.004046
      4.71078     -7.15857     -5.78621        -0.002295     -0.009852     -0.010028
      4.71078    -10.02200    -10.74581         0.002679      0.000000      0.002361
      4.71078     -4.29514     -0.82660        -0.008769      0.008922     -0.004046
      7.01272    -15.74886     -7.43941         0.003243      0.008257     -0.005711
      7.01272    -18.61229    -12.39901         0.021865      0.000000      0.004805
      7.01272    -12.88543     -2.47980         0.008148      0.010717     -0.012442
      7.01272    -21.47571     -7.43941         0.003243     -0.008257     -0.005711
      7.01272    -24.33914    -12.39901         0.003995     -0.000329      0.012129
      7.01272    -18.61228     -2.47980         0.000974      0.000000      0.009812
      7.01272    -10.02200     -7.43941         0.033720      0.000000     -0.010149
      7.01272    -12.88543    -12.39901         0.003995      0.000329      0.012129
      7.01272     -7.15857     -2.47980         0.008148     -0.010717     -0.012442
      9.35192    -18.61229     -9.09261        -0.001063      0.000000      0.017734
      9.35192    -21.47572    -14.05221        -0.003045      0.000352     -0.004230
      9.35192    -15.74886     -4.13300        -0.003681     -0.005693     -0.000819
      9.35192     -7.15857     -9.09261         0.003183     -0.020138      0.026337
      9.35192    -10.02200    -14.05221         0.002862      0.000000     -0.002268
      9.35192     -4.29514     -4.13300        -0.003681      0.005693     -0.000819
      9.35192    -12.88543     -9.09261         0.003183      0.020138      0.026337
      9.35192    -15.74886    -14.05221        -0.003045     -0.000352     -0.004230
      9.35192    -10.02200     -4.13300         0.019353      0.000000     -0.014978
     11.69112    -21.47572    -10.74581         0.011542     -0.006999      0.009878
     11.69112    -15.74886     -0.82660         0.000437      0.000871     -0.003663
     11.69112    -18.61229     -5.78621        -0.006296      0.000000      0.002625
     11.69112    -10.02200    -10.74581        -0.011018      0.000000      0.015405
     11.69112     -4.29514     -0.82660         0.000437     -0.000871     -0.003663
     11.69112     -7.15857     -5.78621        -0.020143     -0.003114      0.004557
     11.69112    -15.74886    -10.74581         0.011542      0.006999      0.009878
     11.69112    -10.02200     -0.82660         0.010802      0.000000     -0.013857
     11.69112    -12.88543     -5.78621        -0.020143      0.003114      0.004557
     13.99306    -24.33914    -12.39901         0.019460      0.000789     -0.001061
     13.99306    -18.61228     -2.47980        -0.014244      0.000000      0.000311
     13.99306    -21.47571     -7.43941         0.017034      0.006281     -0.004185
     13.99306    -12.88543    -12.39901         0.019460     -0.000789     -0.001061
     13.99306     -7.15857     -2.47980         0.001527      0.008636      0.009583
     13.99306    -10.02200     -7.43941         0.028666      0.000000      0.022400
     13.99306    -18.61229    -12.39901        -0.009877      0.000000     -0.005352
     13.99306    -12.88543     -2.47980         0.001527     -0.008636      0.009583
     13.99306    -15.74886     -7.43941         0.017034     -0.006281     -0.004185
     16.34180    -10.02200    -14.05221        -0.000223      0.000000      0.003884
     16.34180     -4.29514     -4.13300         0.011653     -0.006460     -0.001255
     16.34180     -7.15857     -9.09261        -0.013671      0.025388     -0.010729
     16.34180    -15.74886    -14.05221         0.004717     -0.003828      0.002182
     16.34180    -10.02200     -4.13300         0.455665      0.000000     -0.271480
     16.34180    -12.88543     -9.09261        -0.013671     -0.025388     -0.010729
     16.34180    -21.47572    -14.05221         0.004717      0.003828      0.002182
     16.34180    -15.74886     -4.13300         0.011653      0.006460     -0.001255
     16.34180    -18.61229     -9.09261        -0.004006     -0.000000      0.014259
     18.54000    -10.02200     -7.43941        -1.060751     -0.000000      7.817578
     18.54000    -10.02200     -5.78620        -1.219410     -0.000000     -7.906274
 -----------------------------------------------------------------------------------
    total drift:                                0.033306      0.002211     -0.000540


--------------------------------------------------------------------------------------------------------



  FREE ENERGIE OF THE ION-ELECTRON SYSTEM (eV)
  ---------------------------------------------------
  free  energy   TOTEN  =      -930.97977201 eV

  energy  without entropy=     -930.92817617  energy(sigma->0) =     -930.95397409
 


--------------------------------------------------------------------------------------------------------


    POTLOK:  cpu time    0.8595: real time    0.8605


--------------------------------------------------------------------------------------------------------


     LOOP+:  cpu time  794.3052: real time  885.4295
    4ORBIT:  cpu time    0.0000: real time    0.0000

 total amount of memory used by VASP MPI-rank0   652119. kBytes
=======================================================================

   base      :      30000. kBytes
   nonlr-proj:      89898. kBytes
   fftplans  :      40601. kBytes
   grid      :      95147. kBytes
   one-center:       3950. kBytes
   wavefun   :     392523. kBytes
 
  
  
 General timing and accounting informations for this job:
 ========================================================
  
                  Total CPU time used (sec):      809.541
                            User time (sec):      156.925
                          System time (sec):      652.616
                         Elapsed time (sec):      904.706
  
                   Maximum memory used (kb):     1007008.
                   Average memory used (kb):           0.
  
                          Minor page faults:     30016189
                          Major page faults:           60
                 Voluntary context switches:        20340
